                              Psi4 1.0.54 Driver

  ==> Input File <==

--------------------------------------------------------------------------
set {
	reference rhf
	basis cc-pvtz
}

set_num_threads( 4 )
memory 2 gb

molecule MOL {
0 1

O	 -0.651644	 -0.072933	 0.223334
C	 0.485107	 0.171416	 -0.000134
C	 1.606966	 -0.836201	 0.000174
O	 0.926956	 1.383974	 -0.284842
C	 2.988788	 -0.202529	 -0.000115
H	 1.465110	 -1.474645	 -0.864821
H	 1.465209	 -1.474077	 0.865596
H	 3.131767	 0.419673	 -0.873407
H	 3.750876	 -0.972315	 0.000098
H	 3.131883	 0.420264	 0.872742
C	 -0.019665	 2.442650	 -0.322298
C	 0.722487	 3.713757	 -0.662864
H	 -0.507996	 2.513724	 0.639382
H	 -0.775569	 2.214466	 -1.060448
H	 1.477149	 3.931424	 0.082441
H	 0.027386	 4.544248	 -0.699611
H	 1.207999	 3.630509	 -1.627083

	symmetry c1
}
set optking {
	frozen_dihedral = ("
		4 2 3 6
	")
}

ee,wfn = optimize('scf', return_wfn=True)
oeprop( wfn, 'DIPOLE', 'QUADRUPOLE', 'MULLIKEN_CHARGES')
f=open( 'psi4out.xyz', 'w' )
f.write( "17  " )
f.write( str(ee) + "\n" )
f.write( MOL.save_string_xyz() )
f.close()
--------------------------------------------------------------------------

    Molecular point group: c1
  Charge       = 0
  Multiplicity = 1
  Basis Set: CC-PVTZ
  Basis Set:
  @DF-RHF Final Energy:  -345.03682439547106
    Total Energy =                       -345.0368243954710579
    Molecular point group: c1
  Basis Set: CC-PVTZ
  Basis Set:
  Basis Set: CC-PVTZ
  Basis Set:
  @DF-RHF Final Energy:  -345.03748108546125
    Total Energy =                       -345.0374810854614793
  Basis Set: CC-PVTZ
  Basis Set:
  Basis Set: CC-PVTZ
  Basis Set:
  @DF-RHF Final Energy:  -345.03798644138197
    Total Energy =                       -345.0379864413816904
  Basis Set: CC-PVTZ
  Basis Set:
  Basis Set: CC-PVTZ
  Basis Set:
  @DF-RHF Final Energy:  -345.03796939774907
    Total Energy =                       -345.0379693977491229
  Basis Set: CC-PVTZ
  Basis Set:
  Basis Set: CC-PVTZ
  Basis Set:
  @DF-RHF Final Energy:  -345.03810332423564
    Total Energy =                       -345.0381033242357489
  Basis Set: CC-PVTZ
  Basis Set:
  Charge       = 0
  Multiplicity = 1
  Basis Set: CC-PVTZ
  Basis Set:

    Orbital Energies (a.u.)
    -----------------------

    Doubly Occupied:

       1A    -20.596359     2A    -20.528139     3A    -11.363800
       4A    -11.283484     5A    -11.236096     6A    -11.221254
       7A    -11.218787     8A     -1.471509     9A     -1.363000
      10A     -1.072883    11A     -1.031257    12A     -0.906318
      13A     -0.861903    14A     -0.780437    15A     -0.693234
      16A     -0.680361    17A     -0.674910    18A     -0.630235
      19A     -0.577068    20A     -0.573558    21A     -0.554389
      22A     -0.550719    23A     -0.523379    24A     -0.515124
      25A     -0.507910    26A     -0.491379    27A     -0.453872
      28A     -0.433904

  @DF-RHF Final Energy:  -345.03810527207713

   => Energetics <=

    Nuclear Repulsion Energy =            318.0501626510136930
    One-Electron Energy =               -1100.5860008875604308
    Two-Electron Energy =                 437.4977329644696624
    DFT Exchange-Correlation Energy =       0.0000000000000000
    Empirical Dispersion Energy =           0.0000000000000000
    PCM Polarization Energy =               0.0000000000000000
    EFP Energy =                            0.0000000000000000
    Total Energy =                       -345.0381052720770754
    Molecular point group: c1
  Basis Set: CC-PVTZ
  Basis Set:

  -Total Gradient:
     Atom            X                  Y                   Z
    ------   -----------------  -----------------  -----------------
       1       -0.000096375517    -0.000068992695     0.000014197608
       2       -0.000018049973    -0.000148113222    -0.000417870405
       3        0.000243249447     0.000369614870    -0.000170226370
       4        0.000046102264     0.000167775543     0.000330921006
       5       -0.000001231175     0.000030069590     0.000014708336
       6       -0.000248627710    -0.000275121065     0.000241101501
       7       -0.000004810384    -0.000033085327     0.000011394287
       8        0.000010015826     0.000016597224    -0.000007754281
       9        0.000035288472    -0.000034127058    -0.000002646492
      10        0.000002110899     0.000001333959    -0.000007919055
      11       -0.000028505878     0.000004282192    -0.000017712871
      12        0.000032742016    -0.000013339439     0.000004836896
      13        0.000005403674    -0.000010108418    -0.000006324756
      14        0.000006901396    -0.000008701104     0.000012547551
      15        0.000012181333     0.000016042945    -0.000001881505
      16       -0.000001093513    -0.000022126577     0.000004493118
      17        0.000004698819     0.000007998580    -0.000001864571

  **** Optimization is complete! (in 6 steps) ****
    Final optimized geometry and variables:
    Molecular point group: c1

    Geometry (in Angstrom), charge = 0, multiplicity = 1:

    O           -1.491513799959    -1.021713686422     0.392819469889
    C           -0.359451604680    -0.759817643950     0.159792652217
    C            0.738852906471    -1.798759672831     0.150696076252
    O            0.057216043936     0.456810445800    -0.131718693699
    C            2.171902926173    -1.284183910920     0.133889526928
    H            0.545732489752    -2.422976810207    -0.715668662308
    H            0.559065935787    -2.428036426933     1.012749115473
    H            2.372981358089    -0.696661554666    -0.751290814422
    H            2.860114073575    -2.120638035786     0.148919988301
    H            2.379105913376    -0.664517756598     0.997164066630
    C           -0.911479870970     1.496403924960    -0.169199793774
    C           -0.197215293566     2.780734767524    -0.519357914147
    H           -1.395817103560     1.560359894252     0.794677746302
    H           -1.665881181246     1.247882997499    -0.901970012588
    H            0.556647948348     3.017927657391     0.220797549990
    H           -0.909954454433     3.596095261247    -0.555770392536
    H            0.284452276859     2.703931085434    -1.486064469883

  Mulliken Charges: (a.u.)
   Center  Symbol    Alpha    Beta     Spin     Total
       1     O     4.20461  4.20461  0.00000 -0.40922
       2     C     2.81111  2.81111  0.00000  0.37778
       3     C     3.09013  3.09013  0.00000 -0.18025
       4     O     4.14686  4.14686  0.00000 -0.29371
       5     C     3.14108  3.14108  0.00000 -0.28216
       6     H     0.44236  0.44236  0.00000  0.11528
       7     H     0.43693  0.43693  0.00000  0.12615
       8     H     0.44908  0.44908  0.00000  0.10184
       9     H     0.44922  0.44922  0.00000  0.10156
      10     H     0.45127  0.45127  0.00000  0.09747
      11     C     2.98041  2.98041  0.00000  0.03917
      12     C     3.13359  3.13359  0.00000 -0.26717
      13     H     0.45340  0.45340  0.00000  0.09320
      14     H     0.45339  0.45339  0.00000  0.09322
      15     H     0.45129  0.45129  0.00000  0.09742
      16     H     0.45375  0.45375  0.00000  0.09251
      17     H     0.45154  0.45154  0.00000  0.09693

   Total alpha = 28.00000, Total beta = 28.00000, Total charge =  0.00000

*** Psi4 exiting successfully. Buy a developer a beer!
