  ==> Input File <==

--------------------------------------------------------------------------
set {
	reference rhf
	basis 6-31G*
}

set_num_threads( 1 )
memory 2 gb

molecule MOL {
0 1

H	 2.460008	 2.112165	 0.842945
O	 3.257691	 1.810287	 0.433503
C	 3.493229	 0.470714	 0.785812
C	 2.547801	 -0.507192	 0.096906
H	 4.513349	 0.263367	 0.489099
H	 3.439377	 0.345843	 1.866685
C	 1.077958	 -0.330434	 0.485733
H	 2.657124	 -0.392985	 -0.978441
H	 2.867832	 -1.518388	 0.342733
C	 0.162022	 -1.361042	 -0.180395
H	 0.754869	 0.670869	 0.214859
H	 0.977657	 -0.410340	 1.568274
C	 -1.309753	 -1.282496	 0.241564
H	 0.232437	 -1.256688	 -1.261597
H	 0.534209	 -2.356511	 0.052456
C	 -2.037799	 -0.007733	 -0.193645
H	 -1.831696	 -2.140116	 -0.177816
H	 -1.379526	 -1.386345	 1.323315
C	 -3.489788	 0.042957	 0.286558
H	 -2.017067	 0.064384	 -1.280144
H	 -1.513726	 0.868678	 0.179924
C	 -4.216917	 1.317354	 -0.141063
H	 -4.025645	 -0.823308	 -0.095450
H	 -3.513059	 -0.038752	 1.371301
H	 -4.239342	 1.411634	 -1.223113
H	 -5.243387	 1.322503	 0.212445
H	 -3.726170	 2.201406	 0.256408

	symmetry c1
}
set optking {
	frozen_dihedral = ("
		14 10 7 4,
		14 10 13 16,
		10 7 4 8,
		8 4 3 2,
		20 16 19 22,
		4 3 2 1
	")
}

ee = energy('scf')
oeprop('DIPOLE', 'QUADRUPOLE', 'MULLIKEN_CHARGES')
f=open( 'psi4out.xyz', 'w' )
f.write( "27  " )
f.write( str(ee) + "\n" )
f.write( MOL.save_string_xyz() )
f.close()
--------------------------------------------------------------------------

    Molecular point group: c1

    Geometry (in Angstrom), charge = 0, multiplicity = 1:

       Center              X                  Y                   Z               Mass
    ------------   -----------------  -----------------  -----------------  -----------------
           H          2.477651640860     2.050767403145     0.633591718568     1.007825032070
           O          3.275334640860     1.748889403145     0.224149718568    15.994914619560
           C          3.510872640860     0.409316403145     0.576458718568    12.000000000000
           C          2.565444640860    -0.568589596855    -0.112447281432    12.000000000000
           H          4.530992640860     0.201969403145     0.279745718568     1.007825032070
           H          3.457020640860     0.284445403145     1.657331718568     1.007825032070
           C          1.095601640860    -0.391831596855     0.276379718568    12.000000000000
           H          2.674767640860    -0.454382596855    -1.187794281432     1.007825032070
           H          2.885475640860    -1.579785596855     0.133379718568     1.007825032070
           C          0.179665640860    -1.422439596855    -0.389748281432    12.000000000000
           H          0.772512640860     0.609471403145     0.005505718568     1.007825032070
           H          0.995300640860    -0.471737596855     1.358920718568     1.007825032070
           C         -1.292109359140    -1.343893596855     0.032210718568    12.000000000000
           H          0.250080640860    -1.318085596855    -1.470950281432     1.007825032070
           H          0.551852640860    -2.417908596855    -0.156897281432     1.007825032070
           C         -2.020155359140    -0.069130596855    -0.402998281432    12.000000000000
           H         -1.814052359140    -2.201513596855    -0.387169281432     1.007825032070
           H         -1.361882359140    -1.447742596855     1.113961718568     1.007825032070
           C         -3.472144359140    -0.018440596855     0.077204718568    12.000000000000
           H         -1.999423359140     0.002986403145    -1.489497281432     1.007825032070
           H         -1.496082359140     0.807280403145    -0.029429281432     1.007825032070
           C         -4.199273359140     1.255956403145    -0.350416281432    12.000000000000
           H         -4.008001359140    -0.884705596855    -0.304803281432     1.007825032070
           H         -3.495415359140    -0.100149596855     1.161947718568     1.007825032070
           H         -4.221698359140     1.350236403145    -1.432466281432     1.007825032070
           H         -5.225743359140     1.261105403145     0.003091718568     1.007825032070
           H         -3.708526359140     2.140008403145     0.047054718568     1.007825032070

  Charge       = 0
  Multiplicity = 1
  Basis Set: 6-31G*
  Basis Set:

    Orbital Energies (a.u.)
    -----------------------

    Doubly Occupied:

       1A    -20.552347     2A    -11.267092     3A    -11.219843
       4A    -11.217360     5A    -11.216165     6A    -11.215762
       7A    -11.215273     8A    -11.214323     9A    -11.209473
      10A     -1.359088    11A     -1.095317    12A     -1.061579
      13A     -1.011609    14A     -0.948550    15A     -0.888201
      16A     -0.820032    17A     -0.801562    18A     -0.778341
      19A     -0.693744    20A     -0.651049    21A     -0.639783
      22A     -0.614408    23A     -0.599882    24A     -0.582749
      25A     -0.580575    26A     -0.552646    27A     -0.542115
      28A     -0.531037    29A     -0.505098    30A     -0.493822
      31A     -0.485891    32A     -0.474882    33A     -0.468367
      34A     -0.461530    35A     -0.451795    36A     -0.441726
      37A     -0.423105

  @DF-RHF Final Energy:  -388.28161908776679

   => Energetics <=

    Nuclear Repulsion Energy =            460.0210242666640852
    One-Electron Energy =               -1438.0330526402678970
    Two-Electron Energy =                 589.7304092858374815
    DFT Exchange-Correlation Energy =       0.0000000000000000
    Empirical Dispersion Energy =           0.0000000000000000
    PCM Polarization Energy =               0.0000000000000000
    EFP Energy =                            0.0000000000000000
    Total Energy =                       -388.2816190877663303

  Mulliken Charges: (a.u.)
   Center  Symbol    Alpha    Beta     Spin     Total
       1     H     0.27990  0.27990  0.00000  0.44020
       2     O     4.37093  4.37093  0.00000 -0.74186
       3     C     2.99738  2.99738  0.00000  0.00525
       4     C     3.16088  3.16088  0.00000 -0.32175
       5     H     0.41442  0.41442  0.00000  0.17116
       6     H     0.43204  0.43204  0.00000  0.13591
       7     C     3.16333  3.16333  0.00000 -0.32666
       8     H     0.41494  0.41494  0.00000  0.17013
       9     H     0.42432  0.42432  0.00000  0.15137
      10     C     3.15203  3.15203  0.00000 -0.30406
      11     H     0.42301  0.42301  0.00000  0.15398
      12     H     0.42544  0.42544  0.00000  0.14912
      13     C     3.15360  3.15360  0.00000 -0.30720
      14     H     0.42165  0.42165  0.00000  0.15671
      15     H     0.42140  0.42140  0.00000  0.15720
      16     C     3.15248  3.15248  0.00000 -0.30497
      17     H     0.42107  0.42107  0.00000  0.15786
      18     H     0.42448  0.42448  0.00000  0.15104
      19     C     3.15117  3.15117  0.00000 -0.30235
      20     H     0.42334  0.42334  0.00000  0.15332
      21     H     0.42387  0.42387  0.00000  0.15226
      22     C     3.23915  3.23915  0.00000 -0.47830
      23     H     0.42286  0.42286  0.00000  0.15427
      24     H     0.42337  0.42337  0.00000  0.15326
      25     H     0.42142  0.42142  0.00000  0.15716
      26     H     0.41921  0.41921  0.00000  0.16158
      27     H     0.42231  0.42231  0.00000  0.15538

   Total alpha = 37.00000, Total beta = 37.00000, Total charge = -0.00000
