                              Psi4 1.0.54 Driver

  ==> Input File <==

--------------------------------------------------------------------------
set {
	reference rhf
	basis cc-pvtz
}

set_num_threads( 4 )
memory 2 gb

molecule MOL {
0 1

O	 -1.124040	 1.331056	 -2.251245
C	 -1.512243	 0.825320	 -1.248767
C	 -0.881910	 -0.448129	 -0.720509
C	 -2.635407	 1.429946	 -0.440251
C	 0.376695	 -0.140025	 0.100361
H	 -0.618520	 -1.061424	 -1.572921
H	 -1.593805	 -0.996246	 -0.112531
C	 1.630207	 -0.772146	 -0.501001
H	 0.486632	 0.935267	 0.162725
H	 0.248225	 -0.501310	 1.117842
C	 2.907848	 -0.545876	 0.309149
H	 1.772784	 -0.391628	 -1.509394
H	 1.468529	 -1.842059	 -0.599744
C	 3.373802	 0.906639	 0.372125
H	 3.699140	 -1.146831	 -0.127906
H	 2.764321	 -0.923458	 1.318191
H	 3.519798	 1.311927	 -0.623875
H	 4.316899	 0.983758	 0.900700
H	 2.661122	 1.540651	 0.885346
H	 -3.500821	 0.776632	 -0.487549
H	 -2.895358	 2.401034	 -0.832658
H	 -2.353997	 1.513439	 0.603505

	symmetry c1
}
set optking {
	frozen_dihedral = ("
		6 3 5 8
	")
}

ee,wfn = optimize('scf', return_wfn=True)
oeprop( wfn, 'DIPOLE', 'QUADRUPOLE', 'MULLIKEN_CHARGES')
f=open( 'psi4out.xyz', 'w' )
f.write( "22  " )
f.write( str(ee) + "\n" )
f.write( MOL.save_string_xyz() )
f.close()
--------------------------------------------------------------------------

    Molecular point group: c1
  Charge       = 0
  Multiplicity = 1
  Basis Set: CC-PVTZ
  Basis Set:
  @DF-RHF Final Energy:  -348.21779257456723
    Total Energy =                       -348.2177925745666016
    Molecular point group: c1
  Basis Set: CC-PVTZ
  Basis Set:
  Basis Set: CC-PVTZ
  Basis Set:
  @DF-RHF Final Energy:  -348.21791657922358
    Total Energy =                       -348.2179165792235267
  Basis Set: CC-PVTZ
  Basis Set:
  Basis Set: CC-PVTZ
  Basis Set:
  @DF-RHF Final Energy:  -348.21823908183507
    Total Energy =                       -348.2182390818350086
  Basis Set: CC-PVTZ
  Basis Set:
  Basis Set: CC-PVTZ
  Basis Set:
  @DF-RHF Final Energy:  -348.21834053586622
    Total Energy =                       -348.2183405358665595
  Basis Set: CC-PVTZ
  Basis Set:
  @DF-RHF Final Energy:  -348.21835403710429
    Total Energy =                       -348.2183540371042909
  @DF-RHF Final Energy:  -348.21841066500866
    Total Energy =                       -348.2184106650087756
  Basis Set: CC-PVTZ
  Basis Set:
  @DF-RHF Final Energy:  -348.21841232224438
    Total Energy =                       -348.2184123222442622
  Basis Set: CC-PVTZ
  Basis Set:
  Basis Set: CC-PVTZ
  Basis Set:
  @DF-RHF Final Energy:  -348.21842057245544
    Total Energy =                       -348.2184205724556705
  Basis Set: CC-PVTZ
  Basis Set:
  Basis Set: CC-PVTZ
  Basis Set:
  @DF-RHF Final Energy:  -348.21842211169513
    Total Energy =                       -348.2184221116951903
  Basis Set: CC-PVTZ
  Basis Set:
  Charge       = 0
  Multiplicity = 1
  Basis Set: CC-PVTZ
  Basis Set:

    Orbital Energies (a.u.)
    -----------------------

    Doubly Occupied:

       1A    -20.536465     2A    -11.318916     3A    -11.230016
       4A    -11.227266     5A    -11.226461     6A    -11.218911
       7A    -11.217850     8A    -11.209409     9A     -1.396415
      10A     -1.095855    11A     -1.045109    12A     -0.998162
      13A     -0.938508    14A     -0.860817    15A     -0.787357
      16A     -0.735798    17A     -0.661844    18A     -0.641528
      19A     -0.630482    20A     -0.613833    21A     -0.604156
      22A     -0.588967    23A     -0.554107    24A     -0.546540
      25A     -0.534946    26A     -0.522759    27A     -0.502458
      28A     -0.488840    29A     -0.469292    30A     -0.464230
      31A     -0.458297    32A     -0.398569

  @DF-RHF Final Energy:  -348.21842246149083

   => Energetics <=

    Nuclear Repulsion Energy =            376.5334978616674562
    One-Electron Energy =               -1218.0555124792495008
    Two-Electron Energy =                 493.3035921560910992
    DFT Exchange-Correlation Energy =       0.0000000000000000
    Empirical Dispersion Energy =           0.0000000000000000
    PCM Polarization Energy =               0.0000000000000000
    EFP Energy =                            0.0000000000000000
    Total Energy =                       -348.2184224614909454
    Molecular point group: c1
  Basis Set: CC-PVTZ
  Basis Set:

  -Total Gradient:
     Atom            X                  Y                   Z
    ------   -----------------  -----------------  -----------------
       1       -0.000033420020    -0.000007859335     0.000113303240
       2        0.000025429755    -0.000011368538    -0.000066892832
       3        0.000055464243     0.000100717865     0.000003538896
       4       -0.000036125215     0.000018719508    -0.000067644461
       5       -0.000023418990    -0.000071776582     0.000024294008
       6       -0.000018296801    -0.000062481847     0.000010712737
       7       -0.000009201964    -0.000007005304    -0.000004300863
       8        0.000030893408     0.000030914159    -0.000030386843
       9        0.000013700422     0.000008733815    -0.000002946920
      10        0.000000951606     0.000000032991    -0.000015511366
      11        0.000013428655    -0.000008966172    -0.000001188058
      12       -0.000013708710    -0.000001426698     0.000029788191
      13       -0.000006044659     0.000010473760     0.000002770735
      14       -0.000010072452    -0.000005302170     0.000005363180
      15       -0.000018136810     0.000015732506     0.000007614526
      16        0.000010346017     0.000011083914    -0.000020139262
      17       -0.000002892824    -0.000008933421     0.000007936318
      18       -0.000014602625    -0.000002721878     0.000001860206
      19        0.000009378647    -0.000008673797    -0.000009706103
      20       -0.000011450991    -0.000010256669    -0.000003859809
      21       -0.000013952763     0.000018994779    -0.000005397259
      22        0.000051732070    -0.000008630884     0.000020791738

  **** Optimization is complete! (in 10 steps) ****
    Final optimized geometry and variables:
    Molecular point group: c1

    Geometry (in Angstrom), charge = 0, multiplicity = 1:

    O           -1.576464581727     0.822675558577    -1.863942512225
    C           -1.797142615166     0.412606952570    -0.770940302015
    C           -1.122025500651    -0.834930431235    -0.242269303151
    C           -2.754408243285     1.121062580883     0.159519600998
    C            0.104747652522    -0.488383662014     0.641126910828
    H           -0.816930838315    -1.422193509633    -1.096635178006
    H           -1.837993474932    -1.418007816924     0.325360088639
    C            1.407079979140    -1.059531448489     0.081299081217
    H            0.196129879082     0.587420337624     0.735709790301
    H           -0.049033824668    -0.867522142280     1.645493759626
    C            2.641770087893    -0.795458667266     0.943766985069
    H            1.568237994074    -0.658892357947    -0.915706491685
    H            1.289664734637    -2.133004717664    -0.036502275161
    C            3.051159215966     0.672248258760     1.041989002764
    H            3.471226945589    -1.360293255605     0.530209551334
    H            2.474801852191    -1.191903931336     1.942030552643
    H            3.213747868489     1.097610245076     0.057206290725
    H            3.972852168893     0.776003138329     1.602743304823
    H            2.299886701226     1.272556987410     1.541024131658
    H           -3.651349538518     0.518998108521     0.265473362388
    H           -3.018338725177     2.086773296341    -0.243540880010
    H           -2.324769625643     1.234035981612     1.148136041419

  Mulliken Charges: (a.u.)
   Center  Symbol    Alpha    Beta     Spin     Total
       1     O     4.17753  4.17753  0.00000 -0.35506
       2     C     2.85773  2.85773  0.00000  0.28455
       3     C     3.10433  3.10433  0.00000 -0.20867
       4     C     3.15623  3.15623  0.00000 -0.31246
       5     C     3.10380  3.10380  0.00000 -0.20760
       6     H     0.44017  0.44017  0.00000  0.11966
       7     H     0.44178  0.44178  0.00000  0.11644
       8     C     3.09383  3.09383  0.00000 -0.18767
       9     H     0.45013  0.45013  0.00000  0.09974
      10     H     0.44791  0.44791  0.00000  0.10418
      11     C     3.09245  3.09245  0.00000 -0.18489
      12     H     0.44544  0.44544  0.00000  0.10913
      13     H     0.44751  0.44751  0.00000  0.10499
      14     C     3.15216  3.15216  0.00000 -0.30432
      15     H     0.44717  0.44717  0.00000  0.10566
      16     H     0.45514  0.45514  0.00000  0.08973
      17     H     0.45169  0.45169  0.00000  0.09662
      18     H     0.44601  0.44601  0.00000  0.10799
      19     H     0.45542  0.45542  0.00000  0.08917
      20     H     0.44773  0.44773  0.00000  0.10455
      21     H     0.43592  0.43592  0.00000  0.12816
      22     H     0.44994  0.44994  0.00000  0.10012

   Total alpha = 32.00000, Total beta = 32.00000, Total charge = -0.00000

*** Psi4 exiting successfully. Buy a developer a beer!
