  ==> Input File <==

--------------------------------------------------------------------------
set {
	reference rhf
	basis 6-31G*
}

set_num_threads( 4 )
memory 2 gb

molecule MOL {
0 1

H	 -1.099663	 2.169466	 2.639289
O	 -0.819978	 2.715821	 1.918414
C	 -0.459388	 1.910613	 0.828183
C	 0.881752	 1.237348	 1.059971
H	 -1.214543	 1.158364	 0.617896
H	 -0.393032	 2.559947	 -0.033450
O	 1.171513	 0.459272	 -0.058250
H	 0.839619	 0.617690	 1.957874
H	 1.647207	 1.993953	 1.221865
C	 2.397842	 -0.198080	 -0.002151
H	 2.508049	 -0.905315	 -0.822092
H	 3.173794	 0.550865	 -0.078850
H	 2.517602	 -0.735921	 0.936026

	symmetry c1
}
set optking {
	frozen_dihedral = ("
		4 7 10 13
	")
}

ee = optimize('scf')
oeprop('DIPOLE', 'QUADRUPOLE', 'MULLIKEN_CHARGES')
f=open( 'psi4out.xyz', 'w' )
f.write( "13  " )
f.write( str(ee) + "\n" )
f.write( MOL.save_string_xyz() )
f.close()
--------------------------------------------------------------------------

    Molecular point group: c1
  Charge       = 0
  Multiplicity = 1
  Basis Set: 6-31G*
  Basis Set:
  @DF-RHF Final Energy:  -267.94929216845219
    Total Energy =                       -267.9492921684521889
    Molecular point group: c1
  Basis Set: 6-31G*
  Basis Set:
  Basis Set: 6-31G*
  Basis Set:
  @DF-RHF Final Energy:  -267.95011037397029
    Total Energy =                       -267.9501103739701762
  Basis Set: 6-31G*
  Basis Set:
  Basis Set: 6-31G*
  Basis Set:
  @DF-RHF Final Energy:  -267.95034312888180
    Total Energy =                       -267.9503431288816842
  Basis Set: 6-31G*
  Basis Set:
  Basis Set: 6-31G*
  Basis Set:
  @DF-RHF Final Energy:  -267.95034439690994
    Total Energy =                       -267.9503443969099408
  Basis Set: 6-31G*
  Basis Set:
  Charge       = 0
  Multiplicity = 1
  Basis Set: 6-31G*
  Basis Set:

    Orbital Energies (a.u.)
    -----------------------

    Doubly Occupied:

       1A    -20.562178     2A    -20.560184     3A    -11.270981
       4A    -11.270344     5A    -11.269001     6A     -1.388506
       7A     -1.365155     8A     -1.018538     9A     -0.913412
      10A     -0.842008    11A     -0.709365    12A     -0.674037
      13A     -0.660889    14A     -0.636684    15A     -0.596359
      16A     -0.568928    17A     -0.546042    18A     -0.489263
      19A     -0.482335    20A     -0.438484    21A     -0.421568

  @DF-RHF Final Energy:  -267.95034475809439

   => Energetics <=

    Nuclear Repulsion Energy =            190.2143040123113735
    One-Electron Energy =                -742.9607749059450725
    Two-Electron Energy =                 284.7961261355391116
    DFT Exchange-Correlation Energy =       0.0000000000000000
    Empirical Dispersion Energy =           0.0000000000000000
    PCM Polarization Energy =               0.0000000000000000
    EFP Energy =                            0.0000000000000000
    Total Energy =                       -267.9503447580946158
    Molecular point group: c1
  Basis Set: 6-31G*
  Basis Set:

  -Total Gradient:
     Atom            X                  Y                   Z
    ------   -----------------  -----------------  -----------------
       1       -0.000001907709     0.000003047671     0.000004221150
       2       -0.000006040418     0.000001805047     0.000009378993
       3        0.000001485725    -0.000002456085    -0.000000191672
       4       -0.000555894947    -0.001004762098     0.000551284735
       5       -0.000002859859     0.000001406133    -0.000003182367
       6        0.000004813526    -0.000005623713     0.000000022936
       7        0.000985667168     0.001800367141    -0.000598847651
       8       -0.000001304180    -0.000001885591    -0.000005099584
       9        0.000000595902    -0.000002291241    -0.000002570318
      10       -0.001067771254    -0.002105563328    -0.000616228696
      11       -0.000006046647     0.000002025201     0.000001724315
      12       -0.000004276775     0.000002500292     0.000000097222
      13        0.000653539467     0.001311430571     0.000659390938

  **** Optimization is complete! (in 5 steps) ****
    Final optimized geometry and variables:
    Molecular point group: c1

    Geometry (in Angstrom), charge = 0, multiplicity = 1:

    H           -1.736273424580     0.928649276039     1.860197099591
    O           -1.454990988944     1.477736015895     1.142028276070
    C           -1.085932610673     0.676587622571     0.051477385086
    C            0.257084235778     0.008416361141     0.287274497001
    H           -1.836531126166    -0.078890422966    -0.163297189448
    H           -1.019207266355     1.327849747537    -0.808628480235
    O            0.552174420948    -0.769987598603    -0.829725594053
    H            0.215214777686    -0.611856021099     1.184433114674
    H            1.018490279133     0.768708013363     0.451382975307
    C            1.782331717234    -1.421428004859    -0.773735158741
    H            1.821573381897    -2.123650629339    -1.594731479930
    H            2.605741785266    -0.716598319651    -0.871137641642
    H            1.906382875070    -1.958217968326     0.164582761004

  Mulliken Charges: (a.u.)
   Center  Symbol    Alpha    Beta     Spin     Total
       1     H     0.28126  0.28126  0.00000  0.43749
       2     O     4.37088  4.37088  0.00000 -0.74175
       3     C     3.00470  3.00470  0.00000 -0.00939
       4     C     2.99666  2.99666  0.00000  0.00667
       5     H     0.42226  0.42226  0.00000  0.15547
       6     H     0.40841  0.40841  0.00000  0.18318
       7     O     4.30787  4.30787  0.00000 -0.61573
       8     H     0.43719  0.43719  0.00000  0.12562
       9     H     0.42352  0.42352  0.00000  0.15296
      10     C     3.07958  3.07958  0.00000 -0.15915
      11     H     0.41099  0.41099  0.00000  0.17801
      12     H     0.42679  0.42679  0.00000  0.14642
      13     H     0.42990  0.42990  0.00000  0.14021

   Total alpha = 21.00000, Total beta = 21.00000, Total charge =  0.00000
