  ==> Input File <==

--------------------------------------------------------------------------
set {
	reference rhf
	basis 6-31G*
}

set_num_threads( 1 )
memory 2 gb

molecule MOL {
0 1

H	 -2.698709	 -0.000305	 0.034435
C	 -1.693833	 0.000034	 0.434417
O	 -0.828952	 -0.000968	 -0.659236
H	 -1.574200	 0.882896	 1.055746
H	 -1.574147	 -0.881698	 1.057355
C	 0.074329	 -1.072314	 -0.803474
C	 1.090324	 -1.138522	 0.335073
C	 -0.632257	 -2.407477	 -1.029384
H	 0.609717	 -0.822463	 -1.711750
H	 1.534638	 -0.162846	 0.499968
H	 1.883454	 -1.835956	 0.084542
H	 0.643439	 -1.473677	 1.265734
H	 -1.380700	 -2.309943	 -1.808344
H	 0.086249	 -3.159690	 -1.339850
H	 -1.118377	 -2.772516	 -0.130344

	symmetry c1
}
set optking {
	frozen_dihedral = ("
		9 6 3 2
	")
}

ee = energy('scf')
oeprop('DIPOLE', 'QUADRUPOLE', 'MULLIKEN_CHARGES')
f=open( 'psi4out.xyz', 'w' )
f.write( "15  " )
f.write( str(ee) + "\n" )
f.write( MOL.save_string_xyz() )
f.close()
--------------------------------------------------------------------------

    Molecular point group: c1

    Geometry (in Angstrom), charge = 0, multiplicity = 1:

       Center              X                  Y                   Z               Mass
    ------------   -----------------  -----------------  -----------------  -----------------
           H         -2.282728696197     0.918639469075     0.362558065359     1.007825032070
           C         -1.277852696197     0.918978469075     0.762540065359    12.000000000000
           O         -0.412971696197     0.917976469075    -0.331112934641    15.994914619560
           H         -1.158219696197     1.801840469075     1.383869065359     1.007825032070
           H         -1.158166696197     0.037246469075     1.385478065359     1.007825032070
           C          0.490309303803    -0.153369530925    -0.475350934641    12.000000000000
           C          1.506304303803    -0.219577530925     0.663196065359    12.000000000000
           C         -0.216276696197    -1.488532530925    -0.701260934641    12.000000000000
           H          1.025697303803     0.096481469075    -1.383626934641     1.007825032070
           H          1.950618303803     0.756098469075     0.828091065359     1.007825032070
           H          2.299434303803    -0.917011530925     0.412665065359     1.007825032070
           H          1.059419303803    -0.554732530925     1.593857065359     1.007825032070
           H         -0.964719696197    -1.390998530925    -1.480220934641     1.007825032070
           H          0.502229303803    -2.240745530925    -1.011726934641     1.007825032070
           H         -0.702396696197    -1.853571530925     0.197779065359     1.007825032070

  Charge       = 0
  Multiplicity = 1
  Basis Set: 6-31G*
  Basis Set:

    Orbital Energies (a.u.)
    -----------------------

    Doubly Occupied:

       1A    -20.545806     2A    -11.275111     3A    -11.260826
       4A    -11.210716     5A    -11.210655     6A     -1.369446
       7A     -1.050573     8A     -0.939616     9A     -0.931218
      10A     -0.781556    11A     -0.676774    12A     -0.639169
      13A     -0.631964    14A     -0.570753    15A     -0.562625
      16A     -0.552082    17A     -0.538609    18A     -0.500821
      19A     -0.497467    20A     -0.442641    21A     -0.402388

  @DF-RHF Final Energy:  -232.13456674317305

   => Energetics <=

    Nuclear Repulsion Energy =            198.8150233306984376
    One-Electron Energy =                -708.7174618089346723
    Two-Electron Energy =                 277.7678717350631814
    DFT Exchange-Correlation Energy =       0.0000000000000000
    Empirical Dispersion Energy =           0.0000000000000000
    PCM Polarization Energy =               0.0000000000000000
    EFP Energy =                            0.0000000000000000
    Total Energy =                       -232.1345667431730817

  Mulliken Charges: (a.u.)
   Center  Symbol    Alpha    Beta     Spin     Total
       1     H     0.42019  0.42019  0.00000  0.15962
       2     C     3.07869  3.07869  0.00000 -0.15738
       3     O     4.31443  4.31443  0.00000 -0.62886
       4     H     0.42087  0.42087  0.00000  0.15826
       5     H     0.43036  0.43036  0.00000  0.13927
       6     C     2.91072  2.91072  0.00000  0.17856
       7     C     3.25161  3.25161  0.00000 -0.50323
       8     C     3.25180  3.25180  0.00000 -0.50359
       9     H     0.41531  0.41531  0.00000  0.16939
      10     H     0.41128  0.41128  0.00000  0.17743
      11     H     0.41967  0.41967  0.00000  0.16066
      12     H     0.42213  0.42213  0.00000  0.15574
      13     H     0.41137  0.41137  0.00000  0.17727
      14     H     0.41956  0.41956  0.00000  0.16088
      15     H     0.42201  0.42201  0.00000  0.15598

   Total alpha = 21.00000, Total beta = 21.00000, Total charge = -0.00000
