  ==> Input File <==

--------------------------------------------------------------------------
set {
	reference rhf
	basis 6-31G*
}

set_num_threads( 1 )
memory 2 gb

molecule MOL {
0 1

H	 5.283091	 1.167605	 0.921202
C	 4.741649	 0.494557	 0.263655
C	 3.267180	 0.407065	 0.655395
H	 4.853474	 0.863125	 -0.751724
H	 5.222192	 -0.478556	 0.317781
C	 2.475090	 -0.540216	 -0.248523
H	 2.826465	 1.397918	 0.615631
H	 3.188886	 0.068794	 1.687448
C	 0.999077	 -0.662303	 0.130617
H	 2.548004	 -0.206706	 -1.277648
H	 2.922425	 -1.530646	 -0.204008
C	 0.169600	 0.576866	 -0.172154
H	 0.544203	 -1.482454	 -0.422748
H	 0.887760	 -0.919603	 1.181608
C	 -1.181045	 0.701995	 0.511084
O	 0.551730	 1.415305	 -0.932024
C	 -2.285934	 -0.139295	 -0.145128
H	 -1.449051	 1.751551	 0.493206
H	 -1.071135	 0.403303	 1.551943
C	 -3.651768	 0.085446	 0.506485
H	 -2.346596	 0.110469	 -1.202272
H	 -2.034737	 -1.195320	 -0.088721
C	 -4.759797	 -0.746382	 -0.137905
H	 -3.908762	 1.140117	 0.445781
H	 -3.588286	 -0.154158	 1.565709
H	 -4.868882	 -0.505166	 -1.191300
H	 -4.548009	 -1.809175	 -0.062213
H	 -5.715422	 -0.564821	 0.343442

	symmetry c1
}
set optking {
	frozen_dihedral = ("
		10 6 3 2,
		12 15 17 21
	")
}

ee = energy('scf')
oeprop('DIPOLE', 'QUADRUPOLE', 'MULLIKEN_CHARGES')
f=open( 'psi4out.xyz', 'w' )
f.write( "28  " )
f.write( str(ee) + "\n" )
f.write( MOL.save_string_xyz() )
f.close()
--------------------------------------------------------------------------

    Molecular point group: c1

    Geometry (in Angstrom), charge = 0, multiplicity = 1:

       Center              X                  Y                   Z               Mass
    ------------   -----------------  -----------------  -----------------  -----------------
           H          5.248973600536     1.007113754822     0.883150470848     1.007825032070
           C          4.707531600536     0.334065754822     0.225603470848    12.000000000000
           C          3.233062600536     0.246573754822     0.617343470848    12.000000000000
           H          4.819356600536     0.702633754822    -0.789775529152     1.007825032070
           H          5.188074600536    -0.639047245178     0.279729470848     1.007825032070
           C          2.440972600536    -0.700707245178    -0.286574529152    12.000000000000
           H          2.792347600536     1.237426754822     0.577579470848     1.007825032070
           H          3.154768600536    -0.091697245178     1.649396470848     1.007825032070
           C          0.964959600536    -0.822794245178     0.092565470848    12.000000000000
           H          2.513886600536    -0.367197245178    -1.315699529152     1.007825032070
           H          2.888307600536    -1.691137245178    -0.242059529152     1.007825032070
           C          0.135482600536     0.416374754822    -0.210205529152    12.000000000000
           H          0.510085600536    -1.642945245178    -0.460799529152     1.007825032070
           H          0.853642600536    -1.080094245178     1.143556470848     1.007825032070
           C         -1.215162399464     0.541503754822     0.473032470848    12.000000000000
           O          0.517612600536     1.254813754822    -0.970075529152    15.994914619560
           C         -2.320051399464    -0.299786245178    -0.183179529152    12.000000000000
           H         -1.483168399464     1.591059754822     0.455154470848     1.007825032070
           H         -1.105252399464     0.242811754822     1.513891470848     1.007825032070
           C         -3.685885399464    -0.075045245178     0.468433470848    12.000000000000
           H         -2.380713399464    -0.050022245178    -1.240323529152     1.007825032070
           H         -2.068854399464    -1.355811245178    -0.126772529152     1.007825032070
           C         -4.793914399464    -0.906873245178    -0.175956529152    12.000000000000
           H         -3.942879399464     0.979625754822     0.407729470848     1.007825032070
           H         -3.622403399464    -0.314649245178     1.527657470848     1.007825032070
           H         -4.902999399464    -0.665657245178    -1.229351529152     1.007825032070
           H         -4.582126399464    -1.969666245178    -0.100264529152     1.007825032070
           H         -5.749539399464    -0.725312245178     0.305390470848     1.007825032070

  Charge       = 0
  Multiplicity = 1
  Basis Set: 6-31G*
  Basis Set:

    Orbital Energies (a.u.)
    -----------------------

    Doubly Occupied:

       1A    -20.547880     2A    -11.322038     3A    -11.232219
       4A    -11.229799     5A    -11.228551     6A    -11.225629
       7A    -11.216400     8A    -11.215821     9A    -11.212292
      10A    -11.205695    11A     -1.393138    12A     -1.093899
      13A     -1.077609    14A     -1.022286    15A     -0.990938
      16A     -0.908286    17A     -0.871694    18A     -0.808996
      19A     -0.798653    20A     -0.723426    21A     -0.669505
      22A     -0.651516    23A     -0.626553    24A     -0.619957
      25A     -0.609297    26A     -0.588788    27A     -0.575390
      28A     -0.574335    29A     -0.542539    30A     -0.533243
      31A     -0.521131    32A     -0.504518    33A     -0.501643
      34A     -0.483911    35A     -0.477571    36A     -0.475459
      37A     -0.471475    38A     -0.464928    39A     -0.454801
      40A     -0.391979

  @DF-RHF Final Energy:  -426.16891946017392

   => Energetics <=

    Nuclear Repulsion Energy =            530.0451561803309914
    One-Electron Energy =               -1628.3005605872992874
    Two-Electron Energy =                 672.0864849467945987
    DFT Exchange-Correlation Energy =       0.0000000000000000
    Empirical Dispersion Energy =           0.0000000000000000
    PCM Polarization Energy =               0.0000000000000000
    EFP Energy =                            0.0000000000000000
    Total Energy =                       -426.1689194601738109

  Mulliken Charges: (a.u.)
   Center  Symbol    Alpha    Beta     Spin     Total
       1     H     0.41935  0.41935  0.00000  0.16131
       2     C     3.24011  3.24011  0.00000 -0.48022
       3     C     3.15633  3.15633  0.00000 -0.31266
       4     H     0.41831  0.41831  0.00000  0.16337
       5     H     0.42361  0.42361  0.00000  0.15277
       6     C     3.14928  3.14928  0.00000 -0.29856
       7     H     0.41050  0.41050  0.00000  0.17901
       8     H     0.42762  0.42762  0.00000  0.14475
       9     C     3.21112  3.21112  0.00000 -0.42224
      10     H     0.40660  0.40660  0.00000  0.18680
      11     H     0.42193  0.42193  0.00000  0.15614
      12     C     2.73560  2.73560  0.00000  0.52881
      13     H     0.40339  0.40339  0.00000  0.19322
      14     H     0.41297  0.41297  0.00000  0.17405
      15     C     3.19836  3.19836  0.00000 -0.39673
      16     O     4.26630  4.26630  0.00000 -0.53261
      17     C     3.16173  3.16173  0.00000 -0.32346
      18     H     0.40034  0.40034  0.00000  0.19932
      19     H     0.41608  0.41608  0.00000  0.16784
      20     C     3.15202  3.15202  0.00000 -0.30404
      21     H     0.41093  0.41093  0.00000  0.17814
      22     H     0.41952  0.41952  0.00000  0.16095
      23     C     3.24043  3.24043  0.00000 -0.48087
      24     H     0.41840  0.41840  0.00000  0.16319
      25     H     0.42168  0.42168  0.00000  0.15664
      26     H     0.41924  0.41924  0.00000  0.16151
      27     H     0.42121  0.42121  0.00000  0.15757
      28     H     0.41702  0.41702  0.00000  0.16597

   Total alpha = 40.00000, Total beta = 40.00000, Total charge = -0.00000
