  ==> Input File <==

--------------------------------------------------------------------------
set {
	reference rhf
	basis cc-pvtz
}

set_num_threads( 4 )
memory 2 gb

molecule MOL {
0 1

O	 -0.463232	 -0.178172	 2.182155
C	 -0.090743	 -0.636537	 1.155997
C	 1.114317	 -1.527418	 0.988600
O	 -0.695554	 -0.422406	 0.000602
C	 1.846463	 -1.805281	 2.291569
H	 1.765763	 -1.053054	 0.262965
H	 0.772501	 -2.445745	 0.524086
H	 2.199959	 -0.887956	 2.742981
H	 2.699309	 -2.447728	 2.109183
H	 1.197672	 -2.293308	 3.006499
C	 -1.852370	 0.402254	 0.000718
C	 -3.063338	 -0.501097	 -0.000437
H	 -1.831732	 1.039442	 -0.872158
H	 -1.832493	 1.038301	 0.874430
H	 -3.071944	 -1.133732	 -0.879113
H	 -3.966302	 0.097976	 -0.000483
H	 -3.072764	 -1.134834	 0.877435

	symmetry c1
}
set optking {
	frozen_dihedral = ("
		2 4 11 13
	")
}

ee = optimize('scf')
oeprop('DIPOLE', 'QUADRUPOLE', 'MULLIKEN_CHARGES')
f=open( 'psi4out.xyz', 'w' )
f.write( "17  " )
f.write( str(ee) + "\n" )
f.write( MOL.save_string_xyz() )
f.close()
--------------------------------------------------------------------------

    Molecular point group: c1
  Charge       = 0
  Multiplicity = 1
  Basis Set: CC-PVTZ
  Basis Set:
  @DF-RHF Final Energy:  -345.03799645612838
    Total Energy =                       -345.0379964561286670
    Molecular point group: c1
  Basis Set: CC-PVTZ
  Basis Set:
  Basis Set: CC-PVTZ
  Basis Set:
  @DF-RHF Final Energy:  -345.03882211354221
    Total Energy =                       -345.0388221135420963
  Basis Set: CC-PVTZ
  Basis Set:
  Basis Set: CC-PVTZ
  Basis Set:
  @DF-RHF Final Energy:  -345.03910132869407
    Total Energy =                       -345.0391013286940733
  Basis Set: CC-PVTZ
  Basis Set:
  Basis Set: CC-PVTZ
  Basis Set:
  @DF-RHF Final Energy:  -345.03918479926125
    Total Energy =                       -345.0391847992615908
  Basis Set: CC-PVTZ
  Basis Set:
  Basis Set: CC-PVTZ
  Basis Set:
  @DF-RHF Final Energy:  -345.03919862795578
    Total Energy =                       -345.0391986279555567
  Basis Set: CC-PVTZ
  Basis Set:
  Basis Set: CC-PVTZ
  Basis Set:
  @DF-RHF Final Energy:  -345.03919963350472
    Total Energy =                       -345.0391996335045519
  Basis Set: CC-PVTZ
  Basis Set:
  Charge       = 0
  Multiplicity = 1
  Basis Set: CC-PVTZ
  Basis Set:

    Orbital Energies (a.u.)
    -----------------------

    Doubly Occupied:

       1A    -20.592380     2A    -20.532606     3A    -11.364770
       4A    -11.281458     5A    -11.235522     6A    -11.218305
       7A    -11.213590     8A     -1.468569     9A     -1.365105
      10A     -1.069911    11A     -1.030006    12A     -0.915727
      13A     -0.852852    14A     -0.765171    15A     -0.704269
      16A     -0.683460    17A     -0.662466    18A     -0.623848
      19A     -0.606457    20A     -0.570182    21A     -0.551742
      22A     -0.533642    23A     -0.521422    24A     -0.515928
      25A     -0.497008    26A     -0.492745    27A     -0.451886
      28A     -0.439937

  @DF-RHF Final Energy:  -345.03919975365176

   => Energetics <=

    Nuclear Repulsion Energy =            317.5415947148387090
    One-Electron Energy =               -1099.6396662990032382
    Two-Electron Energy =                 437.0588718305127713
    DFT Exchange-Correlation Energy =       0.0000000000000000
    Empirical Dispersion Energy =           0.0000000000000000
    PCM Polarization Energy =               0.0000000000000000
    EFP Energy =                            0.0000000000000000
    Total Energy =                       -345.0391997536517010
    Molecular point group: c1
  Basis Set: CC-PVTZ
  Basis Set:

  -Total Gradient:
     Atom            X                  Y                   Z
    ------   -----------------  -----------------  -----------------
       1       -0.000014819012    -0.000001303352    -0.000004876843
       2        0.000668933700     0.000909873700    -0.000174189205
       3        0.000010759190     0.000010994088     0.000006055153
       4       -0.000829569152    -0.001151912443     0.000392174938
       5        0.000000418900    -0.000009705245    -0.000002313834
       6        0.000000734175    -0.000007162759    -0.000002008789
       7       -0.000000048134    -0.000004434678     0.000002996821
       8       -0.000000546393     0.000000228478    -0.000002518897
       9        0.000002041301     0.000000714938     0.000001185686
      10        0.000000193229     0.000001274245    -0.000000361629
      11       -0.000450362442    -0.000632810052    -0.000854521568
      12        0.000016962180    -0.000003713349    -0.000013288611
      13        0.000603489800     0.000885749350     0.000652603853
      14       -0.000000067103     0.000000631019    -0.000003128912
      15       -0.000010561267    -0.000006266456     0.000000088970
      16       -0.000000858945     0.000001606636    -0.000000165975
      17        0.000003299971     0.000006235876     0.000002268843

  **** Optimization is complete! (in 7 steps) ****
    Final optimized geometry and variables:
    Molecular point group: c1

    Geometry (in Angstrom), charge = 0, multiplicity = 1:

    O            0.014347630924     0.444543726978     1.263961066868
    C            0.386115341879     0.016647555324     0.224503920509
    C            1.611086743179    -0.841911409916     0.031560644016
    O           -0.228482099269     0.231495646441    -0.926681838862
    C            2.357494100365    -1.131571674106     1.323792829714
    H            2.246687621931    -0.336421683241    -0.687002957048
    H            1.287799847933    -1.757241350684    -0.451639155164
    H            2.691991944012    -0.216580909614     1.793966476243
    H            3.224197918700    -1.749204883837     1.121942258602
    H            1.725012036644    -1.651082845489     2.031131955098
    C           -1.390986286274     1.050738326554    -0.956447900100
    C           -2.645113557450     0.203603560978    -0.980080583520
    H           -1.299629330408     1.644440597778    -1.854384219400
    H           -1.384231078738     1.710009301291    -0.104084860408
    H           -2.636345533634    -0.474742352175    -1.824282845922
    H           -3.517735548372     0.841633773282    -1.062135098053
    H           -2.732750531752    -0.375573656399    -0.069556102233

  Mulliken Charges: (a.u.)
   Center  Symbol    Alpha    Beta     Spin     Total
       1     O     4.19898  4.19898  0.00000 -0.39797
       2     C     2.80126  2.80126  0.00000  0.39747
       3     C     3.09474  3.09474  0.00000 -0.18949
       4     O     4.15761  4.15761  0.00000 -0.31522
       5     C     3.14007  3.14007  0.00000 -0.28013
       6     H     0.44184  0.44184  0.00000  0.11632
       7     H     0.44188  0.44188  0.00000  0.11623
       8     H     0.44847  0.44847  0.00000  0.10306
       9     H     0.45060  0.45060  0.00000  0.09879
      10     H     0.44865  0.44865  0.00000  0.10271
      11     C     2.98878  2.98878  0.00000  0.02244
      12     C     3.14360  3.14360  0.00000 -0.28721
      13     H     0.44658  0.44658  0.00000  0.10685
      14     H     0.44624  0.44624  0.00000  0.10751
      15     H     0.45184  0.45184  0.00000  0.09632
      16     H     0.45202  0.45202  0.00000  0.09595
      17     H     0.44682  0.44682  0.00000  0.10636

   Total alpha = 28.00000, Total beta = 28.00000, Total charge = -0.00000
