  ==> Input File <==

--------------------------------------------------------------------------
set {
	reference rhf
	basis 6-31G*
}

set_num_threads( 1 )
memory 2 gb

molecule MOL {
0 1

O	 0.074228	 1.262779	 -0.000085
C	 0.028650	 0.075053	 -0.000277
C	 -1.233602	 -0.752807	 0.000328
O	 1.109162	 -0.694619	 -0.000298
C	 -2.501530	 0.091881	 0.000126
H	 -1.193807	 -1.406641	 -0.865785
H	 -1.193516	 -1.405779	 0.867015
H	 -2.545121	 0.729328	 -0.874513
H	 -3.377167	 -0.548497	 0.000561
H	 -2.544818	 0.730135	 0.874258
C	 2.103447	 -0.406407	 0.966097
H	 2.483934	 0.595942	 0.832161
H	 2.888444	 -1.128964	 0.806240
H	 1.702275	 -0.503762	 1.964623

	symmetry c1
}
set optking {
	frozen_dihedral = ("
		4 2 3 6
	")
}

ee = energy('scf')
oeprop('DIPOLE', 'QUADRUPOLE', 'MULLIKEN_CHARGES')
f=open( 'psi4out.xyz', 'w' )
f.write( "14  " )
f.write( str(ee) + "\n" )
f.write( MOL.save_string_xyz() )
f.close()
--------------------------------------------------------------------------

    Molecular point group: c1

    Geometry (in Angstrom), charge = 0, multiplicity = 1:

       Center              X                  Y                   Z               Mass
    ------------   -----------------  -----------------  -----------------  -----------------
           O          0.120990490034     1.328432147215    -0.172958455423    15.994914619560
           C          0.075412490034     0.140706147215    -0.173150455423    12.000000000000
           C         -1.186839509966    -0.687153852785    -0.172545455423    12.000000000000
           O          1.155924490034    -0.628965852785    -0.173171455423    15.994914619560
           C         -2.454767509966     0.157534147215    -0.172747455423    12.000000000000
           H         -1.147044509966    -1.340987852785    -1.038658455423     1.007825032070
           H         -1.146753509966    -1.340125852785     0.694141544577     1.007825032070
           H         -2.498358509966     0.794981147215    -1.047386455423     1.007825032070
           H         -3.330404509966    -0.482843852785    -0.172312455423     1.007825032070
           H         -2.498055509966     0.795788147215     0.701384544577     1.007825032070
           C          2.150209490034    -0.340753852785     0.793223544577    12.000000000000
           H          2.530696490034     0.661595147215     0.659287544577     1.007825032070
           H          2.935206490034    -1.063310852785     0.633366544577     1.007825032070
           H          1.749037490034    -0.438108852785     1.791749544577     1.007825032070

  Charge       = 0
  Multiplicity = 1
  Basis Set: 6-31G*
  Basis Set:

    Orbital Energies (a.u.)
    -----------------------

    Doubly Occupied:

       1A    -20.593943     2A    -20.551060     3A    -11.373752
       4A    -11.287901     5A    -11.239146     6A    -11.216569
       7A     -1.467054     8A     -1.365158     9A     -1.063144
      10A     -0.981237    11A     -0.883064    12A     -0.769226
      13A     -0.700172    14A     -0.680560    15A     -0.672415
      16A     -0.620218    17A     -0.610067    18A     -0.552788
      19A     -0.540299    20A     -0.522011    21A     -0.509585
      22A     -0.494563    23A     -0.455425    24A     -0.436727

  @DF-RHF Final Energy:  -305.86027838522830

   => Energetics <=

    Nuclear Repulsion Energy =            247.1124686863142870
    One-Electron Energy =                -906.7733747124487991
    Two-Electron Energy =                 353.8006276409059865
    DFT Exchange-Correlation Energy =       0.0000000000000000
    Empirical Dispersion Energy =           0.0000000000000000
    PCM Polarization Energy =               0.0000000000000000
    EFP Energy =                            0.0000000000000000
    Total Energy =                       -305.8602783852285256

  Mulliken Charges: (a.u.)
   Center  Symbol    Alpha    Beta     Spin     Total
       1     O     4.27236  4.27236  0.00000 -0.54471
       2     C     2.60989  2.60989  0.00000  0.78021
       3     C     3.20674  3.20674  0.00000 -0.41348
       4     O     4.30903  4.30903  0.00000 -0.61806
       5     C     3.23984  3.23984  0.00000 -0.47969
       6     H     0.39879  0.39879  0.00000  0.20242
       7     H     0.40435  0.40435  0.00000  0.19130
       8     H     0.40903  0.40903  0.00000  0.18195
       9     H     0.41823  0.41823  0.00000  0.16353
      10     H     0.41092  0.41092  0.00000  0.17815
      11     C     3.09495  3.09495  0.00000 -0.18991
      12     H     0.40239  0.40239  0.00000  0.19522
      13     H     0.40531  0.40531  0.00000  0.18937
      14     H     0.41816  0.41816  0.00000  0.16368

   Total alpha = 24.00000, Total beta = 24.00000, Total charge =  0.00000
