                              Psi4 1.0.54 Driver

  ==> Input File <==

--------------------------------------------------------------------------
set {
	reference rhf
	basis cc-pvtz
}

set_num_threads( 4 )
memory 2 gb

molecule MOL {
0 1

H	 -2.816458	 -0.841657	 -0.064679
N	 -1.878861	 -0.711874	 0.250184
C	 -1.341419	 0.551458	 -0.220231
H	 -1.333674	 -1.468530	 -0.105118
C	 0.082190	 0.731516	 0.254705
H	 -1.357065	 0.652078	 -1.304747
H	 -1.939897	 1.357530	 0.189797
O	 0.881195	 -0.248324	 -0.336237
H	 0.440901	 1.722476	 -0.020063
H	 0.119896	 0.643586	 1.338114
C	 0.508759	 -1.552680	 -0.037631
H	 1.193976	 -2.217989	 -0.542832
H	 0.559353	 -1.745768	 1.031879
H	 -0.501839	 -1.765714	 -0.378032

	symmetry c1
}
set optking {
	frozen_dihedral = ("
		11 8 5 3
	")
}

ee,wfn = optimize('scf', return_wfn=True)
oeprop( wfn, 'DIPOLE', 'QUADRUPOLE', 'MULLIKEN_CHARGES')
f=open( 'psi4out.xyz', 'w' )
f.write( "14  " )
f.write( str(ee) + "\n" )
f.write( MOL.save_string_xyz() )
f.close()
--------------------------------------------------------------------------

    Molecular point group: c1
  Charge       = 0
  Multiplicity = 1
  Basis Set: CC-PVTZ
  Basis Set:
  @DF-RHF Final Energy:  -248.14266818887953
    Total Energy =                       -248.1426681888793837
    Molecular point group: c1
  Basis Set: CC-PVTZ
  Basis Set:
  Basis Set: CC-PVTZ
  Basis Set:
  @DF-RHF Final Energy:  -248.20052664861623
    Total Energy =                       -248.2005266486162327
  Basis Set: CC-PVTZ
  Basis Set:
  Basis Set: CC-PVTZ
  Basis Set:
  @DF-RHF Final Energy:  -248.21100196552231
    Total Energy =                       -248.2110019655223141
  Basis Set: CC-PVTZ
  Basis Set:
  Basis Set: CC-PVTZ
  Basis Set:
  @DF-RHF Final Energy:  -248.21397015382411
    Total Energy =                       -248.2139701538241638
  Basis Set: CC-PVTZ
  Basis Set:
  @DF-RHF Final Energy:  -248.21643831573522
    Total Energy =                       -248.2164383157352177
  @DF-RHF Final Energy:  -248.21738043909909
    Total Energy =                       -248.2173804390988607
  @DF-RHF Final Energy:  -248.21768948498791
    Total Energy =                       -248.2176894849878863
  @DF-RHF Final Energy:  -248.21776586858016
    Total Energy =                       -248.2177658685800452
  Basis Set: CC-PVTZ
  Basis Set:
  @DF-RHF Final Energy:  -248.21778194623013
    Total Energy =                       -248.2177819462301613
  Basis Set: CC-PVTZ
  Basis Set:
  Basis Set: CC-PVTZ
  Basis Set:
  @DF-RHF Final Energy:  -248.21778635777565
    Total Energy =                       -248.2177863577757080
  Basis Set: CC-PVTZ
  Basis Set:
  Basis Set: CC-PVTZ
  Basis Set:
  @DF-RHF Final Energy:  -248.21778832705303
    Total Energy =                       -248.2177883270530856
  Basis Set: CC-PVTZ
  Basis Set:
  Charge       = 0
  Multiplicity = 1
  Basis Set: CC-PVTZ
  Basis Set:

    Orbital Energies (a.u.)
    -----------------------

    Doubly Occupied:

       1A    -20.545415     2A    -15.534017     3A    -11.262537
       4A    -11.262116     5A    -11.245253     6A     -1.377305
       7A     -1.182867     8A     -1.001827     9A     -0.916124
      10A     -0.811589    11A     -0.690406    12A     -0.672888
      13A     -0.642853    14A     -0.622075    15A     -0.600768
      16A     -0.548425    17A     -0.538493    18A     -0.509479
      19A     -0.461401    20A     -0.415335    21A     -0.389826

  @DF-RHF Final Energy:  -248.21778870378907

   => Energetics <=

    Nuclear Repulsion Energy =            196.7697835323840820
    One-Electron Energy =                -727.5131481530252131
    Two-Electron Energy =                 282.5255759168521763
    DFT Exchange-Correlation Energy =       0.0000000000000000
    Empirical Dispersion Energy =           0.0000000000000000
    PCM Polarization Energy =               0.0000000000000000
    EFP Energy =                            0.0000000000000000
    Total Energy =                       -248.2177887037889832
    Molecular point group: c1
  Basis Set: CC-PVTZ
  Basis Set:

  -Total Gradient:
     Atom            X                  Y                   Z
    ------   -----------------  -----------------  -----------------
       1       -0.000025159952     0.000003577765    -0.000006335288
       2        0.000032106286     0.000022492074     0.000004145931
       3       -0.000335910213    -0.001301991220     0.001412295965
       4       -0.000007388844    -0.000001717744    -0.000003398869
       5       -0.000091008358     0.001908110908    -0.002872990859
       6       -0.000009529532     0.000006899079    -0.000003480059
       7        0.000001047601     0.000004355773     0.000006248241
       8        0.001687168210    -0.000673021404     0.003198488355
       9        0.000002754210    -0.000010541285    -0.000010165080
      10        0.000003092231    -0.000000573325     0.000000079985
      11       -0.001273329665     0.000054541254    -0.001715040918
      12        0.000003240207    -0.000000411758    -0.000001077754
      13       -0.000001412243    -0.000004915604    -0.000003743954
      14        0.000014330065    -0.000006804511    -0.000005025697

  **** Optimization is complete! (in 12 steps) ****
    Final optimized geometry and variables:
    Molecular point group: c1

    Geometry (in Angstrom), charge = 0, multiplicity = 1:

    H           -2.747217735583     0.073184917126     0.511785813409
    N           -1.773711636934    -0.129756153797     0.587648353684
    C           -0.989126816281     0.841457716763    -0.162096124127
    H           -1.642641593165    -1.059197462813     0.254154049622
    C            0.485176055375     0.876657704909     0.227311659601
    H           -1.062981596479     0.721092148214    -1.242329960386
    H           -1.392546180275     1.819964852411     0.072267279474
    O            1.316092594772    -0.052341481069    -0.406161254264
    H            0.891136383416     1.841180890575    -0.046257904802
    H            0.558773854711     0.769800960352     1.307282482066
    C            1.028791345997    -1.400192701737    -0.232553745211
    H            1.891179194505    -1.960734473162    -0.564643048224
    H            0.836141547430    -1.641680766194     0.809614582742
    H            0.176195407198    -1.715487689262    -0.828324109914

  Mulliken Charges: (a.u.)
   Center  Symbol    Alpha    Beta     Spin     Total
       1     H     0.42748  0.42748  0.00000  0.14505
       2     N     3.69026  3.69026  0.00000 -0.38051
       3     C     3.04859  3.04859  0.00000 -0.09718
       4     H     0.42839  0.42839  0.00000  0.14322
       5     C     2.97777  2.97777  0.00000  0.04447
       6     H     0.45724  0.45724  0.00000  0.08552
       7     H     0.45271  0.45271  0.00000  0.09458
       8     O     4.17720  4.17720  0.00000 -0.35440
       9     H     0.45139  0.45139  0.00000  0.09721
      10     H     0.46602  0.46602  0.00000  0.06796
      11     C     3.03628  3.03628  0.00000 -0.07256
      12     H     0.44343  0.44343  0.00000  0.11314
      13     H     0.46621  0.46621  0.00000  0.06758
      14     H     0.47703  0.47703  0.00000  0.04594

   Total alpha = 21.00000, Total beta = 21.00000, Total charge =  0.00000

*** Psi4 exiting successfully. Buy a developer a beer!
