  ==> Input File <==

--------------------------------------------------------------------------
set {
	reference rhf
	basis cc-pvtz
}

set_num_threads( 4 )
memory 2 gb

molecule MOL {
0 1

H	 -0.194866	 3.051309	 -0.439669
C	 0.506401	 2.278114	 -0.097278
C	 0.062554	 0.862911	 -0.350953
O	 1.523496	 2.588488	 0.418805
C	 -1.339253	 0.577611	 0.196911
H	 0.798317	 0.190163	 0.070423
H	 0.059939	 0.724786	 -1.429836
C	 -1.813142	 -0.849710	 -0.061612
H	 -2.032833	 1.276441	 -0.256032
H	 -1.357249	 0.782269	 1.263793
H	 -1.839268	 -1.063526	 -1.124230
H	 -2.810118	 -1.001930	 0.334000
H	 -1.159274	 -1.579980	 0.402282

	symmetry c1
}
set optking {
	frozen_dihedral = ("
		6 3 5 9
	")
}

ee = optimize('scf')
oeprop('DIPOLE', 'QUADRUPOLE', 'MULLIKEN_CHARGES')
f=open( 'psi4out.xyz', 'w' )
f.write( "13  " )
f.write( str(ee) + "\n" )
f.write( MOL.save_string_xyz() )
f.close()
--------------------------------------------------------------------------

    Molecular point group: c1
  Charge       = 0
  Multiplicity = 1
  Basis Set: CC-PVTZ
  Basis Set:
  @DF-RHF Final Energy:  -231.07115219666389
    Total Energy =                       -231.0711521966640021
    Molecular point group: c1
  Basis Set: CC-PVTZ
  Basis Set:
  Basis Set: CC-PVTZ
  Basis Set:
  @DF-RHF Final Energy:  -231.07122382347168
    Total Energy =                       -231.0712238234715983
  Basis Set: CC-PVTZ
  Basis Set:
  Basis Set: CC-PVTZ
  Basis Set:
  @DF-RHF Final Energy:  -231.07096018811677
    Total Energy =                       -231.0709601881167430
  Basis Set: CC-PVTZ
  Basis Set:
  Basis Set: CC-PVTZ
  Basis Set:
  @DF-RHF Final Energy:  -231.07127448729284
    Total Energy =                       -231.0712744872928397
  Basis Set: CC-PVTZ
  Basis Set:
  Basis Set: CC-PVTZ
  Basis Set:
  @DF-RHF Final Energy:  -231.07127887063538
    Total Energy =                       -231.0712788706355241
  Basis Set: CC-PVTZ
  Basis Set:
  Basis Set: CC-PVTZ
  Basis Set:
  @DF-RHF Final Energy:  -231.07128125221092
    Total Energy =                       -231.0712812522108663
  Basis Set: CC-PVTZ
  Basis Set:
  Charge       = 0
  Multiplicity = 1
  Basis Set: CC-PVTZ
  Basis Set:

    Orbital Energies (a.u.)
    -----------------------

    Doubly Occupied:

       1A    -20.552563     2A    -11.321772     3A    -11.237510
       4A    -11.234710     5A    -11.222175     6A     -1.407302
       7A     -1.088603     8A     -0.977553     9A     -0.840372
      10A     -0.794825    11A     -0.680857    12A     -0.643554
      13A     -0.634864    14A     -0.589776    15A     -0.558044
      16A     -0.534687    17A     -0.516145    18A     -0.493012
      19A     -0.485811    20A     -0.413082

  @DF-RHF Final Energy:  -231.07128212822255

   => Energetics <=

    Nuclear Repulsion Energy =            170.8572385430566101
    One-Electron Energy =                -651.4026007788704646
    Two-Electron Energy =                 249.4740801075912486
    DFT Exchange-Correlation Energy =       0.0000000000000000
    Empirical Dispersion Energy =           0.0000000000000000
    PCM Polarization Energy =               0.0000000000000000
    EFP Energy =                            0.0000000000000000
    Total Energy =                       -231.0712821282226059
    Molecular point group: c1
  Basis Set: CC-PVTZ
  Basis Set:

  -Total Gradient:
     Atom            X                  Y                   Z
    ------   -----------------  -----------------  -----------------
       1        0.000009851799    -0.000001590583     0.000004066524
       2       -0.000029184656    -0.000011714123    -0.000030279570
       3        0.000063290246     0.000366438778     0.000354254262
       4        0.000039720922     0.000009751976     0.000014495010
       5        0.000077608458     0.000328811427     0.000373767416
       6       -0.000094169339    -0.000325262300    -0.000361632066
       7        0.000000903209     0.000009402780     0.000011814292
       8       -0.000014545813    -0.000066814376    -0.000013888017
       9       -0.000042893925    -0.000325317762    -0.000355897479
      10       -0.000009351764     0.000017087303     0.000002710689
      11        0.000001847637     0.000005950176     0.000004566409
      12        0.000002752442    -0.000005973147    -0.000006951369
      13       -0.000005829218    -0.000000770150     0.000002973896

  **** Optimization is complete! (in 7 steps) ****
    Final optimized geometry and variables:
    Molecular point group: c1

    Geometry (in Angstrom), charge = 0, multiplicity = 1:

    H            0.050510074239     1.966811694383    -0.520250335994
    C            0.721840298937     1.187981965092    -0.135061505734
    C            0.275211031946    -0.224314428727    -0.392280569538
    O            1.711299041134     1.490095027729     0.437100200680
    C           -1.123795662396    -0.496729109368     0.166548980121
    H            1.006550966609    -0.901034488925     0.029991369732
    H            0.265473768097    -0.371560737563    -1.470424316733
    C           -1.587158879170    -1.925326035532    -0.096414510193
    H           -1.831636051633     0.197578934319    -0.276472932955
    H           -1.126849693357    -0.305024136925     1.234851041266
    H           -1.623433568209    -2.134687221149    -1.160037731150
    H           -2.577642281482    -2.092671503166     0.309118100178
    H           -0.915378946133    -2.643530557107     0.360020054758

  Mulliken Charges: (a.u.)
   Center  Symbol    Alpha    Beta     Spin     Total
       1     H     0.46546  0.46546  0.00000  0.06907
       2     C     2.90788  2.90788  0.00000  0.18424
       3     C     3.07757  3.07757  0.00000 -0.15515
       4     O     4.16367  4.16367  0.00000 -0.32733
       5     C     3.09588  3.09588  0.00000 -0.19177
       6     H     0.44278  0.44278  0.00000  0.11444
       7     H     0.45080  0.45080  0.00000  0.09840
       8     C     3.14727  3.14727  0.00000 -0.29453
       9     H     0.45162  0.45162  0.00000  0.09677
      10     H     0.44612  0.44612  0.00000  0.10776
      11     H     0.45414  0.45414  0.00000  0.09172
      12     H     0.44567  0.44567  0.00000  0.10867
      13     H     0.45114  0.45114  0.00000  0.09771

   Total alpha = 20.00000, Total beta = 20.00000, Total charge =  0.00000
