  ==> Input File <==

--------------------------------------------------------------------------
set {
	reference rhf
	basis 6-31G*
}

set_num_threads( 4 )
memory 2 gb

molecule MOL {
0 1

H	 2.850817	 -0.405164	 -0.136094
O	 2.012586	 -0.856947	 -0.143039
C	 1.050492	 0.053836	 0.000068
C	 -0.318135	 -0.576402	 0.000164
O	 1.287977	 1.212413	 0.110950
C	 -1.454360	 0.441875	 -0.000474
H	 -0.374042	 -1.230163	 -0.866135
H	 -0.374274	 -1.229227	 0.867154
C	 -2.826123	 -0.230780	 0.000056
H	 -1.357605	 1.085198	 -0.868380
H	 -1.357504	 1.086451	 0.866496
H	 -2.959731	 -0.858053	 -0.876869
H	 -3.619374	 0.509403	 -0.000080
H	 -2.959371	 -0.857318	 0.877556

	symmetry c1
}
set optking {
	frozen_dihedral = ("
		2 3 4 7
	")
}

ee = optimize('scf')
oeprop('DIPOLE', 'QUADRUPOLE', 'MULLIKEN_CHARGES')
f=open( 'psi4out.xyz', 'w' )
f.write( "14  " )
f.write( str(ee) + "\n" )
f.write( MOL.save_string_xyz() )
f.close()
--------------------------------------------------------------------------

    Molecular point group: c1
  Charge       = 0
  Multiplicity = 1
  Basis Set: 6-31G*
  Basis Set:
  @DF-RHF Final Energy:  -305.88082387150303
    Total Energy =                       -305.8808238715032530
    Molecular point group: c1
  Basis Set: 6-31G*
  Basis Set:
  Basis Set: 6-31G*
  Basis Set:
  @DF-RHF Final Energy:  -305.88082422757549
    Total Energy =                       -305.8808242275754310
  Basis Set: 6-31G*
  Basis Set:
  Basis Set: 6-31G*
  Basis Set:
  @DF-RHF Final Energy:  -305.88080698901183
    Total Energy =                       -305.8808069890119441
  Basis Set: 6-31G*
  Basis Set:
  Basis Set: 6-31G*
  Basis Set:
  @DF-RHF Final Energy:  -305.88083808232216
    Total Energy =                       -305.8808380823223274
  Basis Set: 6-31G*
  Basis Set:
  Charge       = 0
  Multiplicity = 1
  Basis Set: 6-31G*
  Basis Set:

    Orbital Energies (a.u.)
    -----------------------

    Doubly Occupied:

       1A    -20.613213     2A    -20.552139     3A    -11.381788
       4A    -11.241348     5A    -11.225765     6A    -11.217176
       7A     -1.475235     8A     -1.366280     9A     -1.083223
      10A     -0.979751    11A     -0.857339    12A     -0.791426
      13A     -0.700129    14A     -0.688914    15A     -0.667146
      16A     -0.615646    17A     -0.594075    18A     -0.573019
      19A     -0.545400    20A     -0.505373    21A     -0.491720
      22A     -0.482451    23A     -0.479005    24A     -0.444680

  @DF-RHF Final Energy:  -305.88083821817401

   => Energetics <=

    Nuclear Repulsion Energy =            239.9604988033201494
    One-Electron Energy =                -892.5381908923931178
    Two-Electron Energy =                 346.6968538708988490
    DFT Exchange-Correlation Energy =       0.0000000000000000
    Empirical Dispersion Energy =           0.0000000000000000
    PCM Polarization Energy =               0.0000000000000000
    EFP Energy =                            0.0000000000000000
    Total Energy =                       -305.8808382181741763
    Molecular point group: c1
  Basis Set: 6-31G*
  Basis Set:

  -Total Gradient:
     Atom            X                  Y                   Z
    ------   -----------------  -----------------  -----------------
       1       -0.000000497099     0.000000405157     0.000002612661
       2       -0.000010941012     0.000024188258    -0.000290224916
       3        0.000039264428    -0.000084597742     0.000420924349
       4       -0.000148768754     0.000328059742    -0.000324523224
       5       -0.000002387350    -0.000006548343    -0.000002368363
       6        0.000001220949     0.000000405968     0.000000373918
       7        0.000120827254    -0.000258040785     0.000190333675
       8       -0.000000588271    -0.000002585680     0.000002918075
       9        0.000000611161    -0.000000724866    -0.000002526643
      10        0.000000394348     0.000000704194     0.000000649411
      11        0.000000299124    -0.000001580969     0.000000669926
      12        0.000000676894    -0.000000476112     0.000001384353
      13        0.000000407269     0.000000206431    -0.000001733124
      14       -0.000000518947     0.000000584748     0.000001509903

  **** Optimization is complete! (in 5 steps) ****
    Final optimized geometry and variables:
    Molecular point group: c1

    Geometry (in Angstrom), charge = 0, multiplicity = 1:

    H            2.852260065730    -0.406064583149    -0.109348121551
    O            2.013871772991    -0.857078134897    -0.131742389440
    C            1.050633319092     0.053416035451     0.004792832772
    C           -0.318045199823    -0.576664117569    -0.001918074148
    O            1.287290608930     1.211690361485     0.120840893817
    C           -1.454336979488     0.441527826778     0.004689965590
    H           -0.375249242387    -1.232715456548    -0.865507261055
    H           -0.372361875139    -1.228250847647     0.867021142317
    C           -2.826071863980    -0.231105300418     0.011899030593
    H           -1.363117939466     1.085401953207    -0.863878364312
    H           -1.351806963507     1.085333229526     0.871120815124
    H           -2.964011171489    -0.858981406989    -0.863887113264
    H           -3.619306097840     0.509089781478     0.015226177973
    H           -2.954955808015    -0.857005741288     0.890515777300

  Mulliken Charges: (a.u.)
   Center  Symbol    Alpha    Beta     Spin     Total
       1     H     0.26777  0.26777  0.00000  0.46447
       2     O     4.35110  4.35110  0.00000 -0.70220
       3     C     2.62321  2.62321  0.00000  0.75358
       4     C     3.20951  3.20951  0.00000 -0.41901
       5     O     4.27920  4.27920  0.00000 -0.55839
       6     C     3.15257  3.15257  0.00000 -0.30514
       7     H     0.39895  0.39895  0.00000  0.20210
       8     H     0.39863  0.39863  0.00000  0.20273
       9     C     3.24291  3.24291  0.00000 -0.48583
      10     H     0.41149  0.41149  0.00000  0.17702
      11     H     0.40861  0.40861  0.00000  0.18279
      12     H     0.42082  0.42082  0.00000  0.15836
      13     H     0.41445  0.41445  0.00000  0.17111
      14     H     0.42079  0.42079  0.00000  0.15842

   Total alpha = 24.00000, Total beta = 24.00000, Total charge =  0.00000
