  ==> Input File <==

--------------------------------------------------------------------------
set {
	reference rhf
	basis 6-31G*
}

set_num_threads( 4 )
memory 2 gb

molecule MOL {
0 1

H	 2.046442	 -5.052464	 -2.731247
C	 2.007917	 -4.133665	 -2.175014
C	 0.902380	 -3.831716	 -1.387081
C	 3.053749	 -3.235598	 -2.231269
H	 0.077795	 -4.520024	 -1.331216
C	 0.849430	 -2.654559	 -0.672451
H	 3.916952	 -3.452337	 -2.835413
C	 3.015855	 -2.043279	 -1.516150
H	 0.001752	 -2.408972	 -0.060109
C	 1.909254	 -1.752228	 -0.733971
H	 3.844749	 -1.365442	 -1.580497
O	 1.765256	 -0.628444	 0.000000
C	 2.778419	 0.335181	 0.000000
H	 2.731280	 0.961222	 -0.884976
H	 3.711703	 -0.207767	 0.000000
H	 2.731280	 0.961222	 0.884976

	symmetry c1
}
set optking {
	frozen_dihedral = ("
		10 12 13 14
	")
}

ee = optimize('scf')
oeprop('DIPOLE', 'QUADRUPOLE', 'MULLIKEN_CHARGES')
f=open( 'psi4out.xyz', 'w' )
f.write( "16  " )
f.write( str(ee) + "\n" )
f.write( MOL.save_string_xyz() )
f.close()
--------------------------------------------------------------------------

    Molecular point group: c1
  Charge       = 0
  Multiplicity = 1
  Basis Set: 6-31G*
  Basis Set:
  @DF-RHF Final Energy:  -344.57831553911137
    Total Energy =                       -344.5783155391117134
    Molecular point group: c1
  Basis Set: 6-31G*
  Basis Set:
  Basis Set: 6-31G*
  Basis Set:
  @DF-RHF Final Energy:  -344.58034318559970
    Total Energy =                       -344.5803431855997587
  Basis Set: 6-31G*
  Basis Set:
  Basis Set: 6-31G*
  Basis Set:
  @DF-RHF Final Energy:  -344.58192893757217
    Total Energy =                       -344.5819289375723429
  Basis Set: 6-31G*
  Basis Set:
  Basis Set: 6-31G*
  Basis Set:
  @DF-RHF Final Energy:  -344.58201049895791
    Total Energy =                       -344.5820104989576294
  Basis Set: 6-31G*
  Basis Set:
  Basis Set: 6-31G*
  Basis Set:
  @DF-RHF Final Energy:  -344.58201914103535
    Total Energy =                       -344.5820191410352891
  Basis Set: 6-31G*
  Basis Set:
  Charge       = 0
  Multiplicity = 1
  Basis Set: 6-31G*
  Basis Set:

    Orbital Energies (a.u.)
    -----------------------

    Doubly Occupied:

       1A    -20.583866     2A    -11.293564     3A    -11.279612
       4A    -11.232882     5A    -11.231357     6A    -11.223821
       7A    -11.219518     8A    -11.219276     9A     -1.412799
      10A     -1.145760    11A     -1.021347    12A     -1.012719
      13A     -0.941095    14A     -0.830591    15A     -0.804558
      16A     -0.720790    17A     -0.663754    18A     -0.661494
      19A     -0.655374    20A     -0.616180    21A     -0.586971
      22A     -0.576438    23A     -0.524897    24A     -0.518680
      25A     -0.508325    26A     -0.476890    27A     -0.459490
      28A     -0.334522    29A     -0.305429

  @DF-RHF Final Energy:  -344.58201955576806

   => Energetics <=

    Nuclear Repulsion Energy =            348.0351910722531557
    One-Electron Energy =               -1157.1104256410203561
    Two-Electron Energy =                 464.4932150129991442
    DFT Exchange-Correlation Energy =       0.0000000000000000
    Empirical Dispersion Energy =           0.0000000000000000
    PCM Polarization Energy =               0.0000000000000000
    EFP Energy =                            0.0000000000000000
    Total Energy =                       -344.5820195557680563
    Molecular point group: c1
  Basis Set: 6-31G*
  Basis Set:

  -Total Gradient:
     Atom            X                  Y                   Z
    ------   -----------------  -----------------  -----------------
       1       -0.000014312490    -0.000003772646     0.000003131548
       2        0.000123174909     0.000025630823    -0.000030526423
       3       -0.000076938411     0.000085218954     0.000074250197
       4       -0.000075212754    -0.000096758651    -0.000047989245
       5        0.000003807114    -0.000010147580    -0.000004359139
       6       -0.000075614778    -0.000117801984    -0.000085184496
       7        0.000002911613     0.000012037965     0.000006791562
       8       -0.000075965853     0.000087155159     0.000065695892
       9        0.000005722226     0.000004581743     0.000004417354
      10        0.000645981973    -0.000948775624     0.001814484971
      11        0.000005673358     0.000004958524    -0.000006809528
      12       -0.001104168620     0.001834455267    -0.002389675206
      13        0.002035081656    -0.002562540144    -0.000208065620
      14       -0.001407155677     0.001685958827     0.000813426360
      15       -0.000004652448    -0.000001713731    -0.000007999956
      16        0.000011668184     0.000001513096    -0.000001588271

  **** Optimization is complete! (in 6 steps) ****
    Final optimized geometry and variables:
    Molecular point group: c1

    Geometry (in Angstrom), charge = 0, multiplicity = 1:

    H            0.023126435846    -2.950431097930    -1.586762395069
    C           -0.028389616390    -2.008732194536    -1.071297226362
    C           -1.119644996604    -1.705652753209    -0.264482853977
    C            0.985411663897    -1.081527272970    -1.201846720726
    H           -1.919067433158    -2.416520671258    -0.152611118823
    C           -1.188300507194    -0.500241071159     0.400878483103
    H            1.834474905692    -1.296681341928    -1.826242223677
    C            0.928936328904     0.140078432998    -0.540137446209
    H           -2.023907061012    -0.254094390563     1.029355597972
    C           -0.159391877395     0.428917051138     0.267828760857
    H            1.724336401744     0.848579154963    -0.670561694927
    O           -0.319079594283     1.588381462638     0.941403415019
    C            0.773722307488     2.443809052609     1.124127613782
    H            0.963022997944     3.037370285822     0.235428066019
    H            1.668348876700     1.898484401053     1.400926220456
    H            0.503490834088     3.111969640196     1.929146303871

  Mulliken Charges: (a.u.)
   Center  Symbol    Alpha    Beta     Spin     Total
       1     H     0.40121  0.40121  0.00000  0.19759
       2     C     3.11186  3.11186  0.00000 -0.22372
       3     C     3.09207  3.09207  0.00000 -0.18414
       4     C     3.09121  3.09121  0.00000 -0.18241
       5     H     0.39878  0.39878  0.00000  0.20244
       6     C     3.12534  3.12534  0.00000 -0.25069
       7     H     0.39962  0.39962  0.00000  0.20077
       8     C     3.14324  3.14324  0.00000 -0.28648
       9     H     0.39301  0.39301  0.00000  0.21398
      10     C     2.78363  2.78363  0.00000  0.43275
      11     H     0.39732  0.39732  0.00000  0.20537
      12     O     4.32680  4.32680  0.00000 -0.65361
      13     C     3.09143  3.09143  0.00000 -0.18287
      14     H     0.41954  0.41954  0.00000  0.16093
      15     H     0.41912  0.41912  0.00000  0.16176
      16     H     0.40583  0.40583  0.00000  0.18834

   Total alpha = 29.00000, Total beta = 29.00000, Total charge =  0.00000
