  ==> Input File <==

--------------------------------------------------------------------------
set {
	reference rhf
	basis 6-31G*
}

set_num_threads( 4 )
memory 2 gb

molecule MOL {
0 1

H	 2.469094	 0.095677	 -1.787912
O	 1.621803	 0.468022	 -1.590062
C	 1.405354	 0.439968	 -0.201707
C	 0.031547	 1.023609	 0.088541
H	 2.161424	 1.029737	 0.313482
H	 1.477152	 -0.577827	 0.175174
C	 -1.134819	 0.293262	 -0.585751
H	 0.033261	 2.060739	 -0.234949
H	 -0.111584	 1.029848	 1.167750
C	 -1.917817	 -0.639439	 0.339494
H	 -0.758119	 -0.268455	 -1.433105
H	 -1.813832	 1.041889	 -0.986690
H	 -2.777680	 -1.057197	 -0.174994
H	 -1.310268	 -1.471279	 0.680599
H	 -2.283753	 -0.111424	 1.216626

	symmetry c1
}
set optking {
	frozen_dihedral = ("
		8 4 7 11
	")
}

ee = optimize('scf')
oeprop('DIPOLE', 'QUADRUPOLE', 'MULLIKEN_CHARGES')
f=open( 'psi4out.xyz', 'w' )
f.write( "15  " )
f.write( str(ee) + "\n" )
f.write( MOL.save_string_xyz() )
f.close()
--------------------------------------------------------------------------

    Molecular point group: c1
  Charge       = 0
  Multiplicity = 1
  Basis Set: 6-31G*
  Basis Set:
  @DF-RHF Final Energy:  -232.14033134305973
    Total Energy =                       -232.1403313430598701
    Molecular point group: c1
  Basis Set: 6-31G*
  Basis Set:
  Basis Set: 6-31G*
  Basis Set:
  @DF-RHF Final Energy:  -232.14106632881081
    Total Energy =                       -232.1410663288107799
  Basis Set: 6-31G*
  Basis Set:
  Basis Set: 6-31G*
  Basis Set:
  @DF-RHF Final Energy:  -232.14113276589603
    Total Energy =                       -232.1411327658961454
  Basis Set: 6-31G*
  Basis Set:
  Basis Set: 6-31G*
  Basis Set:
  @DF-RHF Final Energy:  -232.14113494322547
    Total Energy =                       -232.1411349432253246
  Basis Set: 6-31G*
  Basis Set:
  Charge       = 0
  Multiplicity = 1
  Basis Set: 6-31G*
  Basis Set:

    Orbital Energies (a.u.)
    -----------------------

    Doubly Occupied:

       1A    -20.553325     2A    -11.268641     3A    -11.211952
       4A    -11.208916     5A    -11.206176     6A     -1.360190
       7A     -1.063283     8A     -0.972138     9A     -0.861205
      10A     -0.782984    11A     -0.703213    12A     -0.649085
      13A     -0.602704    14A     -0.579622    15A     -0.559536
      16A     -0.534948    17A     -0.503007    18A     -0.474826
      19A     -0.468579    20A     -0.454094    21A     -0.429825

  @DF-RHF Final Energy:  -232.14113996304062

   => Energetics <=

    Nuclear Repulsion Energy =            189.6951696257593483
    One-Electron Energy =                -690.7761211945245350
    Two-Electron Energy =                 268.9398116057247421
    DFT Exchange-Correlation Energy =       0.0000000000000000
    Empirical Dispersion Energy =           0.0000000000000000
    PCM Polarization Energy =               0.0000000000000000
    EFP Energy =                            0.0000000000000000
    Total Energy =                       -232.1411399630404162
    Molecular point group: c1
  Basis Set: 6-31G*
  Basis Set:

  -Total Gradient:
     Atom            X                  Y                   Z
    ------   -----------------  -----------------  -----------------
       1        0.000002253752     0.000001903111     0.000013151341
       2        0.000012253049     0.000049869711     0.000082657346
       3       -0.000023478646    -0.000073480339    -0.000051971872
       4        0.002410857045    -0.001600315587    -0.002647034700
       5        0.000045953228    -0.000014726097    -0.000080660593
       6        0.000018751866     0.000014134183     0.000037587223
       7       -0.000949740632     0.003307410531    -0.001703641509
       8       -0.001895717144     0.000830197533     0.002436221306
       9       -0.000022018897     0.000006862295     0.000003878504
      10       -0.000056894239    -0.000033925114    -0.000011185240
      11        0.000464609928    -0.002481182519     0.001890675875
      12        0.000010086407     0.000007717149     0.000015130349
      13       -0.000014120765    -0.000030900164     0.000029732366
      14       -0.000005357202     0.000013818857    -0.000009189194
      15        0.000002562245     0.000002616451    -0.000005351201

  **** Optimization is complete! (in 5 steps) ****
    Final optimized geometry and variables:
    Molecular point group: c1

    Geometry (in Angstrom), charge = 0, multiplicity = 1:

    H            2.421745204234    -0.223223023721    -1.360059779911
    O            1.606884456458     0.214869796169    -1.160265021101
    C            1.324031634820     0.086101951666     0.210076230574
    C           -0.026803807120     0.722245695032     0.488075851804
    H            2.092014376998     0.578607041429     0.803567425469
    H            1.309240561208    -0.964055963240     0.499990015408
    C           -1.207626954266    -0.006074447083    -0.182272670420
    H            0.007306221037     1.761578127361     0.176939778437
    H           -0.172860129338     0.741507508577     1.566539740074
    C           -1.939383388660    -0.956831137520     0.768353000759
    H           -0.839202030585    -0.575965146773    -1.028380814114
    H           -1.914465468433     0.717629888350    -0.575175567645
    H           -2.737572527335    -1.486828873869     0.257364867843
    H           -1.263150540839    -1.701666635787     1.180283627607
    H           -2.380434567361    -0.417427626358     1.602043247023

  Mulliken Charges: (a.u.)
   Center  Symbol    Alpha    Beta     Spin     Total
       1     H     0.28074  0.28074  0.00000  0.43852
       2     O     4.36893  4.36893  0.00000 -0.73787
       3     C     2.99926  2.99926  0.00000  0.00148
       4     C     3.16139  3.16139  0.00000 -0.32279
       5     H     0.42915  0.42915  0.00000  0.14170
       6     H     0.43273  0.43273  0.00000  0.13454
       7     C     3.15742  3.15742  0.00000 -0.31483
       8     H     0.41198  0.41198  0.00000  0.17605
       9     H     0.42280  0.42280  0.00000  0.15439
      10     C     3.24093  3.24093  0.00000 -0.48186
      11     H     0.40810  0.40810  0.00000  0.18380
      12     H     0.41918  0.41918  0.00000  0.16165
      13     H     0.41987  0.41987  0.00000  0.16026
      14     H     0.42464  0.42464  0.00000  0.15072
      15     H     0.42288  0.42288  0.00000  0.15424

   Total alpha = 21.00000, Total beta = 21.00000, Total charge =  0.00000
