  ==> Input File <==

--------------------------------------------------------------------------
set {
	reference rhf
	basis 6-31G*
}

set_num_threads( 4 )
memory 2 gb

molecule MOL {
0 1

H	 -0.367348	 2.047014	 -0.308205
C	 0.352277	 1.337084	 0.083769
N	 -0.000016	 0.000074	 -0.335546
H	 1.328359	 1.600444	 -0.307950
H	 0.381933	 1.450534	 1.172486
C	 -1.197833	 -0.473239	 0.319800
C	 -0.092580	 -0.108225	 -1.773551
H	 -1.390405	 -1.501661	 0.035870
H	 -1.064939	 -0.443246	 1.395394
H	 -2.084545	 0.118985	 0.071013
H	 0.847024	 0.188026	 -2.226049
H	 -0.287691	 -1.137399	 -2.053143
H	 -0.885406	 0.515197	 -2.199812

	symmetry c1
}
set optking {
	frozen_dihedral = ("
		6 3 2 1
	")
}

ee = optimize('scf')
oeprop('DIPOLE', 'QUADRUPOLE', 'MULLIKEN_CHARGES')
f=open( 'psi4out.xyz', 'w' )
f.write( "13  " )
f.write( str(ee) + "\n" )
f.write( MOL.save_string_xyz() )
f.close()
--------------------------------------------------------------------------

    Molecular point group: c1
  Charge       = 0
  Multiplicity = 1
  Basis Set: 6-31G*
  Basis Set:
  @DF-RHF Final Energy:  -173.26817655653394
    Total Energy =                       -173.2681765565339731
    Molecular point group: c1
  Basis Set: 6-31G*
  Basis Set:
  Basis Set: 6-31G*
  Basis Set:
  @DF-RHF Final Energy:  -173.26891030609028
    Total Energy =                       -173.2689103060903619
  Basis Set: 6-31G*
  Basis Set:
  Basis Set: 6-31G*
  Basis Set:
  @DF-RHF Final Energy:  -173.26903068454385
    Total Energy =                       -173.2690306845437931
  Basis Set: 6-31G*
  Basis Set:
  Charge       = 0
  Multiplicity = 1
  Basis Set: 6-31G*
  Basis Set:

    Orbital Energies (a.u.)
    -----------------------

    Doubly Occupied:

       1A    -15.543243     2A    -11.235888     3A    -11.235852
       4A    -11.235782     5A     -1.225026     6A     -0.952062
       7A     -0.951581     8A     -0.806036     9A     -0.641260
      10A     -0.630914    11A     -0.630353    12A     -0.545142
      13A     -0.542895    14A     -0.517456    15A     -0.502124
      16A     -0.501343    17A     -0.345370

  @DF-RHF Final Energy:  -173.26903191357809

   => Energetics <=

    Nuclear Repulsion Energy =            139.2322285810827793
    One-Electron Energy =                -508.9178658943193341
    Two-Electron Energy =                 196.4166053996584651
    DFT Exchange-Correlation Energy =       0.0000000000000000
    Empirical Dispersion Energy =           0.0000000000000000
    PCM Polarization Energy =               0.0000000000000000
    EFP Energy =                            0.0000000000000000
    Total Energy =                       -173.2690319135780896
    Molecular point group: c1
  Basis Set: 6-31G*
  Basis Set:

  -Total Gradient:
     Atom            X                  Y                   Z
    ------   -----------------  -----------------  -----------------
       1        0.000898846579     0.000148866472    -0.001377575947
       2       -0.000940246803    -0.000357182330     0.002071124255
       3       -0.000658372956     0.000616069945    -0.001655044877
       4       -0.000004138359    -0.000047906973    -0.000019735792
       5       -0.000014712903    -0.000056600608    -0.000009074447
       6        0.000650175072    -0.000438337448     0.000979372111
       7        0.000022203322     0.000154410142    -0.000054492317
       8        0.000010613882     0.000005956334    -0.000009773591
       9       -0.000010617016    -0.000002679502     0.000008725058
      10        0.000025077176    -0.000008246129    -0.000004669249
      11        0.000021974839    -0.000001512368    -0.000018967166
      12        0.000003148102     0.000011397395     0.000084808065
      13       -0.000003950932    -0.000024234931     0.000005303897

  **** Optimization is complete! (in 4 steps) ****
    Final optimized geometry and variables:
    Molecular point group: c1

    Geometry (in Angstrom), charge = 0, multiplicity = 1:

    H           -0.099206933265     1.901850351897     0.142793693254
    C            0.599329910524     1.142314790584     0.508679965523
    N            0.244966427343    -0.196626824583     0.097358762133
    H            1.584403377148     1.392433208822     0.129340550268
    H            0.633593227890     1.200716019537     1.590123719580
    C           -0.946305776010    -0.677877776248     0.758268591535
    C            0.162891523608    -0.317041155371    -1.339306143036
    H           -1.131908832917    -1.707873759758     0.475030579173
    H           -0.808384475050    -0.647191711274     1.833037452176
    H           -1.839832646158    -0.094004601903     0.513832658009
    H            1.102820112218    -0.014922711295    -1.787732295855
    H           -0.020528514385    -1.350085235056    -1.612431260643
    H           -0.632743938873     0.296063170562    -1.775182458526

  Mulliken Charges: (a.u.)
   Center  Symbol    Alpha    Beta     Spin     Total
       1     H     0.43500  0.43500  0.00000  0.13001
       2     C     3.14247  3.14247  0.00000 -0.28494
       3     N     3.76662  3.76662  0.00000 -0.53324
       4     H     0.41656  0.41656  0.00000  0.16688
       5     H     0.41712  0.41712  0.00000  0.16575
       6     C     3.14217  3.14217  0.00000 -0.28434
       7     C     3.14246  3.14246  0.00000 -0.28492
       8     H     0.41699  0.41699  0.00000  0.16603
       9     H     0.41674  0.41674  0.00000  0.16651
      10     H     0.43528  0.43528  0.00000  0.12943
      11     H     0.41680  0.41680  0.00000  0.16641
      12     H     0.41673  0.41673  0.00000  0.16654
      13     H     0.43506  0.43506  0.00000  0.12987

   Total alpha = 17.00000, Total beta = 17.00000, Total charge =  0.00000
