                              Psi4 1.0.54 Driver

  ==> Input File <==

--------------------------------------------------------------------------
set {
	reference rhf
	basis cc-pvtz
}

set_num_threads( 4 )
memory 2 gb

molecule MOL {
0 1

H	 0.300555	 -3.283573	 -1.517521
O	 0.482707	 -2.581961	 -0.910646
C	 -0.532029	 -1.722971	 -0.943290
C	 -0.318151	 -0.570512	 0.000144
O	 -1.470490	 -1.883853	 -1.644272
C	 -1.454884	 0.441630	 -0.000560
H	 -0.165239	 -0.990579	 0.989109
H	 0.623919	 -0.105126	 -0.271552
C	 -2.822577	 -0.232186	 0.000063
H	 -1.359760	 1.084704	 -0.867077
H	 -1.359641	 1.085996	 0.864983
H	 -2.954352	 -0.858985	 -0.875745
H	 -3.615886	 0.505352	 0.000019
H	 -2.953878	 -0.858359	 0.876394

	symmetry c1
}
set optking {
	frozen_dihedral = ("
		7 4 6 10
	")
}

ee,wfn = optimize('scf', return_wfn=True)
oeprop( wfn, 'DIPOLE', 'QUADRUPOLE', 'MULLIKEN_CHARGES')
f=open( 'psi4out.xyz', 'w' )
f.write( "14  " )
f.write( str(ee) + "\n" )
f.write( MOL.save_string_xyz() )
f.close()
--------------------------------------------------------------------------

    Molecular point group: c1
  Charge       = 0
  Multiplicity = 1
  Basis Set: CC-PVTZ
  Basis Set:
  @DF-RHF Final Energy:  -305.98849228942328
    Total Energy =                       -305.9884922894236183
    Molecular point group: c1
  Basis Set: CC-PVTZ
  Basis Set:
  Basis Set: CC-PVTZ
  Basis Set:
  @DF-RHF Final Energy:  -305.99569677290128
    Total Energy =                       -305.9956967729011126
  Basis Set: CC-PVTZ
  Basis Set:
  Basis Set: CC-PVTZ
  Basis Set:
  @DF-RHF Final Energy:  -305.99696550283886
    Total Energy =                       -305.9969655028389752
  Basis Set: CC-PVTZ
  Basis Set:
  Basis Set: CC-PVTZ
  Basis Set:
  @DF-RHF Final Energy:  -305.99457715129677
    Total Energy =                       -305.9945771512967099
  Basis Set: CC-PVTZ
  Basis Set:
  @DF-RHF Final Energy:  -305.99763945703216
    Total Energy =                       -305.9976394570323919
  @DF-RHF Final Energy:  -305.99791856568095
    Total Energy =                       -305.9979185656807203
  Basis Set: CC-PVTZ
  Basis Set:
  @DF-RHF Final Energy:  -305.99805544729452
    Total Energy =                       -305.9980554472947460
  Basis Set: CC-PVTZ
  Basis Set:
  Basis Set: CC-PVTZ
  Basis Set:
  @DF-RHF Final Energy:  -305.99808178165563
    Total Energy =                       -305.9980817816555714
  Basis Set: CC-PVTZ
  Basis Set:
  Basis Set: CC-PVTZ
  Basis Set:
  @DF-RHF Final Energy:  -305.99808454594847
    Total Energy =                       -305.9980845459483589
  Basis Set: CC-PVTZ
  Basis Set:
  Charge       = 0
  Multiplicity = 1
  Basis Set: CC-PVTZ
  Basis Set:

    Orbital Energies (a.u.)
    -----------------------

    Doubly Occupied:

       1A    -20.605720     2A    -20.540034     3A    -11.374920
       4A    -11.240076     5A    -11.226882     6A    -11.208331
       7A     -1.478873     8A     -1.369661     9A     -1.081907
      10A     -0.977830    11A     -0.865164    12A     -0.789626
      13A     -0.706588    14A     -0.691734    15A     -0.661725
      16A     -0.617139    17A     -0.595434    18A     -0.569958
      19A     -0.556068    20A     -0.501928    21A     -0.490760
      22A     -0.484067    23A     -0.480779    24A     -0.443926

  @DF-RHF Final Energy:  -305.99808477725605

   => Energetics <=

    Nuclear Repulsion Energy =            245.3126818203666346
    One-Electron Energy =                -903.5032705295145661
    Two-Electron Energy =                 352.1925039318921336
    DFT Exchange-Correlation Energy =       0.0000000000000000
    Empirical Dispersion Energy =           0.0000000000000000
    PCM Polarization Energy =               0.0000000000000000
    EFP Energy =                            0.0000000000000000
    Total Energy =                       -305.9980847772558263
    Molecular point group: c1
  Basis Set: CC-PVTZ
  Basis Set:

  -Total Gradient:
     Atom            X                  Y                   Z
    ------   -----------------  -----------------  -----------------
       1       -0.000001251235     0.000018226895     0.000011166283
       2       -0.000033437899     0.000016400270    -0.000039934823
       3        0.000046356891    -0.000033921062     0.000023636420
       4       -0.003769918102    -0.003926518636    -0.000727886270
       5       -0.000000701608    -0.000023301287    -0.000004154367
       6       -0.002768275995    -0.002986085889    -0.003102232819
       7        0.003549709214     0.003728419702     0.001083960642
       8       -0.000005483565     0.000002341012     0.000001491288
       9       -0.000005613942    -0.000019737852    -0.000007297390
      10        0.003005203109     0.003208672502     0.002752610141
      11       -0.000017510517    -0.000001110146    -0.000002586490
      12        0.000001951549     0.000001118774     0.000004901561
      13        0.000001042207     0.000014071065     0.000004606620
      14       -0.000002070105     0.000001424647     0.000001719202

  **** Optimization is complete! (in 10 steps) ****
    Final optimized geometry and variables:
    Molecular point group: c1

    Geometry (in Angstrom), charge = 0, multiplicity = 1:

    H            1.093952751634    -2.345163405242    -0.691763824851
    O            1.164938029222    -1.703659532239    -0.000668667157
    C            0.518194377356    -0.606539877846    -0.379699062848
    C            0.644170094727     0.503319201757     0.627395087840
    O           -0.041960666269    -0.534554981237    -1.419230450352
    C           -0.454558724131     1.565430798657     0.585837513690
    H            0.766266863475     0.094278099316     1.621675615697
    H            1.599621000353     0.972156730738     0.402811402764
    C           -1.879664185266     1.030906494184     0.674061991122
    H           -0.323084956365     2.190439772596    -0.288879563358
    H           -0.275618568958     2.221842574630     1.432293109746
    H           -2.135599813225     0.435648806565    -0.190735815445
    H           -2.585566827011     1.850461219583     0.738225500804
    H           -2.009318469943     0.417312318811     1.560521267228

  Mulliken Charges: (a.u.)
   Center  Symbol    Alpha    Beta     Spin     Total
       1     H     0.38138  0.38138  0.00000  0.23723
       2     O     4.15938  4.15938  0.00000 -0.31875
       3     C     2.80188  2.80188  0.00000  0.39624
       4     C     3.11255  3.11255  0.00000 -0.22509
       5     O     4.19579  4.19579  0.00000 -0.39158
       6     C     3.08078  3.08078  0.00000 -0.16157
       7     H     0.43394  0.43394  0.00000  0.13213
       8     H     0.43700  0.43700  0.00000  0.12600
       9     C     3.15636  3.15636  0.00000 -0.31271
      10     H     0.44733  0.44733  0.00000  0.10535
      11     H     0.44947  0.44947  0.00000  0.10106
      12     H     0.43965  0.43965  0.00000  0.12070
      13     H     0.44806  0.44806  0.00000  0.10388
      14     H     0.45645  0.45645  0.00000  0.08711

   Total alpha = 24.00000, Total beta = 24.00000, Total charge = -0.00000

*** Psi4 exiting successfully. Buy a developer a beer!
