  ==> Input File <==

--------------------------------------------------------------------------
set {
	reference rhf
	basis 6-31G*
}

set_num_threads( 4 )
memory 2 gb

molecule MOL {
0 1

H	 2.595163	 -0.734052	 1.074103
N	 1.613951	 -0.539040	 1.097646
C	 0.852164	 -1.726639	 0.757058
C	 1.295104	 0.567574	 0.214213
H	 1.107779	 -2.519862	 1.451484
H	 1.063064	 -2.082572	 -0.254116
C	 -0.632800	 -1.413828	 0.864128
H	 1.871488	 1.435770	 0.515522
H	 1.532832	 0.350593	 -0.829840
C	 -0.190133	 0.878964	 0.321619
H	 -0.878644	 -1.203044	 1.909226
H	 -1.209463	 -2.280255	 0.557029
N	 -0.975995	 -0.298722	 0.000000
H	 -0.447118	 1.668313	 -0.377261
H	 -0.406320	 1.243356	 1.330371
C	 -2.393863	 -0.024976	 0.000000
H	 -2.854032	 -0.467193	 -0.876721
H	 -2.854032	 -0.467193	 0.876721
H	 -2.623281	 1.044943	 0.000000

	symmetry c1
}
set optking {
	frozen_dihedral = ("
		7 13 16 19
	")
}

ee = optimize('scf')
oeprop('DIPOLE', 'QUADRUPOLE', 'MULLIKEN_CHARGES')
f=open( 'psi4out.xyz', 'w' )
f.write( "19  " )
f.write( str(ee) + "\n" )
f.write( MOL.save_string_xyz() )
f.close()
--------------------------------------------------------------------------

    Molecular point group: c1
  Charge       = 0
  Multiplicity = 1
  Basis Set: 6-31G*
  Basis Set:
  @DF-RHF Final Energy:  -305.19357614579980
    Total Energy =                       -305.1935761457998524
    Molecular point group: c1
  Basis Set: 6-31G*
  Basis Set:
  Basis Set: 6-31G*
  Basis Set:
  @DF-RHF Final Energy:  -305.19426770394170
    Total Energy =                       -305.1942677039420460
  Basis Set: 6-31G*
  Basis Set:
  Basis Set: 6-31G*
  Basis Set:
  @DF-RHF Final Energy:  -305.19438775820925
    Total Energy =                       -305.1943877582093592
  Basis Set: 6-31G*
  Basis Set:
  Basis Set: 6-31G*
  Basis Set:
  @DF-RHF Final Energy:  -305.19438990077066
    Total Energy =                       -305.1943899007704317
  Basis Set: 6-31G*
  Basis Set:
  Charge       = 0
  Multiplicity = 1
  Basis Set: 6-31G*
  Basis Set:

    Orbital Energies (a.u.)
    -----------------------

    Doubly Occupied:

       1A    -15.538973     2A    -15.535967     3A    -11.237831
       4A    -11.237805     5A    -11.236972     6A    -11.236817
       7A    -11.234731     8A     -1.244743     9A     -1.183471
      10A     -1.022153    11A     -0.963772    12A     -0.859781
      13A     -0.857961    14A     -0.757195    15A     -0.690417
      16A     -0.630534    17A     -0.623511    18A     -0.606022
      19A     -0.603085    20A     -0.579517    21A     -0.543427
      22A     -0.534842    23A     -0.511345    24A     -0.488257
      25A     -0.464779    26A     -0.455879    27A     -0.362628
      28A     -0.342193

  @DF-RHF Final Energy:  -305.19439030240920

   => Energetics <=

    Nuclear Repulsion Energy =            339.4469165356139797
    One-Electron Energy =               -1086.1133988786082227
    Two-Electron Energy =                 441.4720920405848119
    DFT Exchange-Correlation Energy =       0.0000000000000000
    Empirical Dispersion Energy =           0.0000000000000000
    PCM Polarization Energy =               0.0000000000000000
    EFP Energy =                            0.0000000000000000
    Total Energy =                       -305.1943903024093743
    Molecular point group: c1
  Basis Set: 6-31G*
  Basis Set:

  -Total Gradient:
     Atom            X                  Y                   Z
    ------   -----------------  -----------------  -----------------
       1       -0.000002003179     0.000008362350    -0.000003023411
       2       -0.000008016230     0.000003732137     0.000000599273
       3        0.000004282603    -0.000008956076     0.000017290261
       4        0.000018485552     0.000007593837    -0.000011953004
       5        0.000008394932    -0.000002752445     0.000001195003
       6       -0.000006138392     0.000001511721     0.000003126340
       7        0.000292497052     0.001897561544     0.002266948718
       8        0.000007340491     0.000000529852     0.000000989491
       9        0.000000753881    -0.000000133176    -0.000000745123
      10       -0.000006951997    -0.000031847925    -0.000003593950
      11        0.000002328652    -0.000003165157     0.000002212711
      12       -0.000002986641     0.000003328430     0.000000582694
      13       -0.000453294178    -0.002593576385    -0.002102033832
      14        0.000004034270    -0.000005599191     0.000003148772
      15       -0.000005343098     0.000002330035     0.000002514386
      16        0.000221351847     0.000736795488    -0.004139959881
      17        0.000000045127     0.000001297086     0.000004848913
      18        0.000000474109    -0.000003730800    -0.000005635461
      19       -0.000075254801    -0.000013281324     0.003963488098

  **** Optimization is complete! (in 5 steps) ****
    Final optimized geometry and variables:
    Molecular point group: c1

    Geometry (in Angstrom), charge = 0, multiplicity = 1:

    H            2.672503306198    -0.373518916037     0.592396247797
    N            1.691791650446    -0.177469576622     0.625877052725
    C            0.925010832889    -1.362618108487     0.288657211503
    C            1.365905047907     0.932254488461    -0.250844908879
    H            1.181559487087    -2.156987180909     0.981656787739
    H            1.129363438655    -1.719026631860    -0.723652092901
    C           -0.557956186061    -1.044927093220     0.403426717229
    H            1.945578002423     1.799178856283     0.048348237597
    H            1.594205601505     0.718526932366    -1.297702085506
    C           -0.117984313001     1.245953675748    -0.132202159713
    H           -0.798448894990    -0.831314045590     1.448832338784
    H           -1.136951068311    -1.912211140173     0.102159451672
    N           -0.906857475841     0.069643025114    -0.459780808625
    H           -0.372127310104     2.039065595012    -0.826923395410
    H           -0.325071604166     1.607261394497     0.879434522824
    C           -2.338844826420     0.324584248014    -0.482929624253
    H           -2.800784227085    -0.117658640866    -1.359756948217
    H           -2.837153375779    -0.078814315840     0.398344789409
    H           -2.539834247755     1.389585749790    -0.480425895938

  Mulliken Charges: (a.u.)
   Center  Symbol    Alpha    Beta     Spin     Total
       1     H     0.32962  0.32962  0.00000  0.34075
       2     N     3.85431  3.85431  0.00000 -0.70862
       3     C     3.06300  3.06300  0.00000 -0.12601
       4     C     3.06329  3.06329  0.00000 -0.12657
       5     H     0.41791  0.41791  0.00000  0.16419
       6     H     0.42773  0.42773  0.00000  0.14453
       7     C     3.05663  3.05663  0.00000 -0.11326
       8     H     0.41795  0.41795  0.00000  0.16410
       9     H     0.42773  0.42773  0.00000  0.14454
      10     C     3.05622  3.05622  0.00000 -0.11245
      11     H     0.42772  0.42772  0.00000  0.14457
      12     H     0.41807  0.41807  0.00000  0.16387
      13     N     3.79018  3.79018  0.00000 -0.58036
      14     H     0.41816  0.41816  0.00000  0.16367
      15     H     0.42837  0.42837  0.00000  0.14326
      16     C     3.13987  3.13987  0.00000 -0.27975
      17     H     0.41573  0.41573  0.00000  0.16854
      18     H     0.42723  0.42723  0.00000  0.14554
      19     H     0.42027  0.42027  0.00000  0.15946

   Total alpha = 28.00000, Total beta = 28.00000, Total charge =  0.00000
