                              Psi4 1.0.54 Driver

  ==> Input File <==

--------------------------------------------------------------------------
set {
	reference rhf
	basis cc-pvtz
}

set_num_threads( 4 )
memory 2 gb

molecule MOL {
0 1

H	 -3.358050	 -0.825931	 -0.661225
O	 -3.515113	 -0.019339	 -0.206321
C	 -2.302264	 0.528872	 0.237390
C	 -1.175688	 -0.398187	 -0.171891
H	 -2.148018	 1.514076	 -0.197759
H	 -2.310727	 0.646384	 1.319032
C	 0.196029	 0.106276	 0.266738
H	 -1.201873	 -0.515469	 -1.250677
H	 -1.365975	 -1.378728	 0.252664
C	 1.330220	 -0.826136	 -0.155230
H	 0.359542	 1.097229	 -0.145561
H	 0.212134	 0.218135	 1.348778
C	 2.719700	 -0.407669	 0.328325
H	 1.339388	 -0.911200	 -1.239363
H	 1.119001	 -1.821953	 0.224128
C	 3.241564	 0.893452	 -0.276737
H	 3.418299	 -1.204729	 0.093035
H	 2.711776	 -0.323368	 1.411960
H	 3.254204	 0.841071	 -1.360784
H	 2.634460	 1.745075	 0.005842
H	 4.254264	 1.092401	 0.054971

	symmetry c1
}
set optking {
	frozen_dihedral = ("
		1 2 3 5
	")
}

ee,wfn = optimize('scf', return_wfn=True)
oeprop( wfn, 'DIPOLE', 'QUADRUPOLE', 'MULLIKEN_CHARGES')
f=open( 'psi4out.xyz', 'w' )
f.write( "21  " )
f.write( str(ee) + "\n" )
f.write( MOL.save_string_xyz() )
f.close()
--------------------------------------------------------------------------

    Molecular point group: c1
  Charge       = 0
  Multiplicity = 1
  Basis Set: CC-PVTZ
  Basis Set:
  @DF-RHF Final Energy:  -310.32924557787885
    Total Energy =                       -310.3292455778788508
    Molecular point group: c1
  Basis Set: CC-PVTZ
  Basis Set:
  Basis Set: CC-PVTZ
  Basis Set:
  @DF-RHF Final Energy:  -310.13433732823648
    Total Energy =                       -310.1343373282366542
  Basis Set: CC-PVTZ
  Basis Set:
  Basis Set: CC-PVTZ
  Basis Set:
  @DF-RHF Final Energy:  -310.25979685437363
    Total Energy =                       -310.2597968543734623
  Basis Set: CC-PVTZ
  Basis Set:
  Basis Set: CC-PVTZ
  Basis Set:
  @DF-RHF Final Energy:  -310.32531153226972
    Total Energy =                       -310.3253115322696090
  Basis Set: CC-PVTZ
  Basis Set:
  @DF-RHF Final Energy:  -310.32982383670532
    Total Energy =                       -310.3298238367053727
  Basis Set: CC-PVTZ
  Basis Set:
  @DF-RHF Final Energy:  -310.33067915698462
    Total Energy =                       -310.3306791569849565
  Basis Set: CC-PVTZ
  Basis Set:
  Basis Set: CC-PVTZ
  Basis Set:
  @DF-RHF Final Energy:  -310.33074302364827
    Total Energy =                       -310.3307430236480968
  Basis Set: CC-PVTZ
  Basis Set:
  Basis Set: CC-PVTZ
  Basis Set:
  @DF-RHF Final Energy:  -310.33074565281805
    Total Energy =                       -310.3307456528183934
  Basis Set: CC-PVTZ
  Basis Set:
  Charge       = 0
  Multiplicity = 1
  Basis Set: CC-PVTZ
  Basis Set:

    Orbital Energies (a.u.)
    -----------------------

    Doubly Occupied:

       1A    -20.542351     2A    -11.264043     3A    -11.221720
       4A    -11.219892     5A    -11.217525     6A    -11.216917
       7A    -11.209302     8A     -1.360827     9A     -1.093297
      10A     -1.038507    11A     -0.957736    12A     -0.882179
      13A     -0.826883    14A     -0.783978    15A     -0.669351
      16A     -0.663522    17A     -0.627023    18A     -0.621907
      19A     -0.593581    20A     -0.577516    21A     -0.548091
      22A     -0.531149    23A     -0.508801    24A     -0.498124
      25A     -0.487399    26A     -0.466823    27A     -0.461398
      28A     -0.442992    29A     -0.435026

  @DF-RHF Final Energy:  -310.33074538822228

   => Energetics <=

    Nuclear Repulsion Energy =            312.9402557676143601
    One-Electron Energy =               -1040.6062908908197642
    Two-Electron Energy =                 417.3352897349832915
    DFT Exchange-Correlation Energy =       0.0000000000000000
    Empirical Dispersion Energy =           0.0000000000000000
    PCM Polarization Energy =               0.0000000000000000
    EFP Energy =                            0.0000000000000000
    Total Energy =                       -310.3307453882220557
    Molecular point group: c1
  Basis Set: CC-PVTZ
  Basis Set:

  -Total Gradient:
     Atom            X                  Y                   Z
    ------   -----------------  -----------------  -----------------
       1        0.000014741748    -0.000144312711     0.000149673408
       2       -0.000042891961     0.000204802070    -0.000129417196
       3        0.000089884371    -0.000057764653    -0.000183130361
       4       -0.000015911469    -0.000000350036     0.000011633509
       5       -0.000081071157    -0.000031295794     0.000155811941
       6        0.000005397003     0.000013017839    -0.000007503737
       7       -0.000018590800    -0.000014968493    -0.000018273100
       8       -0.000011402859    -0.000005878711     0.000007892347
       9       -0.000002394245     0.000015906431    -0.000003839889
      10        0.000000875647     0.000034294213     0.000017195251
      11       -0.000020253717    -0.000057778147    -0.000017530699
      12        0.000019320276     0.000015775561     0.000002444178
      13       -0.000007618175     0.000021394331     0.000025572101
      14       -0.000012340900     0.000010697944     0.000008929829
      15       -0.000003177183     0.000018235796    -0.000016227176
      16        0.000019017741    -0.000020352788    -0.000005076279
      17        0.000030075355    -0.000011433919     0.000010905759
      18       -0.000002026980     0.000015048676     0.000003647716
      19       -0.000004101996     0.000003210670     0.000002121027
      20        0.000042676950    -0.000004889947    -0.000003261621
      21       -0.000000207642    -0.000003358330    -0.000011567009

  **** Optimization is complete! (in 9 steps) ****
    Final optimized geometry and variables:
    Molecular point group: c1

    Geometry (in Angstrom), charge = 0, multiplicity = 1:

    H           -3.377036264302    -1.019221709246    -0.839745282084
    O           -3.533792463707    -0.542661478451    -0.046663718799
    C           -2.324552446281    -0.070791102710     0.490488845158
    C           -1.107367746355    -0.495023292363    -0.313252799711
    H           -2.372767885798     1.012291030955     0.542743615014
    H           -2.240133331348    -0.439660726211     1.507514985174
    C            0.203869351563     0.015663950911     0.277426603210
    H           -1.213573138382    -0.128871870374    -1.332348720765
    H           -1.083737804317    -1.581076948472    -0.368653861876
    C            1.425652758220    -0.408325791428    -0.535644560372
    H            0.161062688129     1.097603779599     0.346737092431
    H            0.306474834382    -0.353733641532     1.294812710754
    C            2.770355259194     0.006631155078     0.063817648782
    H            1.343822237217    -0.005792498713    -1.542669261407
    H            1.414522866377    -1.489710478550    -0.640016060025
    C            3.018664526145     1.512724211033     0.093859006877
    H            3.561034766225    -0.464356564739    -0.511957051590
    H            2.851788042568    -0.392492047895     1.071377539264
    H            2.934579079215     1.941144593223    -0.899798888434
    H            2.315319692622     2.027991614682     0.736757234976
    H            4.014473388245     1.730025210662     0.462641851864

  Mulliken Charges: (a.u.)
   Center  Symbol    Alpha    Beta     Spin     Total
       1     H     0.39173  0.39173  0.00000  0.21653
       2     O     4.20633  4.20633  0.00000 -0.41266
       3     C     2.94672  2.94672  0.00000  0.10656
       4     C     3.10416  3.10416  0.00000 -0.20832
       5     H     0.47061  0.47061  0.00000  0.05878
       6     H     0.46989  0.46989  0.00000  0.06022
       7     C     3.10212  3.10212  0.00000 -0.20424
       8     H     0.45497  0.45497  0.00000  0.09006
       9     H     0.45376  0.45376  0.00000  0.09248
      10     C     3.09550  3.09550  0.00000 -0.19101
      11     H     0.45044  0.45044  0.00000  0.09912
      12     H     0.45222  0.45222  0.00000  0.09557
      13     C     3.09049  3.09049  0.00000 -0.18099
      14     H     0.45333  0.45333  0.00000  0.09333
      15     H     0.44903  0.44903  0.00000  0.10193
      16     C     3.15241  3.15241  0.00000 -0.30481
      17     H     0.44806  0.44806  0.00000  0.10388
      18     H     0.45414  0.45414  0.00000  0.09171
      19     H     0.45466  0.45466  0.00000  0.09068
      20     H     0.45359  0.45359  0.00000  0.09282
      21     H     0.44583  0.44583  0.00000  0.10834

   Total alpha = 29.00000, Total beta = 29.00000, Total charge = -0.00000

*** Psi4 exiting successfully. Buy a developer a beer!
