                              Psi4 1.0.54 Driver

  ==> Input File <==

--------------------------------------------------------------------------
set {
	reference rhf
	basis cc-pvtz
}

set_num_threads( 4 )
memory 2 gb

molecule MOL {
0 1

H	 3.259374	 0.209088	 -0.280463
N	 2.423874	 -0.335923	 -0.258271
C	 1.263552	 0.494993	 0.021953
H	 2.543981	 -1.030541	 0.449130
C	 -0.016533	 -0.325589	 -0.026925
H	 1.220406	 1.270235	 -0.735762
H	 1.327690	 1.002479	 0.985451
C	 -1.280353	 0.525521	 0.047747
H	 -0.016686	 -0.912532	 -0.939714
H	 -0.014099	 -1.037598	 0.796369
C	 -2.560681	 -0.301323	 -0.007747
H	 -1.279957	 1.241025	 -0.770189
H	 -1.270445	 1.110526	 0.963468
H	 -2.617064	 -0.872870	 -0.928010
H	 -3.439525	 0.331102	 0.043462
H	 -2.609427	 -1.002736	 0.818585

	symmetry c1
}
set optking {
	frozen_dihedral = ("
		6 3 5 9
	")
}

ee,wfn = optimize('scf', return_wfn=True)
oeprop( wfn, 'DIPOLE', 'QUADRUPOLE', 'MULLIKEN_CHARGES')
f=open( 'psi4out.xyz', 'w' )
f.write( "16  " )
f.write( str(ee) + "\n" )
f.write( MOL.save_string_xyz() )
f.close()
--------------------------------------------------------------------------

    Molecular point group: c1
  Charge       = 0
  Multiplicity = 1
  Basis Set: CC-PVTZ
  Basis Set:
  @DF-RHF Final Energy:  -212.40008534003528
    Total Energy =                       -212.4000853400351616
    Molecular point group: c1
  Basis Set: CC-PVTZ
  Basis Set:
  Basis Set: CC-PVTZ
  Basis Set:
  @DF-RHF Final Energy:  -212.40011442588741
    Total Energy =                       -212.4001144258872955
  Basis Set: CC-PVTZ
  Basis Set:
  Basis Set: CC-PVTZ
  Basis Set:
  @DF-RHF Final Energy:  -212.40012681386310
    Total Energy =                       -212.4001268138630394
  Basis Set: CC-PVTZ
  Basis Set:
  Charge       = 0
  Multiplicity = 1
  Basis Set: CC-PVTZ
  Basis Set:

    Orbital Energies (a.u.)
    -----------------------

    Doubly Occupied:

       1A    -15.526783     2A    -11.238018     3A    -11.213094
       4A    -11.207869     5A    -11.205895     6A     -1.178476
       7A     -1.060917     8A     -0.959836     9A     -0.844186
      10A     -0.792781    11A     -0.663390    12A     -0.641359
      13A     -0.604551    14A     -0.577036    15A     -0.567306
      16A     -0.524013    17A     -0.501026    18A     -0.470025
      19A     -0.465172    20A     -0.463177    21A     -0.384019

  @DF-RHF Final Energy:  -212.40012706582309

   => Energetics <=

    Nuclear Repulsion Energy =            186.5526067448794265
    One-Electron Energy =                -655.7276135820850413
    Two-Electron Energy =                 256.7748797713825297
    DFT Exchange-Correlation Energy =       0.0000000000000000
    Empirical Dispersion Energy =           0.0000000000000000
    PCM Polarization Energy =               0.0000000000000000
    EFP Energy =                            0.0000000000000000
    Total Energy =                       -212.4001270658230851
    Molecular point group: c1
  Basis Set: CC-PVTZ
  Basis Set:

  -Total Gradient:
     Atom            X                  Y                   Z
    ------   -----------------  -----------------  -----------------
       1       -0.000009204229     0.000002862620     0.000001461653
       2        0.000018309738    -0.000023120706    -0.000029481729
       3        0.000956764336    -0.001434020958    -0.001059057643
       4       -0.000000865588     0.000010722358     0.000008170548
       5       -0.001024869870     0.001651684738    -0.000651709259
       6       -0.000656463801     0.000940039146     0.001034101652
       7       -0.000000046621     0.000011326451    -0.000003289052
       8        0.000002121084     0.000013883332    -0.000054213344
       9        0.000689229010    -0.001151592879     0.000744549642
      10        0.000013796784    -0.000007134583    -0.000006002285
      11        0.000002590085    -0.000008842906     0.000022049371
      12       -0.000001194156     0.000000807358     0.000002176364
      13        0.000005383763    -0.000017606604    -0.000013622124
      14        0.000005619848     0.000013966647     0.000001765158
      15       -0.000003571251     0.000001980327     0.000009211640
      16        0.000002400869    -0.000004954343    -0.000006110591

  **** Optimization is complete! (in 4 steps) ****
    Final optimized geometry and variables:
    Molecular point group: c1

    Geometry (in Angstrom), charge = 0, multiplicity = 1:

    H            3.266756566998     0.202913683977    -0.197506539877
    N            2.429590678332    -0.340056457139    -0.206463592513
    C            1.265119278052     0.490212505303     0.055485463926
    H            2.529086635177    -1.044264428038     0.494827120947
    C           -0.016609870826    -0.327394070930    -0.010540170654
    H            1.230988349049     1.273036226635    -0.694945857388
    H            1.313576016523     0.995616222243     1.021366207812
    C           -1.280419397387     0.521409644775     0.077446941724
    H           -0.011114294690    -0.906034754257    -0.928602717861
    H           -0.015048884765    -1.052106937407     0.802084489791
    C           -2.559771044662    -0.308073380529     0.046534442452
    H           -1.293044249501     1.231496790887    -0.744802521571
    H           -1.257725033750     1.111886698350     0.989534440036
    H           -2.628185388222    -0.885881562338    -0.868994815409
    H           -3.438932761185     0.323219211252     0.106075487637
    H           -2.595238764642    -1.003827179832     0.878261169442

  Mulliken Charges: (a.u.)
   Center  Symbol    Alpha    Beta     Spin     Total
       1     H     0.43033  0.43033  0.00000  0.13933
       2     N     3.68845  3.68845  0.00000 -0.37689
       3     C     3.02555  3.02555  0.00000 -0.05109
       4     H     0.43101  0.43101  0.00000  0.13799
       5     C     3.08182  3.08182  0.00000 -0.16365
       6     H     0.45810  0.45810  0.00000  0.08380
       7     H     0.46873  0.46873  0.00000  0.06255
       8     C     3.08788  3.08788  0.00000 -0.17577
       9     H     0.44896  0.44896  0.00000  0.10207
      10     H     0.46077  0.46077  0.00000  0.07845
      11     C     3.14927  3.14927  0.00000 -0.29855
      12     H     0.45419  0.45419  0.00000  0.09163
      13     H     0.45652  0.45652  0.00000  0.08695
      14     H     0.45409  0.45409  0.00000  0.09183
      15     H     0.44880  0.44880  0.00000  0.10239
      16     H     0.45553  0.45553  0.00000  0.08895

   Total alpha = 21.00000, Total beta = 21.00000, Total charge = -0.00000

*** Psi4 exiting successfully. Buy a developer a beer!
