  ==> Input File <==

--------------------------------------------------------------------------
set {
	reference rhf
	basis 6-31G*
}

set_num_threads( 4 )
memory 2 gb

molecule MOL {
0 1

O	 -0.219478	 -0.216092	 -2.959252
C	 -0.863976	 0.225768	 -2.057134
C	 -0.889235	 -0.467034	 -0.705952
C	 -1.656994	 1.505620	 -2.200227
C	 0.379448	 -0.143569	 0.099626
H	 -0.941501	 -1.535431	 -0.885117
H	 -1.771128	 -0.174852	 -0.142994
C	 1.631333	 -0.777471	 -0.511575
H	 0.482768	 0.934507	 0.149241
H	 0.263088	 -0.495696	 1.123449
C	 2.915987	 -0.544314	 0.291766
H	 1.766672	 -0.399098	 -1.523130
H	 1.471257	 -1.849544	 -0.605828
C	 3.373361	 0.914346	 0.347591
H	 3.708709	 -1.142521	 -0.150311
H	 2.780642	 -0.921148	 1.303579
H	 3.506512	 1.320010	 -0.651625
H	 4.322697	 0.999599	 0.867103
H	 2.660624	 1.545032	 0.868198
H	 -2.719176	 1.287316	 -2.126905
H	 -1.450059	 1.964402	 -3.157035
H	 -1.416613	 2.198446	 -1.398969

	symmetry c1
}
set optking {
	frozen_dihedral = ("
		6 3 5 8
	")
}

ee = optimize('scf')
oeprop('DIPOLE', 'QUADRUPOLE', 'MULLIKEN_CHARGES')
f=open( 'psi4out.xyz', 'w' )
f.write( "22  " )
f.write( str(ee) + "\n" )
f.write( MOL.save_string_xyz() )
f.close()
--------------------------------------------------------------------------

    Molecular point group: c1
  Charge       = 0
  Multiplicity = 1
  Basis Set: 6-31G*
  Basis Set:
  @DF-RHF Final Energy:  -348.09618230574307
    Total Energy =                       -348.0961823057430138
    Molecular point group: c1
  Basis Set: 6-31G*
  Basis Set:
  Basis Set: 6-31G*
  Basis Set:
  @DF-RHF Final Energy:  -348.09684893059261
    Total Energy =                       -348.0968489305926141
  Basis Set: 6-31G*
  Basis Set:
  Basis Set: 6-31G*
  Basis Set:
  @DF-RHF Final Energy:  -348.09529045558054
    Total Energy =                       -348.0952904555807095
  Basis Set: 6-31G*
  Basis Set:
  Basis Set: 6-31G*
  Basis Set:
  @DF-RHF Final Energy:  -348.09712200456443
    Total Energy =                       -348.0971220045644259
  Basis Set: 6-31G*
  Basis Set:
  @DF-RHF Final Energy:  -348.09708784014589
    Total Energy =                       -348.0970878401460595
  Basis Set: 6-31G*
  Basis Set:
  @DF-RHF Final Energy:  -348.09728058543948
    Total Energy =                       -348.0972805854397620
  Basis Set: 6-31G*
  Basis Set:
  Basis Set: 6-31G*
  Basis Set:
  @DF-RHF Final Energy:  -348.09729442050610
    Total Energy =                       -348.0972944205058184
  Basis Set: 6-31G*
  Basis Set:
  Basis Set: 6-31G*
  Basis Set:
  @DF-RHF Final Energy:  -348.09729654296780
    Total Energy =                       -348.0972965429679107
  Basis Set: 6-31G*
  Basis Set:
  Charge       = 0
  Multiplicity = 1
  Basis Set: 6-31G*
  Basis Set:

    Orbital Energies (a.u.)
    -----------------------

    Doubly Occupied:

       1A    -20.548356     2A    -11.324589     3A    -11.231562
       4A    -11.229806     5A    -11.228064     6A    -11.218066
       7A    -11.215949     8A    -11.211112     9A     -1.393511
      10A     -1.094237    11A     -1.043246    12A     -0.997689
      13A     -0.936459    14A     -0.859059    15A     -0.786937
      16A     -0.731672    17A     -0.658193    18A     -0.644091
      19A     -0.626639    20A     -0.613078    21A     -0.599096
      22A     -0.580553    23A     -0.565566    24A     -0.544093
      25A     -0.533546    26A     -0.514742    27A     -0.508210
      28A     -0.486375    29A     -0.468630    30A     -0.460663
      31A     -0.453140    32A     -0.396971

  @DF-RHF Final Energy:  -348.09729747717171

   => Energetics <=

    Nuclear Repulsion Energy =            380.9459022627452782
    One-Electron Energy =               -1226.6786011997114656
    Two-Electron Energy =                 497.6354014597944229
    DFT Exchange-Correlation Energy =       0.0000000000000000
    Empirical Dispersion Energy =           0.0000000000000000
    PCM Polarization Energy =               0.0000000000000000
    EFP Energy =                            0.0000000000000000
    Total Energy =                       -348.0972974771718214
    Molecular point group: c1
  Basis Set: 6-31G*
  Basis Set:

  -Total Gradient:
     Atom            X                  Y                   Z
    ------   -----------------  -----------------  -----------------
       1        0.000030123463    -0.000005721818    -0.000012187286
       2       -0.000088967372    -0.000005559366    -0.000035788612
       3       -0.000407329757    -0.000262766623     0.000915833975
       4       -0.000038962060    -0.000000793106     0.000005081834
       5        0.000152619482     0.000561205069    -0.000585977050
       6        0.000365656929     0.000092410485    -0.000621430404
       7       -0.000026019553     0.000002893261    -0.000014735623
       8       -0.000015053114    -0.000375183249     0.000241019156
       9        0.000025776992    -0.000017661291    -0.000010240697
      10       -0.000010296326    -0.000001062245     0.000005685813
      11       -0.000000311000    -0.000003791179     0.000027919339
      12       -0.000016998341    -0.000012307861     0.000028208215
      13       -0.000041261210     0.000024664401     0.000016577453
      14        0.000015364364    -0.000013150323     0.000014938547
      15        0.000000803495    -0.000006889298    -0.000002926247
      16        0.000028133036     0.000009158245     0.000013781797
      17        0.000010670080     0.000003333491    -0.000009409153
      18       -0.000009185472     0.000009035836     0.000000543122
      19       -0.000011919282    -0.000004554098    -0.000000213208
      20       -0.000000327616     0.000018535183     0.000016227420
      21        0.000017186362    -0.000021749774     0.000001274546
      22        0.000020296904     0.000009954260     0.000005817066

  **** Optimization is complete! (in 9 steps) ****
    Final optimized geometry and variables:
    Molecular point group: c1

    Geometry (in Angstrom), charge = 0, multiplicity = 1:

    O           -1.114554008808    -0.455612460179    -2.088890134849
    C           -1.503694222662     0.092013170528    -1.102086288541
    C           -1.452407714516    -0.588075677503     0.254481881604
    C           -2.069492012775     1.495884069769    -1.152706644456
    C           -0.182306854469    -0.224648269493     1.048464369116
    H           -1.486163729983    -1.657757213978     0.083621736276
    H           -2.328236580030    -0.305520352421     0.832299797888
    C            1.099717804824    -0.820345059143     0.458707088527
    H           -0.099792761336     0.855783335176     1.127095304479
    H           -0.308202212742    -0.591531396005     2.063985324716
    C            2.357269121234    -0.547433970051     1.292052650571
    H            1.249602143323    -0.452534362073    -0.552345386158
    H            0.967556375352    -1.895813647325     0.369672104723
    C            2.782685198934     0.921479832052     1.340236304632
    H            3.174033611784    -1.132127417754     0.876894662556
    H            2.207173647913    -0.914259440844     2.305628929681
    H            2.930587183901     1.317280972924     0.339129538511
    H            3.717538965335     1.034077701366     1.880430184690
    H            2.045442656903     1.543872187724     1.837185873222
    H           -3.140920478522     1.458491850193    -0.973543393116
    H           -1.887837632878     1.929287914456    -2.126351479786
    H           -1.637124612099     2.125802719944    -0.381985863074

  Mulliken Charges: (a.u.)
   Center  Symbol    Alpha    Beta     Spin     Total
       1     O     4.26132  4.26132  0.00000 -0.52263
       2     C     2.73717  2.73717  0.00000  0.52566
       3     C     3.20211  3.20211  0.00000 -0.40422
       4     C     3.28936  3.28936  0.00000 -0.57872
       5     C     3.16601  3.16601  0.00000 -0.33203
       6     H     0.40042  0.40042  0.00000  0.19916
       7     H     0.41423  0.41423  0.00000  0.17154
       8     C     3.15443  3.15443  0.00000 -0.30887
       9     H     0.41843  0.41843  0.00000  0.16314
      10     H     0.41494  0.41494  0.00000  0.17012
      11     C     3.15413  3.15413  0.00000 -0.30825
      12     H     0.41121  0.41121  0.00000  0.17757
      13     H     0.41817  0.41817  0.00000  0.16366
      14     C     3.24191  3.24191  0.00000 -0.48383
      15     H     0.41823  0.41823  0.00000  0.16354
      16     H     0.42392  0.42392  0.00000  0.15216
      17     H     0.42040  0.42040  0.00000  0.15920
      18     H     0.41813  0.41813  0.00000  0.16375
      19     H     0.42242  0.42242  0.00000  0.15516
      20     H     0.40633  0.40633  0.00000  0.18734
      21     H     0.39694  0.39694  0.00000  0.20612
      22     H     0.40980  0.40980  0.00000  0.18041

   Total alpha = 32.00000, Total beta = 32.00000, Total charge = -0.00000
