  ==> Input File <==

--------------------------------------------------------------------------
set {
	reference rhf
	basis cc-pvtz
}

set_num_threads( 4 )
memory 2 gb

molecule MOL {
0 1

H	 0.967828	 -1.172743	 2.246265
O	 0.747632	 -0.844295	 1.394390
C	 0.387895	 0.510619	 1.476940
C	 0.027642	 1.012027	 0.090274
H	 1.216538	 1.099099	 1.862699
H	 -0.447406	 0.640242	 2.159531
C	 -1.138737	 0.285728	 -0.581921
H	 0.907997	 0.921539	 -0.537654
H	 -0.196341	 2.073258	 0.166663
C	 -1.933983	 -0.631436	 0.343653
H	 -0.763151	 -0.285569	 -1.422081
H	 -1.808359	 1.035291	 -0.992333
H	 -2.789188	 -1.049673	 -0.174718
H	 -1.335629	 -1.461368	 0.700418
H	 -2.305435	 -0.092167	 1.209725

	symmetry c1
}
set optking {
	frozen_dihedral = ("
		8 4 7 11
	")
}

ee = optimize('scf')
oeprop('DIPOLE', 'QUADRUPOLE', 'MULLIKEN_CHARGES')
f=open( 'psi4out.xyz', 'w' )
f.write( "15  " )
f.write( str(ee) + "\n" )
f.write( MOL.save_string_xyz() )
f.close()
--------------------------------------------------------------------------

    Molecular point group: c1
  Charge       = 0
  Multiplicity = 1
  Basis Set: CC-PVTZ
  Basis Set:
  @DF-RHF Final Energy:  -232.22709653119563
    Total Energy =                       -232.2270965311955138
    Molecular point group: c1
  Basis Set: CC-PVTZ
  Basis Set:
  Basis Set: CC-PVTZ
  Basis Set:
  @DF-RHF Final Energy:  -232.22951994096266
    Total Energy =                       -232.2295199409625184
  Basis Set: CC-PVTZ
  Basis Set:
  Basis Set: CC-PVTZ
  Basis Set:
  @DF-RHF Final Energy:  -232.23035429396020
    Total Energy =                       -232.2303542939600902
  Basis Set: CC-PVTZ
  Basis Set:
  Basis Set: CC-PVTZ
  Basis Set:
  @DF-RHF Final Energy:  -232.23044216840682
    Total Energy =                       -232.2304421684066256
  Basis Set: CC-PVTZ
  Basis Set:
  Basis Set: CC-PVTZ
  Basis Set:
  @DF-RHF Final Energy:  -232.23048613180541
    Total Energy =                       -232.2304861318054350
  Basis Set: CC-PVTZ
  Basis Set:
  Basis Set: CC-PVTZ
  Basis Set:
  @DF-RHF Final Energy:  -232.23049492136974
    Total Energy =                       -232.2304949213696545
  Basis Set: CC-PVTZ
  Basis Set:
  Charge       = 0
  Multiplicity = 1
  Basis Set: CC-PVTZ
  Basis Set:

    Orbital Energies (a.u.)
    -----------------------

    Doubly Occupied:

       1A    -20.546794     2A    -11.265364     3A    -11.211398
       4A    -11.209684     5A    -11.199731     6A     -1.364307
       7A     -1.061114     8A     -0.971646     9A     -0.871251
      10A     -0.771106    11A     -0.708698    12A     -0.650069
      13A     -0.609954    14A     -0.572030    15A     -0.560706
      16A     -0.531853    17A     -0.516978    18A     -0.476537
      19A     -0.458576    20A     -0.453246    21A     -0.431953

  @DF-RHF Final Energy:  -232.23049529031013

   => Energetics <=

    Nuclear Repulsion Energy =            193.0598875281042126
    One-Electron Energy =                -697.6947768425829963
    Two-Electron Energy =                 272.4043940241683686
    DFT Exchange-Correlation Energy =       0.0000000000000000
    Empirical Dispersion Energy =           0.0000000000000000
    PCM Polarization Energy =               0.0000000000000000
    EFP Energy =                            0.0000000000000000
    Total Energy =                       -232.2304952903103867
    Molecular point group: c1
  Basis Set: CC-PVTZ
  Basis Set:

  -Total Gradient:
     Atom            X                  Y                   Z
    ------   -----------------  -----------------  -----------------
       1        0.000005406547     0.000003478019     0.000002198639
       2       -0.000032942043    -0.000012243295    -0.000014477870
       3        0.000029610067     0.000024719594     0.000013492729
       4       -0.001602586387     0.006109060252    -0.003746799805
       5       -0.000012895552     0.000018444069    -0.000006135885
       6       -0.000003063887    -0.000019637622    -0.000004371415
       7        0.001051049878    -0.005845586367     0.004372614622
       8        0.001205688279    -0.004234505664     0.002477944493
       9        0.000004728676    -0.000010419478     0.000015820912
      10        0.000020379481     0.000018505945     0.000001615926
      11       -0.000657976874     0.003946363729    -0.003091920923
      12       -0.000010123721    -0.000002639891    -0.000009488519
      13        0.000004949622    -0.000000001941     0.000000779282
      14       -0.000010996234     0.000006495011    -0.000006455903
      15        0.000008772147    -0.000002032361    -0.000004816280

  **** Optimization is complete! (in 7 steps) ****
    Final optimized geometry and variables:
    Molecular point group: c1

    Geometry (in Angstrom), charge = 0, multiplicity = 1:

    H            1.547077561039    -1.156914728322     1.634186684210
    O            1.295910719052    -0.832363709553     0.789235131359
    C            0.759786125119     0.461384622526     0.907443278700
    C            0.353273788391     0.954405568149    -0.470725026502
    H            1.506980307458     1.139452578112     1.312209804585
    H           -0.084168731179     0.463095951180     1.590689979868
    C           -0.827456033944     0.222616840582    -1.155475900294
    H            1.239838973212     0.847252847944    -1.085058198756
    H            0.135156017470     2.013303647533    -0.386633385002
    C           -1.724000226855    -0.641306642496    -0.273363182544
    H           -0.448341953609    -0.364053912752    -1.983782076178
    H           -1.451702491473     0.977269289270    -1.625375080489
    H           -2.516987306448    -1.077342315027    -0.870255872772
    H           -1.172679401044    -1.446973108962     0.191200509762
    H           -2.195477619599    -0.057177656337     0.510096130246

  Mulliken Charges: (a.u.)
   Center  Symbol    Alpha    Beta     Spin     Total
       1     H     0.39426  0.39426  0.00000  0.21148
       2     O     4.20289  4.20289  0.00000 -0.40578
       3     C     2.98090  2.98090  0.00000  0.03820
       4     C     3.09805  3.09805  0.00000 -0.19611
       5     H     0.45806  0.45806  0.00000  0.08389
       6     H     0.46775  0.46775  0.00000  0.06450
       7     C     3.08083  3.08083  0.00000 -0.16166
       8     H     0.45045  0.45045  0.00000  0.09909
       9     H     0.45112  0.45112  0.00000  0.09776
      10     C     3.16009  3.16009  0.00000 -0.32019
      11     H     0.45102  0.45102  0.00000  0.09797
      12     H     0.45459  0.45459  0.00000  0.09083
      13     H     0.44653  0.44653  0.00000  0.10695
      14     H     0.44622  0.44622  0.00000  0.10756
      15     H     0.45723  0.45723  0.00000  0.08554

   Total alpha = 21.00000, Total beta = 21.00000, Total charge =  0.00000
