  ==> Input File <==

--------------------------------------------------------------------------
set {
	reference rhf
	basis 6-31G*
}

set_num_threads( 1 )
memory 2 gb

molecule MOL {
0 1

H	 -1.836216	 1.387520	 -0.000064
C	 -1.301823	 0.443321	 -0.000031
O	 -0.003969	 0.658512	 0.000451
O	 -1.829879	 -0.616434	 -0.000857
C	 0.435842	 2.016360	 0.001447
C	 1.949166	 2.003389	 0.002678
H	 0.037546	 2.511126	 0.876595
H	 0.038780	 2.512512	 -0.873465
H	 2.328954	 1.495608	 0.881856
H	 2.325908	 3.020885	 0.003900
H	 2.330357	 1.497024	 -0.876626

	symmetry c1
}
set optking {
	frozen_dihedral = ("
		7 5 3 2
	")
}

ee = energy('scf')
oeprop('DIPOLE', 'QUADRUPOLE', 'MULLIKEN_CHARGES')
f=open( 'psi4out.xyz', 'w' )
f.write( "11  " )
f.write( str(ee) + "\n" )
f.write( MOL.save_string_xyz() )
f.close()
--------------------------------------------------------------------------

    Molecular point group: c1

    Geometry (in Angstrom), charge = 0, multiplicity = 1:

       Center              X                  Y                   Z               Mass
    ------------   -----------------  -----------------  -----------------  -----------------
           H         -1.686725369759     0.485917134367    -0.000805867747     1.007825032070
           C         -1.152332369759    -0.458281865633    -0.000772867747    12.000000000000
           O          0.145521630241    -0.243090865633    -0.000290867747    15.994914619560
           O         -1.680388369759    -1.518036865633    -0.001598867747    15.994914619560
           C          0.585332630241     1.114757134367     0.000705132253    12.000000000000
           C          2.098656630241     1.101786134367     0.001936132253    12.000000000000
           H          0.187036630241     1.609523134367     0.875853132253     1.007825032070
           H          0.188270630241     1.610909134367    -0.874206867747     1.007825032070
           H          2.478444630241     0.594005134367     0.881114132253     1.007825032070
           H          2.475398630241     2.119282134367     0.003158132253     1.007825032070
           H          2.479847630241     0.595421134367    -0.877367867747     1.007825032070

  Charge       = 0
  Multiplicity = 1
  Basis Set: 6-31G*
  Basis Set:

    Orbital Energies (a.u.)
    -----------------------

    Doubly Occupied:

       1A    -20.613405     2A    -20.555485     3A    -11.379512
       4A    -11.309238     5A    -11.236198     6A     -1.473198
       7A     -1.378634     8A     -1.058292     9A     -0.890817
      10A     -0.851995    11A     -0.734935    12A     -0.698634
      13A     -0.667502    14A     -0.596761    15A     -0.578421
      16A     -0.565591    17A     -0.530211    18A     -0.528494
      19A     -0.456590    20A     -0.449074

  @DF-RHF Final Energy:  -266.81837018708336

   => Energetics <=

    Nuclear Repulsion Energy =            176.1229513165343974
    One-Electron Energy =                -712.7766774247978674
    Two-Electron Energy =                 269.8353559211807919
    DFT Exchange-Correlation Energy =       0.0000000000000000
    Empirical Dispersion Energy =           0.0000000000000000
    PCM Polarization Energy =               0.0000000000000000
    EFP Energy =                            0.0000000000000000
    Total Energy =                       -266.8183701870827349

  Mulliken Charges: (a.u.)
   Center  Symbol    Alpha    Beta     Spin     Total
       1     H     0.43710  0.43710  0.00000  0.12580
       2     C     2.71119  2.71119  0.00000  0.57761
       3     O     4.28430  4.28430  0.00000 -0.56859
       4     O     4.25539  4.25539  0.00000 -0.51079
       5     C     3.01282  3.01282  0.00000 -0.02564
       6     C     3.24739  3.24739  0.00000 -0.49477
       7     H     0.41331  0.41331  0.00000  0.17339
       8     H     0.41329  0.41329  0.00000  0.17342
       9     H     0.40506  0.40506  0.00000  0.18987
      10     H     0.41509  0.41509  0.00000  0.16982
      11     H     0.40506  0.40506  0.00000  0.18988

   Total alpha = 20.00000, Total beta = 20.00000, Total charge = -0.00000
