  ==> Input File <==

--------------------------------------------------------------------------
set {
	reference rhf
	basis 6-31G*
}

set_num_threads( 4 )
memory 2 gb

molecule MOL {
0 1

O	 1.028377	 1.602918	 0.466035
C	 0.570240	 0.998441	 1.381327
C	 -0.710939	 0.201118	 1.353956
O	 1.143093	 0.946617	 2.577207
C	 -1.412532	 0.227344	 -0.000452
H	 -0.467247	 -0.815180	 1.651456
H	 -1.353661	 0.592320	 2.137936
C	 -2.706999	 -0.587347	 -0.000541
H	 -0.737910	 -0.153477	 -0.760955
H	 -1.625174	 1.256154	 -0.274015
C	 -3.956778	 0.291888	 0.000910
H	 -2.726114	 -1.239230	 -0.871609
H	 -2.725217	 -1.240844	 0.869333
H	 -3.985213	 0.933254	 -0.875158
H	 -4.860123	 -0.309979	 0.000519
H	 -3.984618	 0.931166	 0.878514
C	 2.358053	 1.655715	 2.739057
H	 3.111009	 1.279060	 2.061800
H	 2.660365	 1.493582	 3.761930
H	 2.210123	 2.710088	 2.554879

	symmetry c1
}
set optking {
	frozen_dihedral = ("
		9 5 8 12
	")
}

ee = optimize('scf')
oeprop('DIPOLE', 'QUADRUPOLE', 'MULLIKEN_CHARGES')
f=open( 'psi4out.xyz', 'w' )
f.write( "20  " )
f.write( str(ee) + "\n" )
f.write( MOL.save_string_xyz() )
f.close()
--------------------------------------------------------------------------

    Molecular point group: c1
  Charge       = 0
  Multiplicity = 1
  Basis Set: 6-31G*
  Basis Set:
  @DF-RHF Final Energy:  -383.93618494348340
    Total Energy =                       -383.9361849434835676
    Molecular point group: c1
  Basis Set: 6-31G*
  Basis Set:
  Basis Set: 6-31G*
  Basis Set:
  @DF-RHF Final Energy:  -383.93648640002044
    Total Energy =                       -383.9364864000199304
  Basis Set: 6-31G*
  Basis Set:
  Basis Set: 6-31G*
  Basis Set:
  @DF-RHF Final Energy:  -383.93640917353696
    Total Energy =                       -383.9364091735368447
  Basis Set: 6-31G*
  Basis Set:
  Basis Set: 6-31G*
  Basis Set:
  @DF-RHF Final Energy:  -383.93657335268659
    Total Energy =                       -383.9365733526865370
  Basis Set: 6-31G*
  Basis Set:
  Charge       = 0
  Multiplicity = 1
  Basis Set: 6-31G*
  Basis Set:

    Orbital Energies (a.u.)
    -----------------------

    Doubly Occupied:

       1A    -20.603783     2A    -20.545702     3A    -11.372345
       4A    -11.280971     5A    -11.236254     6A    -11.219959
       7A    -11.218958     8A    -11.212114     9A     -1.469480
      10A     -1.362945    11A     -1.087085    12A     -1.023243
      13A     -0.968764    14A     -0.888385    15A     -0.803756
      16A     -0.767237    17A     -0.700392    18A     -0.682668
      19A     -0.672525    20A     -0.632610    21A     -0.607846
      22A     -0.595701    23A     -0.573852    24A     -0.544793
      25A     -0.526040    26A     -0.523286    27A     -0.514431
      28A     -0.474697    29A     -0.472727    30A     -0.465060
      31A     -0.455436    32A     -0.436672

  @DF-RHF Final Energy:  -383.93657389846067

   => Energetics <=

    Nuclear Repulsion Energy =            382.7614049247761159
    One-Electron Energy =               -1281.5165215282272584
    Two-Electron Energy =                 514.8185427049902501
    DFT Exchange-Correlation Energy =       0.0000000000000000
    Empirical Dispersion Energy =           0.0000000000000000
    PCM Polarization Energy =               0.0000000000000000
    EFP Energy =                            0.0000000000000000
    Total Energy =                       -383.9365738984608925
    Molecular point group: c1
  Basis Set: 6-31G*
  Basis Set:

  -Total Gradient:
     Atom            X                  Y                   Z
    ------   -----------------  -----------------  -----------------
       1        0.000026817390     0.000013928756     0.000045219853
       2        0.000006106375    -0.000064298340    -0.000028243951
       3       -0.000040197577     0.000014988205    -0.000038274669
       4        0.000031663495     0.000056753642    -0.000017114103
       5        0.001469133790    -0.002711640201     0.002761526821
       6       -0.000018026386    -0.000007602501    -0.000013234165
       7       -0.000005180983    -0.000009931028    -0.000034818816
       8       -0.001649300786     0.003025260520    -0.002296387295
       9       -0.001056798469     0.001771352925    -0.001882488302
      10       -0.000011546785    -0.000002869561     0.000044159596
      11        0.000017406546    -0.000007096462     0.000005546085
      12        0.001182150587    -0.002053676041     0.001416108717
      13       -0.000015125508     0.000037013492     0.000027881268
      14        0.000018318977    -0.000033841915    -0.000000200694
      15       -0.000015806586    -0.000009959900     0.000010230742
      16        0.000034455143    -0.000018287556    -0.000023830939
      17        0.000017065132    -0.000012897859     0.000020961773
      18        0.000000017664     0.000003051188     0.000001883556
      19        0.000011445488     0.000009316214     0.000002044592
      20       -0.000002597509     0.000000436421    -0.000000970071

  **** Optimization is complete! (in 5 steps) ****
    Final optimized geometry and variables:
    Molecular point group: c1

    Geometry (in Angstrom), charge = 0, multiplicity = 1:

    O            1.459071577616     0.922950526045    -0.612352285428
    C            1.004075331548     0.310347675430     0.299152648778
    C           -0.267017571821    -0.502857250941     0.263619881457
    O            1.572387071170     0.262087309281     1.497413531588
    C           -0.959845888255    -0.488599570014    -1.095641731656
    H           -0.013719766956    -1.515447265230     0.564760774661
    H           -0.921002346926    -0.118062610879     1.041741644182
    C           -2.288772578996    -1.273262167380    -1.098958635078
    H           -0.286365595185    -0.874508698748    -1.852475752141
    H           -1.142706635999     0.542049566220    -1.382285930992
    C           -3.525706848096    -0.376488893063    -1.060993829622
    H           -2.330775878697    -1.921354344736    -1.969221472643
    H           -2.317107306139    -1.946244242619    -0.244419931289
    H           -3.573149926787     0.259587791682    -1.939761295056
    H           -4.437686685404    -0.964424117316    -1.025785948837
    H           -3.515358193590     0.269789966346    -0.187347110836
    C            2.777971968296     0.985337934185     1.666640295395
    H            3.538396987254     0.619739708672     0.991661698429
    H            3.077781488535     0.823997055957     2.690379832680
    H            2.618119416109     2.038369963465     1.484755021785

  Mulliken Charges: (a.u.)
   Center  Symbol    Alpha    Beta     Spin     Total
       1     O     4.28581  4.28581  0.00000 -0.57162
       2     C     2.60599  2.60599  0.00000  0.78803
       3     C     3.20888  3.20888  0.00000 -0.41776
       4     O     4.30717  4.30717  0.00000 -0.61435
       5     C     3.15635  3.15635  0.00000 -0.31269
       6     H     0.40018  0.40018  0.00000  0.19965
       7     H     0.40061  0.40061  0.00000  0.19878
       8     C     3.15853  3.15853  0.00000 -0.31705
       9     H     0.40930  0.40930  0.00000  0.18140
      10     H     0.40919  0.40919  0.00000  0.18161
      11     C     3.23942  3.23942  0.00000 -0.47885
      12     H     0.41691  0.41691  0.00000  0.16618
      13     H     0.42203  0.42203  0.00000  0.15594
      14     H     0.41881  0.41881  0.00000  0.16239
      15     H     0.41920  0.41920  0.00000  0.16159
      16     H     0.42267  0.42267  0.00000  0.15467
      17     C     3.09245  3.09245  0.00000 -0.18489
      18     H     0.40904  0.40904  0.00000  0.18192
      19     H     0.40842  0.40842  0.00000  0.18315
      20     H     0.40905  0.40905  0.00000  0.18190

   Total alpha = 32.00000, Total beta = 32.00000, Total charge = -0.00000
