  ==> Input File <==

--------------------------------------------------------------------------
set {
	reference rhf
	basis cc-pvtz
}

set_num_threads( 4 )
memory 2 gb

molecule MOL {
0 1

O	 -1.510770	 1.240811	 -0.054933
C	 -1.081510	 0.147522	 0.122720
C	 0.327029	 -0.064006	 0.641890
C	 -1.903028	 -1.084121	 -0.174656
C	 1.349460	 -0.017068	 -0.500215
H	 0.399029	 -1.014606	 1.159950
H	 0.538021	 0.726928	 1.350471
C	 2.351579	 1.120106	 -0.337925
H	 1.882794	 -0.961796	 -0.553905
H	 0.816627	 0.092890	 -1.437406
H	 3.054309	 1.137627	 -1.162482
H	 2.919891	 1.015620	 0.580146
H	 1.849210	 2.080667	 -0.309325
H	 -1.341891	 -1.779207	 -0.789259
H	 -2.820449	 -0.808163	 -0.671328
H	 -2.133314	 -1.593056	 0.755831

	symmetry c1
}
set optking {
	frozen_dihedral = ("
		9 5 3 2
	")
}

ee = optimize('scf')
oeprop('DIPOLE', 'QUADRUPOLE', 'MULLIKEN_CHARGES')
f=open( 'psi4out.xyz', 'w' )
f.write( "16  " )
f.write( str(ee) + "\n" )
f.write( MOL.save_string_xyz() )
f.close()
--------------------------------------------------------------------------

    Molecular point group: c1
  Charge       = 0
  Multiplicity = 1
  Basis Set: CC-PVTZ
  Basis Set:
  @DF-RHF Final Energy:  -270.12360251984467
    Total Energy =                       -270.1236025198447805
    Molecular point group: c1
  Basis Set: CC-PVTZ
  Basis Set:
  Basis Set: CC-PVTZ
  Basis Set:
  @DF-RHF Final Energy:  -270.12373322097028
    Total Energy =                       -270.1237332209703936
  Basis Set: CC-PVTZ
  Basis Set:
  Basis Set: CC-PVTZ
  Basis Set:
  @DF-RHF Final Energy:  -270.12181952475112
    Total Energy =                       -270.1218195247512313
  Basis Set: CC-PVTZ
  Basis Set:
  Basis Set: CC-PVTZ
  Basis Set:
  @DF-RHF Final Energy:  -270.12417313000572
    Total Energy =                       -270.1241731300058859
  Basis Set: CC-PVTZ
  Basis Set:
  @DF-RHF Final Energy:  -270.12423796395069
    Total Energy =                       -270.1242379639508613
  Basis Set: CC-PVTZ
  Basis Set:
  @DF-RHF Final Energy:  -270.12425303691111
    Total Energy =                       -270.1242530369109431
  Basis Set: CC-PVTZ
  Basis Set:
  Basis Set: CC-PVTZ
  Basis Set:
  @DF-RHF Final Energy:  -270.12425901569259
    Total Energy =                       -270.1242590156928713
  Basis Set: CC-PVTZ
  Basis Set:
  Basis Set: CC-PVTZ
  Basis Set:
  @DF-RHF Final Energy:  -270.12426028794971
    Total Energy =                       -270.1242602879494257
  Basis Set: CC-PVTZ
  Basis Set:
  Charge       = 0
  Multiplicity = 1
  Basis Set: CC-PVTZ
  Basis Set:

    Orbital Energies (a.u.)
    -----------------------

    Doubly Occupied:

       1A    -20.537151     2A    -11.319659     3A    -11.233729
       4A    -11.228137     5A    -11.227002     6A    -11.215545
       7A     -1.397104     8A     -1.082002     9A     -1.013048
      10A     -0.949393    11A     -0.832248    12A     -0.736572
      13A     -0.660207    14A     -0.645309    15A     -0.621476
      16A     -0.599342    17A     -0.581946    18A     -0.558218
      19A     -0.544552    20A     -0.514614    21A     -0.498183
      22A     -0.485394    23A     -0.475461    24A     -0.399970

  @DF-RHF Final Energy:  -270.12426065530786

   => Energetics <=

    Nuclear Repulsion Energy =            238.7033733336825776
    One-Electron Energy =                -838.9427358681116402
    Two-Electron Energy =                 330.1151018791206297
    DFT Exchange-Correlation Energy =       0.0000000000000000
    Empirical Dispersion Energy =           0.0000000000000000
    PCM Polarization Energy =               0.0000000000000000
    EFP Energy =                            0.0000000000000000
    Total Energy =                       -270.1242606553084897
    Molecular point group: c1
  Basis Set: CC-PVTZ
  Basis Set:

  -Total Gradient:
     Atom            X                  Y                   Z
    ------   -----------------  -----------------  -----------------
       1        0.000014403196    -0.000025582508     0.000002092276
       2       -0.000044154487    -0.000181067436    -0.000001679184
       3        0.000015882941     0.000238014567    -0.000094128615
       4       -0.000022349767    -0.000001053549     0.000003825158
       5        0.000220572689     0.000043499558     0.000228303322
       6       -0.000004538117     0.000003065198     0.000009668043
       7       -0.000011064966     0.000005197049     0.000025132047
       8       -0.000001296292     0.000011655256    -0.000018860738
       9       -0.000196823696    -0.000094586713    -0.000152932633
      10        0.000009544904    -0.000000900299    -0.000002008834
      11        0.000004035169     0.000003005849    -0.000006121336
      12       -0.000000301891    -0.000009700293     0.000005048319
      13        0.000000815366    -0.000001147277     0.000003022937
      14        0.000016485698     0.000003263945    -0.000007346028
      15       -0.000005472501     0.000007497930    -0.000000993836
      16        0.000004261752    -0.000001161278     0.000006979104

  **** Optimization is complete! (in 9 steps) ****
    Final optimized geometry and variables:
    Molecular point group: c1

    Geometry (in Angstrom), charge = 0, multiplicity = 1:

    O           -1.528843084069     1.005987262538     0.225332412955
    C           -1.010654266756    -0.063069749063     0.230074484470
    C            0.409343556560    -0.252437760029     0.719887907705
    C           -1.734844640284    -1.293889037553    -0.264528214405
    C            1.417985192481    -0.289994372797    -0.457878670992
    H            0.470969137220    -1.170033863887     1.293559059016
    H            0.634696909250     0.571030502348     1.382488746654
    C            2.429792261443     0.849871815834    -0.404512979182
    H            1.940836221629    -1.238821803377    -0.460099476948
    H            0.887531924478    -0.238985174393    -1.402989825050
    H            3.113557327307     0.801193661351    -1.244050556602
    H            3.016536924949     0.807055175051     0.506565689045
    H            1.929539488945     1.810837349510    -0.433362681518
    H           -1.107301796590    -1.875026718435    -0.930107604370
    H           -2.647360763240    -1.011205865832    -0.766584283680
    H           -1.973781595887    -1.925346978872     0.585394328371

  Mulliken Charges: (a.u.)
   Center  Symbol    Alpha    Beta     Spin     Total
       1     O     4.17649  4.17649  0.00000 -0.35297
       2     C     2.85826  2.85826  0.00000  0.28349
       3     C     3.10474  3.10474  0.00000 -0.20947
       4     C     3.15555  3.15555  0.00000 -0.31110
       5     C     3.08965  3.08965  0.00000 -0.17930
       6     H     0.44410  0.44410  0.00000  0.11181
       7     H     0.44011  0.44011  0.00000  0.11978
       8     C     3.14596  3.14596  0.00000 -0.29193
       9     H     0.44818  0.44818  0.00000  0.10363
      10     H     0.45323  0.45323  0.00000  0.09354
      11     H     0.44900  0.44900  0.00000  0.10200
      12     H     0.45384  0.45384  0.00000  0.09232
      13     H     0.44700  0.44700  0.00000  0.10600
      14     H     0.45004  0.45004  0.00000  0.09993
      15     H     0.43595  0.43595  0.00000  0.12811
      16     H     0.44791  0.44791  0.00000  0.10417

   Total alpha = 24.00000, Total beta = 24.00000, Total charge = -0.00000
