                              Psi4 1.0.54 Driver

  ==> Input File <==

--------------------------------------------------------------------------
set {
	reference rhf
	basis cc-pvtz
}

set_num_threads( 4 )
memory 2 gb

molecule MOL {
0 1

H	 -1.088256	 -1.364742	 0.152233
O	 -1.432053	 -0.565244	 -0.200812
C	 -0.727158	 0.534527	 0.310686
C	 0.680222	 0.664433	 -0.252229
H	 -1.306802	 1.408001	 0.044211
H	 -0.690821	 0.490158	 1.397609
C	 1.659368	 1.364058	 0.685771
H	 1.049194	 -0.326757	 -0.494374
H	 0.617829	 1.216276	 -1.186159
H	 1.793799	 0.808697	 1.607522
H	 2.635519	 1.460711	 0.226053
H	 1.315330	 2.361838	 0.940780

	symmetry c1
}
set optking {
	frozen_dihedral = ("
		8 4 3 2
	")
}

ee,wfn = optimize('scf', return_wfn=True)
oeprop( wfn, 'DIPOLE', 'QUADRUPOLE', 'MULLIKEN_CHARGES')
f=open( 'psi4out.xyz', 'w' )
f.write( "12  " )
f.write( str(ee) + "\n" )
f.write( MOL.save_string_xyz() )
f.close()
--------------------------------------------------------------------------

    Molecular point group: c1
  Charge       = 0
  Multiplicity = 1
  Basis Set: CC-PVTZ
  Basis Set:
  @DF-RHF Final Energy:  -193.18758177137227
    Total Energy =                       -193.1875817713723222
    Molecular point group: c1
  Basis Set: CC-PVTZ
  Basis Set:
  Basis Set: CC-PVTZ
  Basis Set:
  @DF-RHF Final Energy:  -193.18800080314031
    Total Energy =                       -193.1880008031403975
  Basis Set: CC-PVTZ
  Basis Set:
  Basis Set: CC-PVTZ
  Basis Set:
  @DF-RHF Final Energy:  -193.18804984027955
    Total Energy =                       -193.1880498402796320
  Basis Set: CC-PVTZ
  Basis Set:
  Basis Set: CC-PVTZ
  Basis Set:
  @DF-RHF Final Energy:  -193.18805550937606
    Total Energy =                       -193.1880555093761416
  Basis Set: CC-PVTZ
  Basis Set:
  Charge       = 0
  Multiplicity = 1
  Basis Set: CC-PVTZ
  Basis Set:

    Orbital Energies (a.u.)
    -----------------------

    Doubly Occupied:

       1A    -20.545678     2A    -11.266053     3A    -11.218026
       4A    -11.214903     5A     -1.364208     6A     -1.053267
       7A     -0.920003     8A     -0.820394     9A     -0.694961
      10A     -0.637545    11A     -0.598986    12A     -0.580088
      13A     -0.558236    14A     -0.507659    15A     -0.493674
      16A     -0.466305    17A     -0.431823

  @DF-RHF Final Energy:  -193.18805589985311

   => Energetics <=

    Nuclear Repulsion Energy =            131.0777019849009548
    One-Electron Energy =                -521.7878995173639396
    Two-Electron Energy =                 197.5221416326099870
    DFT Exchange-Correlation Energy =       0.0000000000000000
    Empirical Dispersion Energy =           0.0000000000000000
    PCM Polarization Energy =               0.0000000000000000
    EFP Energy =                            0.0000000000000000
    Total Energy =                       -193.1880558998529978
    Molecular point group: c1
  Basis Set: CC-PVTZ
  Basis Set:

  -Total Gradient:
     Atom            X                  Y                   Z
    ------   -----------------  -----------------  -----------------
       1        0.000003907668    -0.000000020189     0.000005883064
       2        0.001391582040    -0.002264014915     0.002953044768
       3       -0.002312371773     0.003211953077    -0.005058141677
       4        0.002893662267    -0.001341210993     0.006757500674
       5       -0.000008844236    -0.000018914277    -0.000010807115
       6       -0.000018433559    -0.000011329856     0.000008484658
       7       -0.000006530546    -0.000036948414    -0.000033042054
       8       -0.001922307582     0.000424380928    -0.004611938309
       9       -0.000001176073     0.000010846618    -0.000019441736
      10       -0.000002158815     0.000006414249    -0.000009716605
      11       -0.000007951555    -0.000002178567     0.000021729336
      12       -0.000009377836     0.000021022339    -0.000003555006

  **** Optimization is complete! (in 5 steps) ****
    Final optimized geometry and variables:
    Molecular point group: c1

    Geometry (in Angstrom), charge = 0, multiplicity = 1:

    H           -1.013481889774    -1.828846487440    -0.088760350044
    O           -1.448549301584    -1.030971988550    -0.327457447339
    C           -0.738508596424     0.065151504250     0.181233272615
    C            0.671917926955     0.191021689015    -0.395201150156
    H           -1.325643241633     0.942825023695    -0.051839914535
    H           -0.684479553580    -0.003589947287     1.266250965161
    C            1.637389327753     0.920635910977     0.529658215444
    H            1.038306761774    -0.801226278532    -0.642760284004
    H            0.617892109698     0.710027669147    -1.347377856369
    H            1.770419372354     0.384160418129     1.463016292381
    H            2.611197015701     1.033151517748     0.068760127021
    H            1.272087507166     1.913707303143     0.770827569163

  Mulliken Charges: (a.u.)
   Center  Symbol    Alpha    Beta     Spin     Total
       1     H     0.39448  0.39448  0.00000  0.21103
       2     O     4.20283  4.20283  0.00000 -0.40566
       3     C     2.96679  2.96679  0.00000  0.06642
       4     C     3.08753  3.08753  0.00000 -0.17506
       5     H     0.45325  0.45325  0.00000  0.09349
       6     H     0.47465  0.47465  0.00000  0.05070
       7     C     3.15212  3.15212  0.00000 -0.30424
       8     H     0.45870  0.45870  0.00000  0.08260
       9     H     0.45276  0.45276  0.00000  0.09448
      10     H     0.45594  0.45594  0.00000  0.08812
      11     H     0.44733  0.44733  0.00000  0.10535
      12     H     0.45361  0.45361  0.00000  0.09277

   Total alpha = 17.00000, Total beta = 17.00000, Total charge = -0.00000

*** Psi4 exiting successfully. Buy a developer a beer!
