  ==> Input File <==

--------------------------------------------------------------------------
set {
	reference rhf
	basis cc-pvtz
}

set_num_threads( 4 )
memory 2 gb

molecule MOL {
0 1

H	 -2.907052	 0.099472	 2.052054
O	 -2.065298	 0.381418	 1.745470
C	 -2.021813	 0.336996	 0.342658
C	 -0.669613	 0.837286	 -0.127252
H	 -2.174088	 -0.681058	 -0.006772
H	 -2.812582	 0.952713	 -0.081560
C	 0.490865	 -0.082543	 0.241244
H	 -0.708709	 0.967192	 -1.204587
H	 -0.507562	 1.822272	 0.303070
C	 1.839800	 0.429565	 -0.255472
H	 0.305636	 -1.070211	 -0.165276
H	 0.527397	 -0.195943	 1.322876
C	 3.001144	 -0.485193	 0.119072
H	 1.804373	 0.541073	 -1.335756
H	 2.020437	 1.423114	 0.146921
H	 2.866892	 -1.477297	 -0.298806
H	 3.943543	 -0.095749	 -0.249061
H	 3.085064	 -0.590459	 1.195790

	symmetry c1
}
set optking {
	frozen_dihedral = ("
		2 3 4 8
	")
}

ee = optimize('scf')
oeprop('DIPOLE', 'QUADRUPOLE', 'MULLIKEN_CHARGES')
f=open( 'psi4out.xyz', 'w' )
f.write( "18  " )
f.write( str(ee) + "\n" )
f.write( MOL.save_string_xyz() )
f.close()
--------------------------------------------------------------------------

    Molecular point group: c1
  Charge       = 0
  Multiplicity = 1
  Basis Set: CC-PVTZ
  Basis Set:
  @DF-RHF Final Energy:  -271.28677627067555
    Total Energy =                       -271.2867762706756025
    Molecular point group: c1
  Basis Set: CC-PVTZ
  Basis Set:
  Basis Set: CC-PVTZ
  Basis Set:
  @DF-RHF Final Energy:  -271.28686802289792
    Total Energy =                       -271.2868680228978064
  Basis Set: CC-PVTZ
  Basis Set:
  Basis Set: CC-PVTZ
  Basis Set:
  @DF-RHF Final Energy:  -271.28688044644286
    Total Energy =                       -271.2868804464427512
  Basis Set: CC-PVTZ
  Basis Set:
  Basis Set: CC-PVTZ
  Basis Set:
  @DF-RHF Final Energy:  -271.28688201701488
    Total Energy =                       -271.2868820170149888
  Basis Set: CC-PVTZ
  Basis Set:
  Charge       = 0
  Multiplicity = 1
  Basis Set: CC-PVTZ
  Basis Set:

    Orbital Energies (a.u.)
    -----------------------

    Doubly Occupied:

       1A    -20.546232     2A    -11.265901     3A    -11.210321
       4A    -11.209285     5A    -11.205371     6A    -11.202953
       7A     -1.364043     8A     -1.076782     9A     -1.010331
      10A     -0.914520    11A     -0.818568    12A     -0.785148
      13A     -0.708570    14A     -0.641848    15A     -0.628542
      16A     -0.582200    17A     -0.571942    18A     -0.559705
      19A     -0.524830    20A     -0.501567    21A     -0.488850
      22A     -0.469040    23A     -0.459602    24A     -0.450434
      25A     -0.430908

  @DF-RHF Final Energy:  -271.28688249860238

   => Energetics <=

    Nuclear Repulsion Energy =            249.1679000175848557
    One-Electron Energy =                -861.6545741585193809
    Two-Electron Energy =                 341.1997916423321726
    DFT Exchange-Correlation Energy =       0.0000000000000000
    Empirical Dispersion Energy =           0.0000000000000000
    PCM Polarization Energy =               0.0000000000000000
    EFP Energy =                            0.0000000000000000
    Total Energy =                       -271.2868824986023242
    Molecular point group: c1
  Basis Set: CC-PVTZ
  Basis Set:

  -Total Gradient:
     Atom            X                  Y                   Z
    ------   -----------------  -----------------  -----------------
       1       -0.000000032121    -0.000002443877    -0.000008094756
       2       -0.000216989278     0.000614701081    -0.000041552369
       3        0.000233854698    -0.000635399106     0.000057971987
       4        0.000249609522    -0.000802357272    -0.000120272055
       5        0.000001380105     0.000005588835    -0.000009273155
       6       -0.000004506418     0.000010386046     0.000017134495
       7       -0.000003925005     0.000008269288    -0.000022307793
       8       -0.000249751665     0.000768548500     0.000087971394
       9        0.000005531008     0.000014380870     0.000010173222
      10        0.000000566328     0.000007599170     0.000005968057
      11       -0.000015920514     0.000006035807    -0.000000332313
      12        0.000006040280    -0.000001288516     0.000012331646
      13       -0.000006427670    -0.000001828807     0.000001014763
      14       -0.000006570061    -0.000002218286     0.000008622277
      15        0.000009116206     0.000009419442     0.000001243564
      16       -0.000001238747    -0.000000399809     0.000002127742
      17       -0.000003123792    -0.000000262723    -0.000004284267
      18        0.000002387118     0.000001269356     0.000001557564

  **** Optimization is complete! (in 5 steps) ****
    Final optimized geometry and variables:
    Molecular point group: c1

    Geometry (in Angstrom), charge = 0, multiplicity = 1:

    H           -2.910300869120    -0.152945941171     1.698093910426
    O           -2.096639517214     0.182659141327     1.370594114054
    C           -2.071552082603     0.107684124205    -0.031531258378
    C           -0.722282262770     0.591656279879    -0.526572045273
    H           -2.245048227310    -0.914440857569    -0.362110995726
    H           -2.857742940036     0.728279582430    -0.454015242008
    C            0.438561457131    -0.323681078359    -0.149643940198
    H           -0.775612842723     0.698395846436    -1.606934010398
    H           -0.552574295167     1.585865287024    -0.124150012109
    C            1.791295381220     0.198977591296    -0.624232317439
    H            0.267586937638    -1.310902256647    -0.574049219830
    H            0.456258626808    -0.450285104079     0.927087490818
    C            2.950643223422    -0.719872514387    -0.253748601817
    H            1.769082688873     0.333068032515    -1.702716445511
    H            1.963433737759     1.183897523408    -0.198927049193
    H            2.825884125119    -1.704149108051    -0.693112439558
    H            3.896331277050    -0.320293361778    -0.601972055171
    H            3.020272602668    -0.846127391245     0.821476439592

  Mulliken Charges: (a.u.)
   Center  Symbol    Alpha    Beta     Spin     Total
       1     H     0.39564  0.39564  0.00000  0.20873
       2     O     4.19904  4.19904  0.00000 -0.39809
       3     C     2.97336  2.97336  0.00000  0.05328
       4     C     3.09105  3.09105  0.00000 -0.18211
       5     H     0.47392  0.47392  0.00000  0.05216
       6     H     0.46538  0.46538  0.00000  0.06925
       7     C     3.08701  3.08701  0.00000 -0.17401
       8     H     0.45397  0.45397  0.00000  0.09206
       9     H     0.45201  0.45201  0.00000  0.09598
      10     C     3.08363  3.08363  0.00000 -0.16727
      11     H     0.45945  0.45945  0.00000  0.08110
      12     H     0.44504  0.44504  0.00000  0.10992
      13     C     3.14984  3.14984  0.00000 -0.29968
      14     H     0.45677  0.45677  0.00000  0.08645
      15     H     0.45408  0.45408  0.00000  0.09183
      16     H     0.45606  0.45606  0.00000  0.08787
      17     H     0.44930  0.44930  0.00000  0.10140
      18     H     0.45443  0.45443  0.00000  0.09113

   Total alpha = 25.00000, Total beta = 25.00000, Total charge = -0.00000
