                              Psi4 1.0.54 Driver

  ==> Input File <==

--------------------------------------------------------------------------
set {
	reference rhf
	basis cc-pvtz
}

set_num_threads( 4 )
memory 2 gb

molecule MOL {
0 1

H	 1.154622	 -2.162751	 1.319157
C	 1.292885	 -1.106657	 1.585996
C	 0.056302	 -0.256737	 1.489567
O	 2.358497	 -0.714566	 1.915191
C	 -0.554654	 -0.292621	 0.086567
H	 0.310547	 0.753235	 1.783082
H	 -0.663266	 -0.646541	 2.206611
C	 -1.846385	 0.513195	 -0.016346
H	 0.168236	 0.091545	 -0.627425
H	 -0.750956	 -1.323251	 -0.197932
C	 -3.089953	 -0.365049	 -0.098564
H	 -1.798267	 1.154820	 -0.891143
H	 -1.925398	 1.173265	 0.842889
H	 -3.055079	 -1.012299	 -0.968245
H	 -3.988403	 0.236438	 -0.170014
H	 -3.183055	 -0.995885	 0.779079

	symmetry c1
}
set optking {
	frozen_dihedral = ("
		9 5 8 12
	")
}

ee,wfn = optimize('scf', return_wfn=True)
oeprop( wfn, 'DIPOLE', 'QUADRUPOLE', 'MULLIKEN_CHARGES')
f=open( 'psi4out.xyz', 'w' )
f.write( "16  " )
f.write( str(ee) + "\n" )
f.write( MOL.save_string_xyz() )
f.close()
--------------------------------------------------------------------------

    Molecular point group: c1
  Charge       = 0
  Multiplicity = 1
  Basis Set: CC-PVTZ
  Basis Set:
  @DF-RHF Final Energy:  -270.11382389002307
    Total Energy =                       -270.1138238900231272
    Molecular point group: c1
  Basis Set: CC-PVTZ
  Basis Set:
  Basis Set: CC-PVTZ
  Basis Set:
  @DF-RHF Final Energy:  -270.11411615096557
    Total Energy =                       -270.1141161509654012
  Basis Set: CC-PVTZ
  Basis Set:
  Basis Set: CC-PVTZ
  Basis Set:
  @DF-RHF Final Energy:  -270.11389696522167
    Total Energy =                       -270.1138969652217270
  Basis Set: CC-PVTZ
  Basis Set:
  Basis Set: CC-PVTZ
  Basis Set:
  @DF-RHF Final Energy:  -270.11419331479658
    Total Energy =                       -270.1141933147965233
  Basis Set: CC-PVTZ
  Basis Set:
  Basis Set: CC-PVTZ
  Basis Set:
  @DF-RHF Final Energy:  -270.11420083601757
    Total Energy =                       -270.1142008360175168
  Basis Set: CC-PVTZ
  Basis Set:
  Basis Set: CC-PVTZ
  Basis Set:
  @DF-RHF Final Energy:  -270.11420572842491
    Total Energy =                       -270.1142057284247358
  Basis Set: CC-PVTZ
  Basis Set:
  Charge       = 0
  Multiplicity = 1
  Basis Set: CC-PVTZ
  Basis Set:

    Orbital Energies (a.u.)
    -----------------------

    Doubly Occupied:

       1A    -20.552247     2A    -11.321218     3A    -11.234878
       4A    -11.234097     5A    -11.227291     6A    -11.218432
       7A     -1.406956     8A     -1.096164     9A     -1.018978
      10A     -0.909235    11A     -0.812277    12A     -0.794867
      13A     -0.681462    14A     -0.642854    15A     -0.633034
      16A     -0.611765    17A     -0.575444    18A     -0.560011
      19A     -0.530916    20A     -0.513177    21A     -0.488282
      22A     -0.483980    23A     -0.472112    24A     -0.411453

  @DF-RHF Final Energy:  -270.11420611434988

   => Energetics <=

    Nuclear Repulsion Energy =            230.4473153131804679
    One-Electron Energy =                -822.2607823449966418
    Two-Electron Energy =                 321.6992609174665176
    DFT Exchange-Correlation Energy =       0.0000000000000000
    Empirical Dispersion Energy =           0.0000000000000000
    PCM Polarization Energy =               0.0000000000000000
    EFP Energy =                            0.0000000000000000
    Total Energy =                       -270.1142061143495994
    Molecular point group: c1
  Basis Set: CC-PVTZ
  Basis Set:

  -Total Gradient:
     Atom            X                  Y                   Z
    ------   -----------------  -----------------  -----------------
       1        0.000014441298     0.000016837936    -0.000016125317
       2       -0.000021414812    -0.000019303205     0.000048917127
       3        0.000018647910     0.000002356173    -0.000047047756
       4       -0.000033821114     0.000001537045    -0.000014328485
       5        0.001439474786     0.002940668318     0.002920172293
       6       -0.000013614225     0.000007778620     0.000006406239
       7        0.000022666175    -0.000017030189     0.000020659432
       8       -0.001614375804    -0.003154382251    -0.002523181487
       9       -0.000919371934    -0.001962241785    -0.002042112688
      10       -0.000005544618     0.000013027071     0.000000250526
      11       -0.000019134407    -0.000018514348     0.000001657089
      12        0.001111951902     0.002181693884     0.001657872282
      13        0.000007023756     0.000010767038    -0.000012893498
      14       -0.000006310808    -0.000000868409     0.000002319709
      15        0.000021934708    -0.000004530822     0.000006564240
      16       -0.000002552809     0.000002204924    -0.000009129705

  **** Optimization is complete! (in 7 steps) ****
    Final optimized geometry and variables:
    Molecular point group: c1

    Geometry (in Angstrom), charge = 0, multiplicity = 1:

    H            1.436577431858    -1.779937609897     0.529409252493
    C            1.579630682309    -0.722466903878     0.788055028118
    C            0.352811245070     0.137654278848     0.661475526674
    O            2.642808239277    -0.335999588782     1.131497101071
    C           -0.224827820491     0.106947658868    -0.755825000100
    H            0.606969509783     1.145963040322     0.960097722125
    H           -0.387382442050    -0.246256988547     1.360806195300
    C           -1.553788012923     0.874750349889    -0.888579353343
    H            0.505494304533     0.497933888032    -1.455271221153
    H           -0.380857039418    -0.927050135081    -1.051828878057
    C           -2.779612230581    -0.030275704501    -0.947389547178
    H           -1.520854386487     1.511216515627    -1.765239577862
    H           -1.657083122191     1.555393645720    -0.049012415914
    H           -2.747278113493    -0.675092168406    -1.818798541131
    H           -3.692974902368     0.550723817534    -0.997599927518
    H           -2.841110147480    -0.665495346763    -0.069508739042

  Mulliken Charges: (a.u.)
   Center  Symbol    Alpha    Beta     Spin     Total
       1     H     0.46508  0.46508  0.00000  0.06984
       2     C     2.90936  2.90936  0.00000  0.18128
       3     C     3.07831  3.07831  0.00000 -0.15662
       4     O     4.16354  4.16354  0.00000 -0.32708
       5     C     3.10965  3.10965  0.00000 -0.21931
       6     H     0.44184  0.44184  0.00000  0.11632
       7     H     0.45013  0.45013  0.00000  0.09974
       8     C     3.09041  3.09041  0.00000 -0.18082
       9     H     0.43848  0.43848  0.00000  0.12305
      10     H     0.45293  0.45293  0.00000  0.09413
      11     C     3.14678  3.14678  0.00000 -0.29357
      12     H     0.44516  0.44516  0.00000  0.10968
      13     H     0.45266  0.45266  0.00000  0.09468
      14     H     0.45345  0.45345  0.00000  0.09309
      15     H     0.44681  0.44681  0.00000  0.10638
      16     H     0.45540  0.45540  0.00000  0.08919

   Total alpha = 24.00000, Total beta = 24.00000, Total charge = -0.00000

*** Psi4 exiting successfully. Buy a developer a beer!
