                              Psi4 1.0.54 Driver

  ==> Input File <==

--------------------------------------------------------------------------
set {
	reference rhf
	basis cc-pvtz
}

set_num_threads( 4 )
memory 2 gb

molecule MOL {
0 1

H	 1.009371	 -1.139535	 -0.866884
O	 1.675515	 -0.612943	 -0.465627
C	 1.135873	 0.113391	 0.608264
C	 0.027642	 1.012027	 0.090274
H	 1.902972	 0.727968	 1.072615
H	 0.756163	 -0.561896	 1.370018
C	 -1.138737	 0.285728	 -0.581921
H	 0.464661	 1.708096	 -0.618252
H	 -0.340737	 1.603071	 0.925246
C	 -1.933983	 -0.631436	 0.343653
H	 -0.763151	 -0.285569	 -1.422081
H	 -1.808359	 1.035291	 -0.992333
H	 -2.789188	 -1.049673	 -0.174718
H	 -1.335629	 -1.461368	 0.700418
H	 -2.305435	 -0.092167	 1.209725

	symmetry c1
}
set optking {
	frozen_dihedral = ("
		1 2 3 4
	")
}

ee,wfn = optimize('scf', return_wfn=True)
oeprop( wfn, 'DIPOLE', 'QUADRUPOLE', 'MULLIKEN_CHARGES')
f=open( 'psi4out.xyz', 'w' )
f.write( "15  " )
f.write( str(ee) + "\n" )
f.write( MOL.save_string_xyz() )
f.close()
--------------------------------------------------------------------------

    Molecular point group: c1
  Charge       = 0
  Multiplicity = 1
  Basis Set: CC-PVTZ
  Basis Set:
  @DF-RHF Final Energy:  -232.23432839315015
    Total Energy =                       -232.2343283931501219
    Molecular point group: c1
  Basis Set: CC-PVTZ
  Basis Set:
  Basis Set: CC-PVTZ
  Basis Set:
  @DF-RHF Final Energy:  -232.17798956931699
    Total Energy =                       -232.1779895693168783
  Basis Set: CC-PVTZ
  Basis Set:
  Basis Set: CC-PVTZ
  Basis Set:
  @DF-RHF Final Energy:  -232.23282759531898
    Total Energy =                       -232.2328275953191223
  Basis Set: CC-PVTZ
  Basis Set:
  Basis Set: CC-PVTZ
  Basis Set:
  @DF-RHF Final Energy:  -232.23639150856445
    Total Energy =                       -232.2363915085645658
  Basis Set: CC-PVTZ
  Basis Set:
  Basis Set: CC-PVTZ
  Basis Set:
  @DF-RHF Final Energy:  -232.23649197173589
    Total Energy =                       -232.2364919717360294
  Basis Set: CC-PVTZ
  Basis Set:
  Basis Set: CC-PVTZ
  Basis Set:
  @DF-RHF Final Energy:  -232.23649556786222
    Total Energy =                       -232.2364955678621641
  Basis Set: CC-PVTZ
  Basis Set:
  Basis Set: CC-PVTZ
  Basis Set:
  @DF-RHF Final Energy:  -232.23651948485994
    Total Energy =                       -232.2365194848597980
  Basis Set: CC-PVTZ
  Basis Set:
  Charge       = 0
  Multiplicity = 1
  Basis Set: CC-PVTZ
  Basis Set:

    Orbital Energies (a.u.)
    -----------------------

    Doubly Occupied:

       1A    -20.545319     2A    -11.264538     3A    -11.222784
       4A    -11.216219     5A    -11.214531     6A     -1.363384
       7A     -1.073191     8A     -0.977439     9A     -0.881934
      10A     -0.789133    11A     -0.694356    12A     -0.646099
      13A     -0.619343    14A     -0.587667    15A     -0.575883
      16A     -0.547866    17A     -0.505467    18A     -0.492223
      19A     -0.479337    20A     -0.460482    21A     -0.430031

  @DF-RHF Final Energy:  -232.23651958573876

   => Energetics <=

    Nuclear Repulsion Energy =            191.6164853354677291
    One-Electron Energy =                -694.5315600191524936
    Two-Electron Energy =                 270.6785550979460595
    DFT Exchange-Correlation Energy =       0.0000000000000000
    Empirical Dispersion Energy =           0.0000000000000000
    PCM Polarization Energy =               0.0000000000000000
    EFP Energy =                            0.0000000000000000
    Total Energy =                       -232.2365195857387334
    Molecular point group: c1
  Basis Set: CC-PVTZ
  Basis Set:

  -Total Gradient:
     Atom            X                  Y                   Z
    ------   -----------------  -----------------  -----------------
       1       -0.000112140141     0.000418692478    -0.000729720850
       2        0.000024402904    -0.000709633335     0.000954286259
       3        0.000406743233     0.000698336820    -0.000373072736
       4       -0.000322061133    -0.000434604277     0.000141184617
       5       -0.000006910007    -0.000002169810    -0.000001121288
       6       -0.000001958778     0.000006203862    -0.000001331988
       7        0.000014110230     0.000020819548    -0.000014287030
       8        0.000006451991    -0.000000072519     0.000006950787
       9       -0.000011418817    -0.000000182903    -0.000011974700
      10       -0.000009729414    -0.000006594569     0.000021084600
      11       -0.000004464418     0.000004807702     0.000004906464
      12        0.000012351122     0.000003332953     0.000008131331
      13        0.000006039076    -0.000001512398     0.000000714354
      14        0.000000322143     0.000004777018    -0.000002443067
      15       -0.000001737989    -0.000002200572    -0.000003306753

  **** Optimization is complete! (in 8 steps) ****
    Final optimized geometry and variables:
    Molecular point group: c1

    Geometry (in Angstrom), charge = 0, multiplicity = 1:

    H            1.452686796085    -1.141457255767    -0.260976921599
    O            1.890758095950    -0.390025142141     0.093176380020
    C            0.968039037651     0.462528427905     0.717372276424
    C           -0.113547878901     0.981952073933    -0.220566816770
    H            1.545165842240     1.297314162482     1.090888180210
    H            0.524359595638    -0.028124422950     1.579532159502
    C           -1.036874753509    -0.079910480735    -0.823369271654
    H            0.370255041360     1.525156297585    -1.025827236597
    H           -0.713384533203     1.703114946487     0.329459147032
    C           -1.891371061621    -0.835404743740     0.192069443886
    H           -0.454587358869    -0.787690902746    -1.407677532822
    H           -1.691862748155     0.409995301808    -1.536053729017
    H           -2.567848716441    -1.518422981424    -0.308248172107
    H           -1.290034029119    -1.420083314648     0.878753609312
    H           -2.490611536072    -0.150500093686     0.782775128800

  Mulliken Charges: (a.u.)
   Center  Symbol    Alpha    Beta     Spin     Total
       1     H     0.39238  0.39238  0.00000  0.21524
       2     O     4.20589  4.20589  0.00000 -0.41177
       3     C     2.97824  2.97824  0.00000  0.04352
       4     C     3.09800  3.09800  0.00000 -0.19601
       5     H     0.44750  0.44750  0.00000  0.10499
       6     H     0.46945  0.46945  0.00000  0.06110
       7     C     3.10315  3.10315  0.00000 -0.20630
       8     H     0.44598  0.44598  0.00000  0.10804
       9     H     0.45571  0.45571  0.00000  0.08858
      10     C     3.15100  3.15100  0.00000 -0.30199
      11     H     0.45628  0.45628  0.00000  0.08743
      12     H     0.44393  0.44393  0.00000  0.11214
      13     H     0.44499  0.44499  0.00000  0.11003
      14     H     0.45470  0.45470  0.00000  0.09060
      15     H     0.45280  0.45280  0.00000  0.09441

   Total alpha = 21.00000, Total beta = 21.00000, Total charge = -0.00000

*** Psi4 exiting successfully. Buy a developer a beer!
