                              Psi4 1.0.54 Driver

  ==> Input File <==

--------------------------------------------------------------------------
set {
	reference rhf
	basis cc-pvtz
}

set_num_threads( 4 )
memory 2 gb

molecule MOL {
0 1

O	 3.219313	 0.959291	 -0.614106
C	 2.698710	 0.058177	 -0.050237
C	 1.246364	 -0.005813	 0.348416
O	 3.344101	 -1.038700	 0.312317
C	 0.453207	 1.232821	 -0.049003
H	 0.839270	 -0.907818	 -0.092281
H	 1.216683	 -0.160521	 1.422434
C	 -0.998367	 1.217982	 0.432195
H	 0.481498	 1.345443	 -1.127236
H	 0.951413	 2.105557	 0.354893
C	 -1.882951	 0.151251	 -0.211235
H	 -1.429490	 2.193659	 0.228843
H	 -1.019755	 1.099323	 1.513279
C	 -3.342450	 0.243269	 0.226009
H	 -1.826223	 0.246578	 -1.293162
H	 -1.508033	 -0.839650	 0.027695
C	 -4.234517	 -0.821434	 -0.405970
H	 -3.730149	 1.228245	 -0.022691
H	 -3.398860	 0.159952	 1.308941
C	 -3.453027	 -1.870697	 -1.189615
H	 -4.814275	 -1.311215	 0.371665
H	 -4.953626	 -0.342372	 -1.064938
H	 -4.115265	 -2.610323	 -1.624791
H	 -2.749181	 -2.392846	 -0.550029
H	 -2.888885	 -1.416172	 -1.997302
C	 4.720529	 -1.114346	 0.001449
H	 4.874321	 -1.055557	 -1.065852
H	 5.057824	 -2.067950	 0.373977
H	 5.264321	 -0.313596	 0.480350

	symmetry c1
}
set optking {
	frozen_dihedral = ("
		21 17 14 11
	")
}

ee,wfn = optimize('scf', return_wfn=True)
oeprop( wfn, 'DIPOLE', 'QUADRUPOLE', 'MULLIKEN_CHARGES')
f=open( 'psi4out.xyz', 'w' )
f.write( "29  " )
f.write( str(ee) + "\n" )
f.write( MOL.save_string_xyz() )
f.close()
--------------------------------------------------------------------------

    Molecular point group: c1
  Charge       = 0
  Multiplicity = 1
  Basis Set: CC-PVTZ
  Basis Set:
  @DF-RHF Final Energy:  -501.21086724022848
    Total Energy =                       -501.2108672402282536
    Molecular point group: c1
  Basis Set: CC-PVTZ
  Basis Set:
  Basis Set: CC-PVTZ
  Basis Set:
  @DF-RHF Final Energy:  -499.92562394266224
    Total Energy =                       -499.9256239426620141
  Basis Set: CC-PVTZ
  Basis Set:
  Basis Set: CC-PVTZ
  Basis Set:
  @DF-RHF Final Energy:  -500.20606512844302
    Total Energy =                       -500.2060651284430151
  Basis Set: CC-PVTZ
  Basis Set:
  Basis Set: CC-PVTZ
  Basis Set:
  @DF-RHF Final Energy:  -500.69615199005932
    Total Energy =                       -500.6961519900588655
  Basis Set: CC-PVTZ
  Basis Set:
  @DF-RHF Final Energy:  -501.01846507957111
    Total Energy =                       -501.0184650795704329
  @DF-RHF Final Energy:  -501.16919230948065
    Total Energy =                       -501.1691923094805361
  @DF-RHF Final Energy:  -501.21037383175485
    Total Energy =                       -501.2103738317549642
  @DF-RHF Final Energy:  -500.96810506205236
    Total Energy =                       -500.9681050620517908
  @DF-RHF Final Energy:  -501.15632159887889
    Total Energy =                       -501.1563215988792308
  @DF-RHF Final Energy:  -501.21174433529359
    Total Energy =                       -501.2117443352942701
  @DF-RHF Final Energy:  -501.21462374076305
    Total Energy =                       -501.2146237407629314
  @DF-RHF Final Energy:  -501.21485928748871
    Total Energy =                       -501.2148592874889346
  Basis Set: CC-PVTZ
  Basis Set:
  @DF-RHF Final Energy:  -501.21404647095255
    Total Energy =                       -501.2140464709534626
  Basis Set: CC-PVTZ
  Basis Set:
  Basis Set: CC-PVTZ
  Basis Set:
  @DF-RHF Final Energy:  -501.21507270457130
    Total Energy =                       -501.2150727045715257
  Basis Set: CC-PVTZ
  Basis Set:
  Basis Set: CC-PVTZ
  Basis Set:
  @DF-RHF Final Energy:  -501.21507684982157
    Total Energy =                       -501.2150768498219122
  Basis Set: CC-PVTZ
  Basis Set:
  Charge       = 0
  Multiplicity = 1
  Basis Set: CC-PVTZ
  Basis Set:

    Orbital Energies (a.u.)
    -----------------------

    Doubly Occupied:

       1A    -20.595952     2A    -20.533768     3A    -11.364171
       4A    -11.278210     5A    -11.232862     6A    -11.216841
       7A    -11.215141     8A    -11.214621     9A    -11.213249
      10A    -11.212616    11A    -11.207095    12A     -1.471867
      13A     -1.365433    14A     -1.098201    15A     -1.064424
      16A     -1.018321    17A     -0.976532    18A     -0.928512
      19A     -0.874167    20A     -0.805089    21A     -0.773926
      22A     -0.764744    23A     -0.702795    24A     -0.685364
      25A     -0.676027    26A     -0.649543    27A     -0.629579
      28A     -0.603514    29A     -0.597979    30A     -0.591417
      31A     -0.558135    32A     -0.549938    33A     -0.541985
      34A     -0.525405    35A     -0.522638    36A     -0.508438
      37A     -0.502729    38A     -0.477762    39A     -0.473624
      40A     -0.460340    41A     -0.453943    42A     -0.447250
      43A     -0.444855    44A     -0.437678

  @DF-RHF Final Energy:  -501.21507743101131

   => Energetics <=

    Nuclear Repulsion Energy =            619.0255557550902950
    One-Electron Energy =               -1909.5479092636069254
    Two-Electron Energy =                 789.3072760775052075
    DFT Exchange-Correlation Energy =       0.0000000000000000
    Empirical Dispersion Energy =           0.0000000000000000
    PCM Polarization Energy =               0.0000000000000000
    EFP Energy =                            0.0000000000000000
    Total Energy =                       -501.2150774310113093
    Molecular point group: c1
  Basis Set: CC-PVTZ
  Basis Set:

  -Total Gradient:
     Atom            X                  Y                   Z
    ------   -----------------  -----------------  -----------------
       1       -0.000017543588    -0.000003197886     0.000082542355
       2        0.000054005743    -0.000051348301    -0.000009508411
       3       -0.000005950153     0.000056914846    -0.000029886449
       4       -0.000074752870     0.000037517527    -0.000032884076
       5        0.000031089607     0.000006736575     0.000022390649
       6        0.000003681717    -0.000031761711    -0.000006537474
       7       -0.000010628260    -0.000021213074     0.000005349963
       8       -0.000018771199     0.000015559440    -0.000041222432
       9        0.000003552517     0.000011248059     0.000007234489
      10       -0.000004234131     0.000012847373     0.000008766109
      11        0.000968800672     0.001019293896     0.001555661442
      12        0.000004470195    -0.000012018533     0.000010055891
      13       -0.000009988950    -0.000013990171    -0.000008953649
      14       -0.000819413706    -0.001521621792    -0.002086216366
      15       -0.000011215458     0.000020508838     0.000004840333
      16        0.000030068374    -0.000004974780    -0.000001855390
      17       -0.002784997046     0.000528343229    -0.000315183830
      18        0.000015608238    -0.000006063284     0.000012364981
      19       -0.000005193474    -0.000009847744    -0.000003332490
      20       -0.000007032527     0.000011084778     0.000019711743
      21        0.002668805476    -0.000046144957     0.000835848404
      22       -0.000004526645     0.000000436174    -0.000006289743
      23       -0.000001255657     0.000008055694    -0.000013171408
      24       -0.000000018452     0.000001969695     0.000003795971
      25       -0.000008114139     0.000011474270    -0.000010443266
      26        0.000019979416    -0.000026781192     0.000003722714
      27        0.000005164727     0.000012886951     0.000000486788
      28       -0.000011010650    -0.000000349123    -0.000014032234
      29       -0.000010579779    -0.000005564796     0.000006745379

  **** Optimization is complete! (in 16 steps) ****
    Final optimized geometry and variables:
    Molecular point group: c1

    Geometry (in Angstrom), charge = 0, multiplicity = 1:

    O            2.106229236319     0.722147087939    -2.388003531760
    C            2.091620474051     0.760656532372    -1.205117592659
    C            0.857344417566     0.715395366248    -0.340986046264
    O            3.188467523150     0.849282499048    -0.470251235498
    C           -0.438214629942     0.628313356189    -1.137950095759
    H            0.977417101994    -0.125359946930     0.331752550911
    H            0.872169762930     1.601546296841     0.285580605703
    C           -1.699759462106     0.673891534865    -0.274571571435
    H           -0.432330157299    -0.278387539552    -1.732726343762
    H           -0.463733525644     1.448298347940    -1.845190702187
    C           -1.898891093955    -0.532302687008     0.642870857259
    H           -2.556931795833     0.752146484567    -0.936529333426
    H           -1.696811380413     1.583636483150     0.321816053968
    C           -3.224285974864    -0.459051378907     1.402379922076
    H           -1.861237817282    -1.437474750275     0.043059946509
    H           -1.079180549665    -0.596930787105     1.348733807604
    C           -3.552677328233    -1.620546129729     2.377433412428
    H           -4.028851213956    -0.370742977753     0.679912913990
    H           -3.230654120522     0.473146382399     1.959241301368
    C           -2.439800803753    -2.632692714052     2.653623420402
    H           -3.841620286928    -1.196119294204     3.332541786071
    H           -4.417409113252    -2.161191756740     2.009593717928
    H           -2.793830206988    -3.386284925841     3.347947879294
    H           -1.569282668357    -2.165431458119     3.099336956737
    H           -2.118432571421    -3.144104231162     1.754530874736
    C            4.424707191188     0.898280434019    -1.153096562747
    H            4.570428416331     0.005443137180    -1.742865551321
    H            5.183408001792     0.968464607624    -0.390657325546
    H            4.467845452471     1.760188443880    -1.802316361433

  Mulliken Charges: (a.u.)
   Center  Symbol    Alpha    Beta     Spin     Total
       1     O     4.19701  4.19701  0.00000 -0.39401
       2     C     2.80483  2.80483  0.00000  0.39035
       3     C     3.10188  3.10188  0.00000 -0.20375
       4     O     4.14720  4.14720  0.00000 -0.29441
       5     C     3.09205  3.09205  0.00000 -0.18410
       6     H     0.43955  0.43955  0.00000  0.12090
       7     H     0.43977  0.43977  0.00000  0.12046
       8     C     3.10413  3.10413  0.00000 -0.20826
       9     H     0.44626  0.44626  0.00000  0.10747
      10     H     0.43989  0.43989  0.00000  0.12021
      11     C     3.09347  3.09347  0.00000 -0.18694
      12     H     0.44518  0.44518  0.00000  0.10964
      13     H     0.45401  0.45401  0.00000  0.09198
      14     C     3.09986  3.09986  0.00000 -0.19973
      15     H     0.45168  0.45168  0.00000  0.09663
      16     H     0.45069  0.45069  0.00000  0.09862
      17     C     3.08682  3.08682  0.00000 -0.17364
      18     H     0.44972  0.44972  0.00000  0.10056
      19     H     0.45251  0.45251  0.00000  0.09499
      20     C     3.15846  3.15846  0.00000 -0.31692
      21     H     0.45137  0.45137  0.00000  0.09725
      22     H     0.45120  0.45120  0.00000  0.09760
      23     H     0.44374  0.44374  0.00000  0.11253
      24     H     0.45410  0.45410  0.00000  0.09179
      25     H     0.45258  0.45258  0.00000  0.09484
      26     C     3.03820  3.03820  0.00000 -0.07640
      27     H     0.45435  0.45435  0.00000  0.09130
      28     H     0.44527  0.44527  0.00000  0.10946
      29     H     0.45421  0.45421  0.00000  0.09158

   Total alpha = 44.00000, Total beta = 44.00000, Total charge = -0.00000

*** Psi4 exiting successfully. Buy a developer a beer!
