                              Psi4 1.0.54 Driver

  ==> Input File <==

--------------------------------------------------------------------------
set {
	reference rhf
	basis cc-pvtz
}

set_num_threads( 4 )
memory 2 gb

molecule MOL {
0 1

H	 -3.401682	 -1.036167	 0.000000
O	 -3.113760	 -0.140926	 0.000000
C	 -1.775087	 -0.058754	 0.000000
C	 -1.109473	 1.143581	 0.204415
C	 -1.062118	 -1.226817	 -0.213276
H	 -1.669544	 2.045573	 0.369212
C	 0.264866	 1.171640	 0.194506
H	 -1.594845	 -2.143346	 -0.368826
C	 0.313724	 -1.181680	 -0.220196
H	 0.790207	 2.092861	 0.350962
C	 0.993638	 0.009635	 -0.017875
H	 0.867864	 -2.087273	 -0.385563
C	 2.468141	 0.033438	 -0.029615
O	 3.133947	 1.001041	 0.133486
H	 2.940691	 -0.938899	 -0.205847

	symmetry c1
}
set optking {
	frozen_dihedral = ("
		5 3 2 1
	")
}

ee,wfn = optimize('scf', return_wfn=True)
oeprop( wfn, 'DIPOLE', 'QUADRUPOLE', 'MULLIKEN_CHARGES')
f=open( 'psi4out.xyz', 'w' )
f.write( "15  " )
f.write( str(ee) + "\n" )
f.write( MOL.save_string_xyz() )
f.close()
--------------------------------------------------------------------------

    Molecular point group: c1
  Charge       = 0
  Multiplicity = 1
  Basis Set: CC-PVTZ
  Basis Set:
  @DF-RHF Final Energy:  -418.44033422913685
    Total Energy =                       -418.4403342291365107
    Molecular point group: c1
  Basis Set: CC-PVTZ
  Basis Set:
  Basis Set: CC-PVTZ
  Basis Set:
  @DF-RHF Final Energy:  -418.44218586307130
    Total Energy =                       -418.4421858630715860
  Basis Set: CC-PVTZ
  Basis Set:
  Basis Set: CC-PVTZ
  Basis Set:
  @DF-RHF Final Energy:  -418.44235754825456
    Total Energy =                       -418.4423575482542219
  Basis Set: CC-PVTZ
  Basis Set:
  Basis Set: CC-PVTZ
  Basis Set:
  @DF-RHF Final Energy:  -418.44216523032702
    Total Energy =                       -418.4421652303269639
  Basis Set: CC-PVTZ
  Basis Set:
  Basis Set: CC-PVTZ
  Basis Set:
  @DF-RHF Final Energy:  -418.44237742145123
    Total Energy =                       -418.4423774214511695
  Basis Set: CC-PVTZ
  Basis Set:
  Basis Set: CC-PVTZ
  Basis Set:
  @DF-RHF Final Energy:  -418.44238236586511
    Total Energy =                       -418.4423823658651145
  Basis Set: CC-PVTZ
  Basis Set:
  Charge       = 0
  Multiplicity = 1
  Basis Set: CC-PVTZ
  Basis Set:

    Orbital Energies (a.u.)
    -----------------------

    Doubly Occupied:

       1A    -20.604743     2A    -20.545525     3A    -11.322647
       4A    -11.322639     5A    -11.260657     6A    -11.251949
       7A    -11.242480     8A    -11.237140     9A    -11.236401
      10A     -1.437816    11A     -1.401854    12A     -1.175288
      13A     -1.046734    14A     -1.040420    15A     -0.897335
      16A     -0.861723    17A     -0.806053    18A     -0.761647
      19A     -0.699373    20A     -0.690959    21A     -0.642825
      22A     -0.629170    23A     -0.617085    24A     -0.611339
      25A     -0.585592    26A     -0.561640    27A     -0.555371
      28A     -0.509299    29A     -0.490290    30A     -0.421470
      31A     -0.362010    32A     -0.332391

  @DF-RHF Final Energy:  -418.44238283911062

   => Energetics <=

    Nuclear Repulsion Energy =            402.2826592294456418
    One-Electron Energy =               -1367.1263514325091819
    Two-Electron Energy =                 546.4013093639523504
    DFT Exchange-Correlation Energy =       0.0000000000000000
    Empirical Dispersion Energy =           0.0000000000000000
    PCM Polarization Energy =               0.0000000000000000
    EFP Energy =                            0.0000000000000000
    Total Energy =                       -418.4423828391111329
    Molecular point group: c1
  Basis Set: CC-PVTZ
  Basis Set:

  -Total Gradient:
     Atom            X                  Y                   Z
    ------   -----------------  -----------------  -----------------
       1       -0.000006085303    -0.000029576292     0.001227404918
       2       -0.000062655338     0.000110517079    -0.002081773741
       3       -0.000016199393    -0.000195847104     0.001843940705
       4        0.000021292196    -0.000034615260    -0.000041719797
       5        0.000107103654     0.000106143330    -0.000938862224
       6        0.000018056711     0.000009097397     0.000003534635
       7        0.000040596326    -0.000022486516    -0.000025123249
       8       -0.000020741407    -0.000005861215    -0.000003268034
       9       -0.000090227868    -0.000070175885    -0.000036506999
      10        0.000002055004     0.000003157423     0.000007949484
      11        0.000055416128     0.000084363067     0.000026840001
      12       -0.000005740777     0.000012667849     0.000006712484
      13        0.000051759133     0.000027293131     0.000017444827
      14       -0.000041841444    -0.000085861311    -0.000019747175
      15       -0.000052787629     0.000091184305     0.000013174165

  **** Optimization is complete! (in 7 steps) ****
    Final optimized geometry and variables:
    Molecular point group: c1

    Geometry (in Angstrom), charge = 0, multiplicity = 1:

    H           -3.462931956958    -1.029012206999    -0.005190772178
    O           -3.108777008452    -0.157686015538     0.001832253424
    C           -1.767397451726    -0.175928762865    -0.004291478536
    C           -1.113029594717     1.035882833218     0.196611824587
    C           -1.043990425397    -1.334194640201    -0.221770618138
    H           -1.697251132718     1.919508863672     0.359242633332
    C            0.256545207108     1.075333110560     0.183996511957
    H           -1.552144309662    -2.266320272602    -0.385550016124
    C            0.336332789986    -1.278168395723    -0.227811866638
    H            0.774363132972     2.001139665438     0.338774874166
    C            1.000458822048    -0.083742349569    -0.027155676637
    H            0.897669865938    -2.179001084653    -0.394657873461
    C            2.474751750257    -0.047103529036    -0.039676330976
    O            3.132410299389     0.925739297350     0.122372132494
    H            2.954549777561    -1.016092237746    -0.215714051588

  Mulliken Charges: (a.u.)
   Center  Symbol    Alpha    Beta     Spin     Total
       1     H     0.38548  0.38548  0.00000  0.22904
       2     O     4.16640  4.16640  0.00000 -0.33280
       3     C     2.84436  2.84436  0.00000  0.31127
       4     C     3.10728  3.10728  0.00000 -0.21456
       5     C     3.13397  3.13397  0.00000 -0.26793
       6     H     0.41533  0.41533  0.00000  0.16934
       7     C     3.05988  3.05988  0.00000 -0.11975
       8     H     0.43177  0.43177  0.00000  0.13647
       9     C     3.07400  3.07400  0.00000 -0.14799
      10     H     0.40727  0.40727  0.00000  0.18546
      11     C     3.00243  3.00243  0.00000 -0.00486
      12     H     0.42121  0.42121  0.00000  0.15757
      13     C     2.91135  2.91135  0.00000  0.17730
      14     O     4.17826  4.17826  0.00000 -0.35652
      15     H     0.46101  0.46101  0.00000  0.07797

   Total alpha = 32.00000, Total beta = 32.00000, Total charge =  0.00000

*** Psi4 exiting successfully. Buy a developer a beer!
