  ==> Input File <==

--------------------------------------------------------------------------
set {
	reference rhf
	basis 6-31G*
}

set_num_threads( 1 )
memory 2 gb

molecule MOL {
0 1

O	 2.862325	 1.357334	 0.000267
C	 2.843464	 0.164689	 -0.000222
C	 1.546494	 -0.624492	 -0.000609
C	 4.124123	 -0.644674	 -0.000428
C	 0.291004	 0.242674	 0.000989
H	 1.557904	 -1.283758	 -0.867573
H	 1.558622	 -1.285963	 0.864672
C	 -0.662374	 -0.108113	 1.144571
H	 -0.218346	 0.132924	 -0.951192
H	 0.579887	 1.286789	 0.068209
C	 -1.925654	 0.754290	 1.155349
H	 -0.945292	 -1.157349	 1.073087
H	 -0.144724	 0.002504	 2.096343
C	 -2.884428	 0.409332	 2.296300
H	 -2.444308	 0.643943	 0.204644
H	 -1.644078	 1.803329	 1.227656
C	 -4.144009	 1.274853	 2.300256
H	 -3.167540	 -0.638761	 2.224385
H	 -2.367554	 0.520723	 3.247243
H	 -4.701677	 1.159598	 1.375122
H	 -4.803762	 1.006354	 3.119606
H	 -3.896118	 2.327197	 2.406395
H	 4.165367	 -1.288615	 -0.874074
H	 4.976217	 0.020734	 -0.001915
H	 4.166763	 -1.286207	 0.874930

	symmetry c1
}
set optking {
	frozen_dihedral = ("
		9 5 8 12,
		15 11 8 12,
		15 11 14 18,
		1 2 3 6
	")
}

ee = energy('scf')
oeprop('DIPOLE', 'QUADRUPOLE', 'MULLIKEN_CHARGES')
f=open( 'psi4out.xyz', 'w' )
f.write( "25  " )
f.write( str(ee) + "\n" )
f.write( MOL.save_string_xyz() )
f.close()
--------------------------------------------------------------------------

    Molecular point group: c1

    Geometry (in Angstrom), charge = 0, multiplicity = 1:

       Center              X                  Y                   Z               Mass
    ------------   -----------------  -----------------  -----------------  -----------------
           O          2.638627900419     1.034886932308    -0.772228138960    15.994914619560
           C          2.619766900419    -0.157758067692    -0.772717138960    12.000000000000
           C          1.322796900419    -0.946939067692    -0.773104138960    12.000000000000
           C          3.900425900419    -0.967121067692    -0.772923138960    12.000000000000
           C          0.067306900419    -0.079773067692    -0.771506138960    12.000000000000
           H          1.334206900419    -1.606205067692    -1.640068138960     1.007825032070
           H          1.334924900419    -1.608410067692     0.092176861040     1.007825032070
           C         -0.886071099581    -0.430560067692     0.372075861040    12.000000000000
           H         -0.442043099581    -0.189523067692    -1.723687138960     1.007825032070
           H          0.356189900419     0.964341932308    -0.704286138960     1.007825032070
           C         -2.149351099581     0.431842932308     0.382853861040    12.000000000000
           H         -1.168989099581    -1.479796067692     0.300591861040     1.007825032070
           H         -0.368421099581    -0.319943067692     1.323847861040     1.007825032070
           C         -3.108125099581     0.086884932308     1.523804861040    12.000000000000
           H         -2.668005099581     0.321495932308    -0.567851138960     1.007825032070
           H         -1.867775099581     1.480881932308     0.455160861040     1.007825032070
           C         -4.367706099581     0.952405932308     1.527760861040    12.000000000000
           H         -3.391237099581    -0.961208067692     1.451889861040     1.007825032070
           H         -2.591251099581     0.198275932308     2.474747861040     1.007825032070
           H         -4.925374099581     0.837150932308     0.602626861040     1.007825032070
           H         -5.027459099581     0.683906932308     2.347110861040     1.007825032070
           H         -4.119815099581     2.004749932308     1.633899861040     1.007825032070
           H          3.941669900419    -1.611062067692    -1.646569138960     1.007825032070
           H          4.752519900419    -0.301713067692    -0.774410138960     1.007825032070
           H          3.943065900419    -1.608654067692     0.102434861040     1.007825032070

  Charge       = 0
  Multiplicity = 1
  Basis Set: 6-31G*
  Basis Set:

    Orbital Energies (a.u.)
    -----------------------

    Doubly Occupied:

       1A    -20.551417     2A    -11.327263     3A    -11.230406
       4A    -11.229080     5A    -11.215188     6A    -11.213953
       7A    -11.212022     8A    -11.211540     9A    -11.207196
      10A     -1.397238    11A     -1.092026    12A     -1.055349
      13A     -1.014276    14A     -0.968364    15A     -0.889323
      16A     -0.814122    17A     -0.789780    18A     -0.729827
      19A     -0.667517    20A     -0.643855    21A     -0.632349
      22A     -0.623323    23A     -0.593763    24A     -0.582869
      25A     -0.573161    26A     -0.558480    27A     -0.534600
      28A     -0.525161    29A     -0.513628    30A     -0.494744
      31A     -0.483322    32A     -0.470421    33A     -0.463163
      34A     -0.459024    35A     -0.444380    36A     -0.402090

  @DF-RHF Final Energy:  -387.13168926619528

   => Energetics <=

    Nuclear Repulsion Energy =            441.1847457693852448
    One-Electron Energy =               -1399.0043380597905980
    Two-Electron Energy =                 570.6879030242068893
    DFT Exchange-Correlation Energy =       0.0000000000000000
    Empirical Dispersion Energy =           0.0000000000000000
    PCM Polarization Energy =               0.0000000000000000
    EFP Energy =                            0.0000000000000000
    Total Energy =                       -387.1316892661984639

  Mulliken Charges: (a.u.)
   Center  Symbol    Alpha    Beta     Spin     Total
       1     O     4.25998  4.25998  0.00000 -0.51995
       2     C     2.73888  2.73888  0.00000  0.52225
       3     C     3.21472  3.21472  0.00000 -0.42944
       4     C     3.28695  3.28695  0.00000 -0.57390
       5     C     3.15789  3.15789  0.00000 -0.31579
       6     H     0.40681  0.40681  0.00000  0.18638
       7     H     0.40712  0.40712  0.00000  0.18576
       8     C     3.15615  3.15615  0.00000 -0.31231
       9     H     0.42042  0.42042  0.00000  0.15917
      10     H     0.39229  0.39229  0.00000  0.21543
      11     C     3.15153  3.15153  0.00000 -0.30307
      12     H     0.42558  0.42558  0.00000  0.14884
      13     H     0.42274  0.42274  0.00000  0.15452
      14     C     3.15147  3.15147  0.00000 -0.30294
      15     H     0.42412  0.42412  0.00000  0.15177
      16     H     0.42090  0.42090  0.00000  0.15821
      17     C     3.23927  3.23927  0.00000 -0.47854
      18     H     0.42407  0.42407  0.00000  0.15187
      19     H     0.42309  0.42309  0.00000  0.15383
      20     H     0.42199  0.42199  0.00000  0.15602
      21     H     0.41974  0.41974  0.00000  0.16051
      22     H     0.42106  0.42106  0.00000  0.15788
      23     H     0.40847  0.40847  0.00000  0.18305
      24     H     0.39637  0.39637  0.00000  0.20726
      25     H     0.40840  0.40840  0.00000  0.18319

   Total alpha = 36.00000, Total beta = 36.00000, Total charge = -0.00000
