  ==> Input File <==

--------------------------------------------------------------------------
set {
	reference rhf
	basis 6-31G*
}

set_num_threads( 4 )
memory 2 gb

molecule MOL {
0 1

H	 1.872598	 -0.252764	 2.940040
O	 2.335926	 0.158906	 2.223412
C	 1.532767	 0.324085	 1.153445
C	 2.087020	 0.919709	 0.024739
C	 0.209397	 -0.071893	 1.148428
H	 3.117861	 1.218700	 0.053530
C	 1.315915	 1.116158	 -1.102146
H	 -0.243398	 -0.533147	 2.003851
C	 -0.536158	 0.140425	 0.000000
H	 1.751890	 1.576745	 -1.969119
C	 -0.016541	 0.726914	 -1.132068
N	 -1.935604	 -0.280333	 0.000000
H	 -0.627345	 0.872653	 -1.998718
O	 -2.161694	 -1.452901	 0.000000
O	 -2.770341	 0.571417	 0.000000

	symmetry c1
}
set optking {
	frozen_dihedral = ("
		11 9 12 14
	")
}

ee = optimize('scf')
oeprop('DIPOLE', 'QUADRUPOLE', 'MULLIKEN_CHARGES')
f=open( 'psi4out.xyz', 'w' )
f.write( "15  " )
f.write( str(ee) + "\n" )
f.write( MOL.save_string_xyz() )
f.close()
--------------------------------------------------------------------------

    Molecular point group: c1
  Charge       = 0
  Multiplicity = 1
  Basis Set: 6-31G*
  Basis Set:
  @DF-RHF Final Energy:  -509.01796298649873
    Total Energy =                       -509.0179629864990147
    Molecular point group: c1
  Basis Set: 6-31G*
  Basis Set:
  Basis Set: 6-31G*
  Basis Set:
  @DF-RHF Final Energy:  -509.01254339245935
    Total Energy =                       -509.0125433924592926
  Basis Set: 6-31G*
  Basis Set:
  Basis Set: 6-31G*
  Basis Set:
  @DF-RHF Final Energy:  -509.01816567714775
    Total Energy =                       -509.0181656771477492
  Basis Set: 6-31G*
  Basis Set:
  Basis Set: 6-31G*
  Basis Set:
  @DF-RHF Final Energy:  -509.01850587126677
    Total Energy =                       -509.0185058712665978
  Basis Set: 6-31G*
  Basis Set:
  Basis Set: 6-31G*
  Basis Set:
  @DF-RHF Final Energy:  -509.01850811369746
    Total Energy =                       -509.0185081136980898
  Basis Set: 6-31G*
  Basis Set:
  Charge       = 0
  Multiplicity = 1
  Basis Set: 6-31G*
  Basis Set:

    Orbital Energies (a.u.)
    -----------------------

    Doubly Occupied:

       1A    -20.617962     2A    -20.609947     3A    -20.609584
       4A    -15.859167     5A    -11.333519     6A    -11.316495
       7A    -11.268838     8A    -11.268662     9A    -11.263414
      10A    -11.255201    11A     -1.641468    12A     -1.439010
      13A     -1.425503    14A     -1.202579    15A     -1.095736
      16A     -1.048552    17A     -0.965738    18A     -0.884146
      19A     -0.830331    20A     -0.789259    21A     -0.762887
      22A     -0.734574    23A     -0.720966    24A     -0.710597
      25A     -0.668732    26A     -0.635536    27A     -0.618094
      28A     -0.592952    29A     -0.563655    30A     -0.548638
      31A     -0.531707    32A     -0.490691    33A     -0.486274
      34A     -0.455034    35A     -0.374065    36A     -0.343207

  @DF-RHF Final Energy:  -509.01850844374900

   => Energetics <=

    Nuclear Repulsion Energy =            502.6782797195181161
    One-Electron Energy =               -1691.4681345177591538
    Two-Electron Energy =                 679.7713463544919250
    DFT Exchange-Correlation Energy =       0.0000000000000000
    Empirical Dispersion Energy =           0.0000000000000000
    PCM Polarization Energy =               0.0000000000000000
    EFP Energy =                            0.0000000000000000
    Total Energy =                       -509.0185084437491696
    Molecular point group: c1
  Basis Set: 6-31G*
  Basis Set:

  -Total Gradient:
     Atom            X                  Y                   Z
    ------   -----------------  -----------------  -----------------
       1       -0.000002084119     0.000004045840     0.000004462533
       2        0.000007966651    -0.000004259173    -0.000000614801
       3       -0.000038503341    -0.000012370886    -0.000018353929
       4       -0.000007251991     0.000038173319    -0.000007607237
       5       -0.000010445262     0.000100163705     0.000015653924
       6        0.000001898272     0.000001157655     0.000001350846
       7        0.000035237812    -0.000048296656     0.000008471020
       8       -0.000012280070    -0.000007350125     0.000014162752
       9       -0.001968036271     0.006013448277     0.000020329733
      10       -0.000004899281     0.000001268655     0.000003270934
      11        0.001388053437    -0.004280343116    -0.001427322244
      12        0.000489534107    -0.001665991621     0.006917155784
      13       -0.000011335950     0.000005042602    -0.000013455882
      14        0.000121178651    -0.000158376561    -0.005516161810
      15        0.000010967364     0.000013688088    -0.000001341623

  **** Optimization is complete! (in 6 steps) ****
    Final optimized geometry and variables:
    Molecular point group: c1

    Geometry (in Angstrom), charge = 0, multiplicity = 1:

    H            1.929935855550    -0.444762472655     2.668288704899
    O            2.388725054947    -0.028013177337     1.951777676505
    C            1.584027403896     0.143127346202     0.886271292002
    C            2.138378646535     0.731083506122    -0.246288347844
    C            0.257299046698    -0.250293922343     0.884468625489
    H            3.172467079169     1.018563361778    -0.223920914220
    C            1.364045077008     0.928277817474    -1.370291526060
    H           -0.187086336095    -0.733827585780     1.735360441742
    C           -0.490414444148    -0.007177116494    -0.251059965291
    H            1.802837662139     1.373759319677    -2.243855373133
    C            0.023971818401     0.560428705872    -1.390547908041
    N           -1.878955064049    -0.462813827817    -0.265112171163
    H           -0.593189243944     0.719790054624    -2.253428071875
    O           -2.063286381706    -1.640451611898    -0.238809257139
    O           -2.725541314908     0.372228278545    -0.344921141710

  Mulliken Charges: (a.u.)
   Center  Symbol    Alpha    Beta     Spin     Total
       1     H     0.26740  0.26740  0.00000  0.46519
       2     O     4.37419  4.37419  0.00000 -0.74838
       3     C     2.79120  2.79120  0.00000  0.41761
       4     C     3.11536  3.11536  0.00000 -0.23072
       5     C     3.13508  3.13508  0.00000 -0.27017
       6     H     0.38215  0.38215  0.00000  0.23570
       7     C     3.09594  3.09594  0.00000 -0.19187
       8     H     0.38060  0.38060  0.00000  0.23881
       9     C     2.88942  2.88942  0.00000  0.22116
      10     H     0.38666  0.38666  0.00000  0.22668
      11     C     3.10049  3.10049  0.00000 -0.20097
      12     N     3.25807  3.25807  0.00000  0.48386
      13     H     0.37605  0.37605  0.00000  0.24789
      14     O     4.22488  4.22488  0.00000 -0.44977
      15     O     4.22251  4.22251  0.00000 -0.44502

   Total alpha = 36.00000, Total beta = 36.00000, Total charge = -0.00000
