  ==> Input File <==

--------------------------------------------------------------------------
set {
	reference rhf
	basis cc-pvtz
}

set_num_threads( 4 )
memory 2 gb

molecule MOL {
0 1

O	 0.395927	 1.296676	 -0.000076
C	 0.503051	 0.114301	 -0.000074
C	 -0.701422	 -0.805636	 -0.000109
C	 1.858118	 -0.556123	 0.000212
C	 -0.817140	 -1.675434	 -1.241939
H	 -0.647334	 -1.416343	 0.897414
H	 -1.586401	 -0.186844	 0.123777
H	 0.052212	 -2.309414	 -1.353855
H	 -1.695547	 -2.306500	 -1.178599
H	 -0.895185	 -1.069030	 -2.134359
H	 1.961106	 -1.191101	 -0.872843
H	 2.636688	 0.191085	 -0.000109
H	 1.961070	 -1.190284	 0.873873

	symmetry c1
}
set optking {
	frozen_dihedral = ("
		6 3 2 1
	")
}

ee = optimize('scf')
oeprop('DIPOLE', 'QUADRUPOLE', 'MULLIKEN_CHARGES')
f=open( 'psi4out.xyz', 'w' )
f.write( "13  " )
f.write( str(ee) + "\n" )
f.write( MOL.save_string_xyz() )
f.close()
--------------------------------------------------------------------------

    Molecular point group: c1
  Charge       = 0
  Multiplicity = 1
  Basis Set: CC-PVTZ
  Basis Set:
  @DF-RHF Final Energy:  -231.08031791213887
    Total Energy =                       -231.0803179121386961
    Molecular point group: c1
  Basis Set: CC-PVTZ
  Basis Set:
  Basis Set: CC-PVTZ
  Basis Set:
  @DF-RHF Final Energy:  -231.07968021639769
    Total Energy =                       -231.0796802163977191
  Basis Set: CC-PVTZ
  Basis Set:
  Basis Set: CC-PVTZ
  Basis Set:
  @DF-RHF Final Energy:  -231.08047087552609
    Total Energy =                       -231.0804708755260037
  Basis Set: CC-PVTZ
  Basis Set:
  Basis Set: CC-PVTZ
  Basis Set:
  @DF-RHF Final Energy:  -231.08095161467142
    Total Energy =                       -231.0809516146715339
  Basis Set: CC-PVTZ
  Basis Set:
  @DF-RHF Final Energy:  -231.08097543393896
    Total Energy =                       -231.0809754339389031
  @DF-RHF Final Energy:  -231.08099984657187
    Total Energy =                       -231.0809998465720128
  @DF-RHF Final Energy:  -231.08101713191377
    Total Energy =                       -231.0810171319139101
  Basis Set: CC-PVTZ
  Basis Set:
  @DF-RHF Final Energy:  -231.08102012454020
    Total Energy =                       -231.0810201245401458
  Basis Set: CC-PVTZ
  Basis Set:
  Basis Set: CC-PVTZ
  Basis Set:
  @DF-RHF Final Energy:  -231.08102177366570
    Total Energy =                       -231.0810217736658103
  Basis Set: CC-PVTZ
  Basis Set:
  Basis Set: CC-PVTZ
  Basis Set:
  @DF-RHF Final Energy:  -231.08102287985525
    Total Energy =                       -231.0810228798554249
  Basis Set: CC-PVTZ
  Basis Set:
  Charge       = 0
  Multiplicity = 1
  Basis Set: CC-PVTZ
  Basis Set:

    Orbital Energies (a.u.)
    -----------------------

    Doubly Occupied:

       1A    -20.538655     2A    -11.320440     3A    -11.232233
       4A    -11.228652     5A    -11.227217     6A     -1.398336
       7A     -1.068796     8A     -0.995538     9A     -0.888905
      10A     -0.734667    11A     -0.655652    12A     -0.649718
      13A     -0.615629    14A     -0.593805    15A     -0.562261
      16A     -0.543684    17A     -0.530081    18A     -0.504042
      19A     -0.487427    20A     -0.402432

  @DF-RHF Final Energy:  -231.08102289155141

   => Energetics <=

    Nuclear Repulsion Energy =            177.2526970186939366
    One-Electron Energy =                -664.3110959327476621
    Two-Electron Energy =                 255.9773760225022556
    DFT Exchange-Correlation Energy =       0.0000000000000000
    Empirical Dispersion Energy =           0.0000000000000000
    PCM Polarization Energy =               0.0000000000000000
    EFP Energy =                            0.0000000000000000
    Total Energy =                       -231.0810228915514699
    Molecular point group: c1
  Basis Set: CC-PVTZ
  Basis Set:

  -Total Gradient:
     Atom            X                  Y                   Z
    ------   -----------------  -----------------  -----------------
       1        0.000000587518    -0.000005071806    -0.000033441904
       2        0.000004626953     0.000001375622     0.000044229002
       3       -0.000021306810     0.000023904908     0.000004450596
       4        0.000000921059     0.000002405000     0.000004653294
       5       -0.000000750971     0.000003382720     0.000002190495
       6        0.000017439137    -0.000023024974    -0.000014826154
       7        0.000000798351    -0.000000497846    -0.000000735208
       8       -0.000000380768     0.000000475266    -0.000000307842
       9       -0.000000767640    -0.000000691982    -0.000000385411
      10       -0.000000366656    -0.000001411450    -0.000002026601
      11       -0.000000332938    -0.000000881496    -0.000002023716
      12        0.000000538716    -0.000001221748    -0.000000444988
      13       -0.000001005952     0.000001257788    -0.000001331563

  **** Optimization is complete! (in 11 steps) ****
    Final optimized geometry and variables:
    Molecular point group: c1

    Geometry (in Angstrom), charge = 0, multiplicity = 1:

    O            0.143318685787     1.628233041145     0.232842894018
    C            0.252520834911     0.445499960765     0.249476721061
    C           -0.966040379931    -0.455788206576     0.274276639080
    C            1.614712185996    -0.212535614827     0.242383092509
    C           -1.072285402403    -1.373908155017    -0.945739765967
    H           -0.922891824313    -1.058675287476     1.177016072670
    H           -1.834239788416     0.184151269996     0.342356249262
    H           -0.248510251782    -2.074951886674    -0.998718218558
    H           -1.988849035876    -1.947963387504    -0.899546448408
    H           -1.086701988046    -0.799401725916    -1.864687675699
    H            1.807302580126    -0.640378144884    -0.735216779308
    H            2.371865144403     0.526041171094     0.456272765388
    H            1.664625815995    -1.018047387040     0.965644219348

  Mulliken Charges: (a.u.)
   Center  Symbol    Alpha    Beta     Spin     Total
       1     O     4.17138  4.17138  0.00000 -0.34277
       2     C     2.85463  2.85463  0.00000  0.29074
       3     C     3.09729  3.09729  0.00000 -0.19459
       4     C     3.16041  3.16041  0.00000 -0.32082
       5     C     3.15622  3.15622  0.00000 -0.31243
       6     H     0.44989  0.44989  0.00000  0.10023
       7     H     0.43757  0.43757  0.00000  0.12487
       8     H     0.45284  0.45284  0.00000  0.09433
       9     H     0.44245  0.44245  0.00000  0.11511
      10     H     0.44660  0.44660  0.00000  0.10680
      11     H     0.44786  0.44786  0.00000  0.10428
      12     H     0.43295  0.43295  0.00000  0.13410
      13     H     0.44992  0.44992  0.00000  0.10016

   Total alpha = 20.00000, Total beta = 20.00000, Total charge = -0.00000
