  ==> Input File <==

--------------------------------------------------------------------------
set {
	reference rhf
	basis 6-31G*
}

set_num_threads( 1 )
memory 2 gb

molecule MOL {
0 1

H	 1.275169	 1.751947	 -3.618045
O	 2.193831	 1.528911	 -3.580790
C	 2.749562	 2.009217	 -2.383075
C	 2.314268	 1.214110	 -1.157086
H	 3.822426	 1.934010	 -2.505477
H	 2.512780	 3.064110	 -2.249232
C	 0.813848	 1.292756	 -0.864815
H	 2.604693	 0.176272	 -1.298198
H	 2.870077	 1.585049	 -0.297523
C	 0.417350	 0.529255	 0.401943
H	 0.263443	 0.897374	 -1.713987
H	 0.519801	 2.337124	 -0.759114
C	 -1.061682	 0.646471	 0.788033
H	 0.675869	 -0.521327	 0.282392
H	 1.019490	 0.896741	 1.230243
C	 -2.037799	 -0.007733	 -0.193645
H	 -1.196547	 0.190489	 1.766659
H	 -1.319875	 1.697682	 0.906902
C	 -3.489788	 0.042957	 0.286558
H	 -1.748131	 -1.045920	 -0.349760
H	 -1.972261	 0.476246	 -1.165124
C	 -4.216917	 1.317354	 -0.141063
H	 -4.025645	 -0.823308	 -0.095450
H	 -3.513059	 -0.038752	 1.371301
H	 -4.239342	 1.411634	 -1.223113
H	 -5.243387	 1.322503	 0.212445
H	 -3.726170	 2.201406	 0.256408

	symmetry c1
}
set optking {
	frozen_dihedral = ("
		14 10 7 4,
		14 10 13 16,
		10 7 4 8,
		8 4 3 2,
		10 13 16 20,
		4 3 2 1
	")
}

ee = energy('scf')
oeprop('DIPOLE', 'QUADRUPOLE', 'MULLIKEN_CHARGES')
f=open( 'psi4out.xyz', 'w' )
f.write( "27  " )
f.write( str(ee) + "\n" )
f.write( MOL.save_string_xyz() )
f.close()
--------------------------------------------------------------------------

    Molecular point group: c1

    Geometry (in Angstrom), charge = 0, multiplicity = 1:

       Center              X                  Y                   Z               Mass
    ------------   -----------------  -----------------  -----------------  -----------------
           H          1.509952977489     0.778826607677    -2.805406949857     1.007825032070
           O          2.428614977489     0.555790607677    -2.768151949857    15.994914619560
           C          2.984345977489     1.036096607677    -1.570436949857    12.000000000000
           C          2.549051977489     0.240989607677    -0.344447949857    12.000000000000
           H          4.057209977489     0.960889607677    -1.692838949857     1.007825032070
           H          2.747563977489     2.090989607677    -1.436593949857     1.007825032070
           C          1.048631977489     0.319635607677    -0.052176949857    12.000000000000
           H          2.839476977489    -0.796848392323    -0.485559949857     1.007825032070
           H          3.104860977489     0.611928607677     0.515115050143     1.007825032070
           C          0.652133977489    -0.443865392323     1.214581050143    12.000000000000
           H          0.498226977489    -0.075746392323    -0.901348949857     1.007825032070
           H          0.754584977489     1.364003607677     0.053524050143     1.007825032070
           C         -0.826898022511    -0.326649392323     1.600671050143    12.000000000000
           H          0.910652977489    -1.494447392323     1.095030050143     1.007825032070
           H          1.254273977489    -0.076379392323     2.042881050143     1.007825032070
           C         -1.803015022511    -0.980853392323     0.618993050143    12.000000000000
           H         -0.961763022511    -0.782631392323     2.579297050143     1.007825032070
           H         -1.085091022511     0.724561607677     1.719540050143     1.007825032070
           C         -3.255004022511    -0.930163392323     1.099196050143    12.000000000000
           H         -1.513347022511    -2.019040392323     0.462878050143     1.007825032070
           H         -1.737477022511    -0.496874392323    -0.352485949857     1.007825032070
           C         -3.982133022511     0.344233607677     0.671575050143    12.000000000000
           H         -3.790861022511    -1.796428392323     0.717188050143     1.007825032070
           H         -3.278275022511    -1.011872392323     2.183939050143     1.007825032070
           H         -4.004558022511     0.438513607677    -0.410474949857     1.007825032070
           H         -5.008603022511     0.349382607677     1.025083050143     1.007825032070
           H         -3.491386022511     1.228285607677     1.069046050143     1.007825032070

  Charge       = 0
  Multiplicity = 1
  Basis Set: 6-31G*
  Basis Set:

    Orbital Energies (a.u.)
    -----------------------

    Doubly Occupied:

       1A    -20.552268     2A    -11.267027     3A    -11.219774
       4A    -11.217176     5A    -11.215742     6A    -11.215322
       7A    -11.215172     8A    -11.213565     9A    -11.209786
      10A     -1.359012    11A     -1.095696    12A     -1.061868
      13A     -1.010274    14A     -0.947259    15A     -0.890630
      16A     -0.824871    17A     -0.800608    18A     -0.773952
      19A     -0.693675    20A     -0.649978    21A     -0.623658
      22A     -0.617861    23A     -0.614008    24A     -0.588838
      25A     -0.580029    26A     -0.553387    27A     -0.534780
      28A     -0.528100    29A     -0.512829    30A     -0.491340
      31A     -0.487070    32A     -0.476397    33A     -0.470865
      34A     -0.453907    35A     -0.451792    36A     -0.441523
      37A     -0.422739

  @DF-RHF Final Energy:  -388.27848059725380

   => Energetics <=

    Nuclear Repulsion Energy =            463.2112095303611454
    One-Electron Energy =               -1444.4140694591665124
    Two-Electron Energy =                 592.9243793315515632
    DFT Exchange-Correlation Energy =       0.0000000000000000
    Empirical Dispersion Energy =           0.0000000000000000
    PCM Polarization Energy =               0.0000000000000000
    EFP Energy =                            0.0000000000000000
    Total Energy =                       -388.2784805972537470

  Mulliken Charges: (a.u.)
   Center  Symbol    Alpha    Beta     Spin     Total
       1     H     0.27991  0.27991  0.00000  0.44019
       2     O     4.37095  4.37095  0.00000 -0.74190
       3     C     2.99737  2.99737  0.00000  0.00527
       4     C     3.16093  3.16093  0.00000 -0.32185
       5     H     0.41445  0.41445  0.00000  0.17110
       6     H     0.43205  0.43205  0.00000  0.13591
       7     C     3.16328  3.16328  0.00000 -0.32657
       8     H     0.41497  0.41497  0.00000  0.17006
       9     H     0.42435  0.42435  0.00000  0.15131
      10     C     3.15193  3.15193  0.00000 -0.30387
      11     H     0.42289  0.42289  0.00000  0.15422
      12     H     0.42548  0.42548  0.00000  0.14903
      13     C     3.15475  3.15475  0.00000 -0.30949
      14     H     0.42157  0.42157  0.00000  0.15686
      15     H     0.42160  0.42160  0.00000  0.15680
      16     C     3.15553  3.15553  0.00000 -0.31107
      17     H     0.42084  0.42084  0.00000  0.15833
      18     H     0.42371  0.42371  0.00000  0.15258
      19     C     3.15378  3.15378  0.00000 -0.30757
      20     H     0.42129  0.42129  0.00000  0.15741
      21     H     0.42282  0.42282  0.00000  0.15436
      22     C     3.24011  3.24011  0.00000 -0.48023
      23     H     0.42015  0.42015  0.00000  0.15970
      24     H     0.42208  0.42208  0.00000  0.15583
      25     H     0.42208  0.42208  0.00000  0.15583
      26     H     0.41930  0.41930  0.00000  0.16140
      27     H     0.42181  0.42181  0.00000  0.15637

   Total alpha = 37.00000, Total beta = 37.00000, Total charge =  0.00000
