  ==> Input File <==

--------------------------------------------------------------------------
set {
	reference rhf
	basis 6-31G*
}

set_num_threads( 1 )
memory 2 gb

molecule MOL {
0 1

H	 -2.212285	 -1.613118	 -1.937202
N	 -1.311338	 -1.643622	 -1.500924
C	 -1.352440	 -1.018575	 -0.190683
H	 -0.676654	 -1.141473	 -2.090951
C	 0.025911	 -1.040477	 0.436057
H	 -1.706144	 0.013226	 -0.207467
H	 -2.028851	 -1.584441	 0.442599
O	 0.874168	 -0.245412	 -0.342030
H	 -0.017456	 -0.655892	 1.454807
H	 0.395091	 -2.063047	 0.472002
C	 2.202317	 -0.244239	 0.074611
H	 2.711377	 -1.041390	 -0.449894
H	 2.692099	 0.699270	 -0.159667
H	 2.283185	 -0.418429	 1.145558

	symmetry c1
}
set optking {
	frozen_dihedral = ("
		8 5 3 6,
		6 3 2 4,
		11 8 5 3
	")
}

ee = energy('scf')
oeprop('DIPOLE', 'QUADRUPOLE', 'MULLIKEN_CHARGES')
f=open( 'psi4out.xyz', 'w' )
f.write( "14  " )
f.write( str(ee) + "\n" )
f.write( MOL.save_string_xyz() )
f.close()
--------------------------------------------------------------------------

    Molecular point group: c1

    Geometry (in Angstrom), charge = 0, multiplicity = 1:

       Center              X                  Y                   Z               Mass
    ------------   -----------------  -----------------  -----------------  -----------------
           H         -2.313267130134    -0.781250588538    -1.617638907889     1.007825032070
           N         -1.412320130134    -0.811754588538    -1.181360907889    14.003074004780
           C         -1.453422130134    -0.186707588538     0.128880092111    12.000000000000
           H         -0.777636130134    -0.309605588538    -1.771387907889     1.007825032070
           C         -0.075071130134    -0.208609588538     0.755620092111    12.000000000000
           H         -1.807126130134     0.845093411462     0.112096092111     1.007825032070
           H         -2.129833130134    -0.752573588538     0.762162092111     1.007825032070
           O          0.773185869866     0.586455411462    -0.022466907889    15.994914619560
           H         -0.118438130134     0.175975411462     1.774370092111     1.007825032070
           H          0.294108869866    -1.231179588538     0.791565092111     1.007825032070
           C          2.101334869866     0.587628411462     0.394174092111    12.000000000000
           H          2.610394869866    -0.209522588538    -0.130330907889     1.007825032070
           H          2.591116869866     1.531137411462     0.159896092111     1.007825032070
           H          2.182202869866     0.413438411462     1.465121092111     1.007825032070

  Charge       = 0
  Multiplicity = 1
  Basis Set: 6-31G*
  Basis Set:

    Orbital Energies (a.u.)
    -----------------------

    Doubly Occupied:

       1A    -20.554967     2A    -15.528369     3A    -11.266239
       4A    -11.265792     5A    -11.240696     6A     -1.380477
       7A     -1.173531     8A     -0.998459     9A     -0.907110
      10A     -0.815727    11A     -0.683728    12A     -0.673947
      13A     -0.642019    14A     -0.610169    15A     -0.607047
      16A     -0.539542    17A     -0.533133    18A     -0.496358
      19A     -0.473001    20A     -0.413668    21A     -0.380071

  @DF-RHF Final Energy:  -248.12234031533225

   => Energetics <=

    Nuclear Repulsion Energy =            194.7178084165038570
    One-Electron Energy =                -723.3121692751562932
    Two-Electron Energy =                 280.4720205433204683
    DFT Exchange-Correlation Energy =       0.0000000000000000
    Empirical Dispersion Energy =           0.0000000000000000
    PCM Polarization Energy =               0.0000000000000000
    EFP Energy =                            0.0000000000000000
    Total Energy =                       -248.1223403153319396

  Mulliken Charges: (a.u.)
   Center  Symbol    Alpha    Beta     Spin     Total
       1     H     0.33285  0.33285  0.00000  0.33430
       2     N     3.92532  3.92532  0.00000 -0.85065
       3     C     3.06882  3.06882  0.00000 -0.13765
       4     H     0.32366  0.32366  0.00000  0.35269
       5     C     2.99101  2.99101  0.00000  0.01799
       6     H     0.42656  0.42656  0.00000  0.14689
       7     H     0.42053  0.42053  0.00000  0.15894
       8     O     4.31124  4.31124  0.00000 -0.62249
       9     H     0.43027  0.43027  0.00000  0.13947
      10     H     0.42279  0.42279  0.00000  0.15441
      11     C     3.07807  3.07807  0.00000 -0.15615
      12     H     0.42320  0.42320  0.00000  0.15359
      13     H     0.41560  0.41560  0.00000  0.16879
      14     H     0.43007  0.43007  0.00000  0.13986

   Total alpha = 21.00000, Total beta = 21.00000, Total charge =  0.00000
