                              Psi4 1.0.54 Driver

  ==> Input File <==

--------------------------------------------------------------------------
set {
	reference rhf
	basis cc-pvtz
}

set_num_threads( 4 )
memory 2 gb

molecule MOL {
0 1

H	 2.311672	 1.588164	 1.386843
N	 1.446418	 1.094002	 1.334601
C	 1.263552	 0.494993	 0.021953
H	 0.719936	 1.750472	 1.531088
C	 -0.016533	 -0.325589	 -0.026925
H	 2.111884	 -0.154321	 -0.167040
H	 1.248211	 1.231764	 -0.782359
C	 -1.280353	 0.525521	 0.047747
H	 -0.016686	 -0.912532	 -0.939714
H	 -0.014099	 -1.037598	 0.796369
C	 -2.560681	 -0.301323	 -0.007747
H	 -1.279957	 1.241025	 -0.770189
H	 -1.270445	 1.110526	 0.963468
H	 -2.617064	 -0.872870	 -0.928010
H	 -3.439525	 0.331102	 0.043462
H	 -2.609427	 -1.002736	 0.818585

	symmetry c1
}
set optking {
	frozen_dihedral = ("
		6 3 5 9
	")
}

ee,wfn = optimize('scf', return_wfn=True)
oeprop( wfn, 'DIPOLE', 'QUADRUPOLE', 'MULLIKEN_CHARGES')
f=open( 'psi4out.xyz', 'w' )
f.write( "16  " )
f.write( str(ee) + "\n" )
f.write( MOL.save_string_xyz() )
f.close()
--------------------------------------------------------------------------

    Molecular point group: c1
  Charge       = 0
  Multiplicity = 1
  Basis Set: CC-PVTZ
  Basis Set:
  @DF-RHF Final Energy:  -212.39889247287513
    Total Energy =                       -212.3988924728751044
    Molecular point group: c1
  Basis Set: CC-PVTZ
  Basis Set:
  Basis Set: CC-PVTZ
  Basis Set:
  @DF-RHF Final Energy:  -212.39917564279668
    Total Energy =                       -212.3991756427964219
  Basis Set: CC-PVTZ
  Basis Set:
  Basis Set: CC-PVTZ
  Basis Set:
  @DF-RHF Final Energy:  -212.39925857137484
    Total Energy =                       -212.3992585713748440
  Basis Set: CC-PVTZ
  Basis Set:
  Basis Set: CC-PVTZ
  Basis Set:
  @DF-RHF Final Energy:  -212.39926503927600
    Total Energy =                       -212.3992650392757469
  Basis Set: CC-PVTZ
  Basis Set:
  Basis Set: CC-PVTZ
  Basis Set:
  @DF-RHF Final Energy:  -212.39926613956936
    Total Energy =                       -212.3992661395694199
  Basis Set: CC-PVTZ
  Basis Set:
  Charge       = 0
  Multiplicity = 1
  Basis Set: CC-PVTZ
  Basis Set:

    Orbital Energies (a.u.)
    -----------------------

    Doubly Occupied:

       1A    -15.526702     2A    -11.238481     3A    -11.212780
       4A    -11.207258     5A    -11.205684     6A     -1.178503
       7A     -1.058415     8A     -0.961621     9A     -0.851182
      10A     -0.781950    11A     -0.666099    12A     -0.647267
      13A     -0.596345    14A     -0.586789    15A     -0.550877
      16A     -0.524903    17A     -0.515138    18A     -0.472125
      19A     -0.466484    20A     -0.453591    21A     -0.383920

  @DF-RHF Final Energy:  -212.39926626276383

   => Energetics <=

    Nuclear Repulsion Energy =            188.9621158979191478
    One-Electron Energy =                -660.5505382590035879
    Two-Electron Energy =                 259.1891560983208365
    DFT Exchange-Correlation Energy =       0.0000000000000000
    Empirical Dispersion Energy =           0.0000000000000000
    PCM Polarization Energy =               0.0000000000000000
    EFP Energy =                            0.0000000000000000
    Total Energy =                       -212.3992662627636037
    Molecular point group: c1
  Basis Set: CC-PVTZ
  Basis Set:

  -Total Gradient:
     Atom            X                  Y                   Z
    ------   -----------------  -----------------  -----------------
       1       -0.000011342179    -0.000001831497    -0.000002107138
       2       -0.000024070745     0.000009016937     0.000007866681
       3        0.000291249457    -0.000486237792     0.001430394972
       4        0.000004692491     0.000010743240     0.000015856485
       5       -0.000675457694     0.001092259560    -0.000867246976
       6       -0.000120144906     0.000216741689    -0.001103743165
       7       -0.000003294391    -0.000002873491    -0.000001704219
       8        0.000009857776     0.000005147503     0.000016895711
       9        0.000531915550    -0.000841545605     0.000502609694
      10        0.000003762857    -0.000002737973     0.000006460058
      11       -0.000009092062    -0.000004778150    -0.000011408269
      12       -0.000001874510    -0.000002080299     0.000006535023
      13        0.000002105340     0.000008829145     0.000002822325
      14       -0.000002895937    -0.000002052027    -0.000002244170
      15        0.000001769096    -0.000002748856    -0.000002872166
      16        0.000002819856     0.000004147616     0.000001885154

  **** Optimization is complete! (in 6 steps) ****
    Final optimized geometry and variables:
    Molecular point group: c1

    Geometry (in Angstrom), charge = 0, multiplicity = 1:

    H            2.630593079061     1.181257131574     1.053560762284
    N            1.718434867298     0.778998262109     1.014375924064
    C            1.469157397751     0.190392112767    -0.293294129722
    H            1.070198015853     1.510828530799     1.213121747914
    C            0.183267804374    -0.626547174475    -0.317352429806
    H            2.300667827633    -0.464996546369    -0.524942263032
    H            1.433486628153     0.934427469116    -1.091199684090
    C           -1.094105219410     0.200548355968    -0.194804400390
    H            0.154943903010    -1.192811283507    -1.244895575399
    H            0.223534996845    -1.351746867410     0.489608099975
    C           -2.358644907435    -0.648578581807    -0.275285465716
    H           -1.113901918761     0.951103730504    -0.981227880844
    H           -1.093478022983     0.739528035483     0.747712448691
    H           -2.415104946771    -1.176904280595    -1.221243047296
    H           -3.249493379573    -0.037762093268    -0.183791335483
    H           -2.381821688394    -1.388755795021     0.517345806807

  Mulliken Charges: (a.u.)
   Center  Symbol    Alpha    Beta     Spin     Total
       1     H     0.42902  0.42902  0.00000  0.14196
       2     N     3.68955  3.68955  0.00000 -0.37910
       3     C     3.03846  3.03846  0.00000 -0.07692
       4     H     0.42991  0.42991  0.00000  0.14017
       5     C     3.08213  3.08213  0.00000 -0.16426
       6     H     0.45171  0.45171  0.00000  0.09657
       7     H     0.46547  0.46547  0.00000  0.06905
       8     C     3.08817  3.08817  0.00000 -0.17634
       9     H     0.45493  0.45493  0.00000  0.09015
      10     H     0.45215  0.45215  0.00000  0.09570
      11     C     3.14929  3.14929  0.00000 -0.29858
      12     H     0.45559  0.45559  0.00000  0.08882
      13     H     0.45576  0.45576  0.00000  0.08849
      14     H     0.45522  0.45522  0.00000  0.08957
      15     H     0.44917  0.44917  0.00000  0.10165
      16     H     0.45346  0.45346  0.00000  0.09308

   Total alpha = 21.00000, Total beta = 21.00000, Total charge =  0.00000

*** Psi4 exiting successfully. Buy a developer a beer!
