  ==> Input File <==

--------------------------------------------------------------------------
set {
	reference rhf
	basis 6-31G*
}

set_num_threads( 4 )
memory 2 gb

molecule MOL {
0 1

O	 -2.847792	 1.255502	 -0.339710
C	 -2.668563	 0.129746	 -0.000350
C	 -3.764801	 -0.788578	 0.475268
O	 -1.481751	 -0.454642	 0.000584
H	 -4.509414	 -0.875792	 -0.306913
H	 -3.387166	 -1.766890	 0.733601
H	 -4.245250	 -0.339930	 1.336525
C	 -0.334255	 0.388708	 0.000906
C	 0.891947	 -0.504646	 0.000751
H	 -0.365390	 1.025305	 -0.873475
H	 -0.365484	 1.024911	 0.875569
C	 2.191998	 0.301789	 0.000897
H	 0.855148	 -1.151283	 -0.871571
H	 0.855132	 -1.151660	 0.872805
C	 3.441114	 -0.581407	 0.000108
H	 2.215074	 0.954890	 -0.869742
H	 2.215465	 0.953923	 0.872248
C	 4.739576	 0.224112	 -0.001102
H	 3.419457	 -1.233487	 -0.870178
H	 3.420834	 -1.233096	 0.870717
H	 4.804918	 0.861552	 -0.878265
H	 5.606527	 -0.429058	 -0.001824
H	 4.806469	 0.861674	 0.875853

	symmetry c1
}
set optking {
	frozen_dihedral = ("
		1 2 4 8
	")
}

ee = optimize('scf')
oeprop('DIPOLE', 'QUADRUPOLE', 'MULLIKEN_CHARGES')
f=open( 'psi4out.xyz', 'w' )
f.write( "23  " )
f.write( str(ee) + "\n" )
f.write( MOL.save_string_xyz() )
f.close()
--------------------------------------------------------------------------

    Molecular point group: c1
  Charge       = 0
  Multiplicity = 1
  Basis Set: 6-31G*
  Basis Set:
  @DF-RHF Final Energy:  -422.97686279003602
    Total Energy =                       -422.9768627900363072
    Molecular point group: c1
  Basis Set: 6-31G*
  Basis Set:
  Basis Set: 6-31G*
  Basis Set:
  @DF-RHF Final Energy:  -422.97376695179787
    Total Energy =                       -422.9737669517978702
  Basis Set: 6-31G*
  Basis Set:
  Basis Set: 6-31G*
  Basis Set:
  @DF-RHF Final Energy:  -422.97712970237046
    Total Energy =                       -422.9771297023712577
  Basis Set: 6-31G*
  Basis Set:
  Basis Set: 6-31G*
  Basis Set:
  @DF-RHF Final Energy:  -422.97717107094877
    Total Energy =                       -422.9771710709487706
  Basis Set: 6-31G*
  Basis Set:
  @DF-RHF Final Energy:  -422.97718004541395
    Total Energy =                       -422.9771800454140021
  @DF-RHF Final Energy:  -422.97719827085700
    Total Energy =                       -422.9771982708568885
  @DF-RHF Final Energy:  -422.97719883284663
    Total Energy =                       -422.9771988328466250
  @DF-RHF Final Energy:  -422.97719835580085
    Total Energy =                       -422.9771983558009651
  @DF-RHF Final Energy:  -422.97719867934120
    Total Energy =                       -422.9771986793421092
  @DF-RHF Final Energy:  -422.97719809505685
    Total Energy =                       -422.9771980950567922
  @DF-RHF Final Energy:  -422.97719862076366
    Total Energy =                       -422.9771986207636019
  @DF-RHF Final Energy:  -422.97719871368906
    Total Energy =                       -422.9771987136889493
  @DF-RHF Final Energy:  -422.97719853806149
    Total Energy =                       -422.9771985380618844
  @DF-RHF Final Energy:  -422.97719860148680
    Total Energy =                       -422.9771986014874301
  @DF-RHF Final Energy:  -422.97719868371746
    Total Energy =                       -422.9771986837178019
  @DF-RHF Final Energy:  -422.97719867989764
    Total Energy =                       -422.9771986798979242
  @DF-RHF Final Energy:  -422.97719865196416
    Total Energy =                       -422.9771986519642724
  @DF-RHF Final Energy:  -422.97718079834408
    Total Energy =                       -422.9771807983443068
  @DF-RHF Final Energy:  -422.97715459022754
    Total Energy =                       -422.9771545902273147
  @DF-RHF Final Energy:  -422.97714582285124
    Total Energy =                       -422.9771458228509573
  @DF-RHF Final Energy:  -422.97719761811737
    Total Energy =                       -422.9771976181173159
  @DF-RHF Final Energy:  -422.97719766200186
    Total Energy =                       -422.9771976620014584
  @DF-RHF Final Energy:  -422.97719766451416
    Total Energy =                       -422.9771976645142786
  @DF-RHF Final Energy:  -422.97719766415213
    Total Energy =                       -422.9771976641527544
  @DF-RHF Final Energy:  -422.97719767462161
    Total Energy =                       -422.9771976746214932
  @DF-RHF Final Energy:  -422.97719735588356
    Total Energy =                       -422.9771973558835043
  @DF-RHF Final Energy:  -422.97719780516957
    Total Energy =                       -422.9771978051700216
  @DF-RHF Final Energy:  -422.97719783456120
    Total Energy =                       -422.9771978345611387
  @DF-RHF Final Energy:  -422.97719782633328
    Total Energy =                       -422.9771978263328265
  @DF-RHF Final Energy:  -422.97719782663057
    Total Energy =                       -422.9771978266302312
  @DF-RHF Final Energy:  -422.97719782652331
    Total Energy =                       -422.9771978265233656
  @DF-RHF Final Energy:  -422.97719781409802
    Total Energy =                       -422.9771978140972806
  @DF-RHF Final Energy:  -422.97719777788171
    Total Energy =                       -422.9771977778810879
  @DF-RHF Final Energy:  -422.97719775440419
    Total Energy =                       -422.9771977544046422
  @DF-RHF Final Energy:  -422.97719772483680
    Total Energy =                       -422.9771977248373105
  @DF-RHF Final Energy:  -422.97719763398470
    Total Energy =                       -422.9771976339851562
  Basis Set: 6-31G*
  Basis Set:
  @DF-RHF Final Energy:  -422.97719757624657
    Total Energy =                       -422.9771975762465672
  Basis Set: 6-31G*
  Basis Set:
  Basis Set: 6-31G*
  Basis Set:
  @DF-RHF Final Energy:  -422.97719760469880
    Total Energy =                       -422.9771976046981763
  Basis Set: 6-31G*
  Basis Set:
  Basis Set: 6-31G*
  Basis Set:
  @DF-RHF Final Energy:  -422.97719763827502
    Total Energy =                       -422.9771976382749017
  Basis Set: 6-31G*
  Basis Set:
  Charge       = 0
  Multiplicity = 1
  Basis Set: 6-31G*
  Basis Set:

    Orbital Energies (a.u.)
    -----------------------

    Doubly Occupied:

       1A    -20.600717     2A    -20.541659     3A    -11.374373
       4A    -11.282518     5A    -11.232388     6A    -11.224790
       7A    -11.224181     8A    -11.221986     9A    -11.213182
      10A     -1.466333    11A     -1.361046    12A     -1.094330
      13A     -1.041806    14A     -1.003712    15A     -0.931232
      16A     -0.841773    17A     -0.803007    18A     -0.774457
      19A     -0.692416    20A     -0.684561    21A     -0.666879
      22A     -0.646793    23A     -0.606850    24A     -0.588671
      25A     -0.582613    26A     -0.567143    27A     -0.558876
      28A     -0.538833    29A     -0.521632    30A     -0.504840
      31A     -0.491681    32A     -0.478233    33A     -0.471457
      34A     -0.467075    35A     -0.449889    36A     -0.434875

  @DF-RHF Final Energy:  -422.97719773621759

   => Energetics <=

    Nuclear Repulsion Energy =            449.3871736156639827
    One-Electron Energy =               -1466.3551255810457405
    Two-Electron Energy =                 593.9907542291639402
    DFT Exchange-Correlation Energy =       0.0000000000000000
    Empirical Dispersion Energy =           0.0000000000000000
    PCM Polarization Energy =               0.0000000000000000
    EFP Energy =                            0.0000000000000000
    Total Energy =                       -422.9771977362178177
    Molecular point group: c1
  Basis Set: 6-31G*
  Basis Set:

  -Total Gradient:
     Atom            X                  Y                   Z
    ------   -----------------  -----------------  -----------------
       1       -0.001369381461    -0.001691911579    -0.006180756682
       2        0.002002093282     0.002387991661     0.011911468819
       3        0.000195702599     0.000062636113    -0.000085132429
       4       -0.000999413595    -0.000714684205    -0.011422913417
       5        0.000055530345    -0.000189638573     0.000033855785
       6       -0.000076267849     0.000199892107     0.000110825263
       7       -0.000117824199     0.000095192550     0.000046309778
       8        0.000231862236     0.000064058108     0.006446485205
       9       -0.000195704025     0.000047761710    -0.000246253561
      10       -0.000089989663     0.000249369674    -0.000006761433
      11        0.000061037335    -0.000380478115    -0.000835461218
      12        0.000106797618    -0.000156640770     0.000070729154
      13       -0.000043248232     0.000021910377     0.000102524961
      14        0.000175452011    -0.000057588445     0.000041143558
      15        0.000162154424     0.000009436031     0.000008297347
      16       -0.000077372656     0.000028783910    -0.000002204530
      17       -0.000029946224     0.000088390491    -0.000009899886
      18        0.000032135712    -0.000131230299    -0.000028678815
      19       -0.000010909299     0.000023831056     0.000004148646
      20        0.000008178051    -0.000008223139     0.000025957656
      21       -0.000021046121     0.000006667706     0.000018119863
      22        0.000025550874     0.000038198995     0.000001721535
      23       -0.000025391161     0.000006274631    -0.000003525601

    Molecular point group: c1

    Geometry (in Angstrom), charge = 0, multiplicity = 1:

    O           -2.858176749960     1.278237138778    -0.252709057424
    C           -2.669940669988     0.137063079404     0.021936828172
    C           -3.761275541581    -0.814764719378     0.439286078103
    O           -1.484011759249    -0.449671259417    -0.057432866903
    H           -4.558242254209    -0.780813733748    -0.292540517597
    H           -3.395372393180    -1.825257819320     0.544996621715
    H           -4.170092067093    -0.476464975566     1.385061356372
    C           -0.333453151608     0.390650133770    -0.064101017375
    C            0.890069637106    -0.505571961140    -0.027857882105
    H           -0.348641628306     1.009261884650    -0.951423686343
    H           -0.375197158160     1.045221270559     0.795956277059
    C            2.193411493512     0.295702252546    -0.043306428350
    H            0.856179456245    -1.177123853652    -0.881006723008
    H            0.846204601240    -1.127015395100     0.862416248661
    C            3.439226948896    -0.591425883606    -0.001538398879
    H            2.226458118055     0.917700970291    -0.936036358775
    H            2.211769367746     0.978335229681     0.804688649959
    C            4.740709329332     0.208781871672    -0.020243215258
    H            3.422173610652    -1.273972846552    -0.848186907072
    H            3.408894191235    -1.211604201840     0.891545705298
    H            4.815834883648     0.814541517393    -0.918767100375
    H            5.605225874562    -0.446866364612     0.009656353382
    H            4.802665816379     0.876949007735     0.834046387506

  Mulliken Charges: (a.u.)
   Center  Symbol    Alpha    Beta     Spin     Total
       1     O     4.28114  4.28114  0.00000 -0.56227
       2     C     2.61528  2.61528  0.00000  0.76945
       3     C     3.28840  3.28840  0.00000 -0.57680
       4     O     4.31420  4.31420  0.00000 -0.62841
       5     H     0.39671  0.39671  0.00000  0.20658
       6     H     0.39979  0.39979  0.00000  0.20042
       7     H     0.39846  0.39846  0.00000  0.20307
       8     C     2.99563  2.99563  0.00000  0.00875
       9     C     3.16469  3.16469  0.00000 -0.32938
      10     H     0.40815  0.40815  0.00000  0.18370
      11     H     0.41417  0.41417  0.00000  0.17167
      12     C     3.16013  3.16013  0.00000 -0.32026
      13     H     0.41307  0.41307  0.00000  0.17387
      14     H     0.41502  0.41502  0.00000  0.16996
      15     C     3.15144  3.15144  0.00000 -0.30287
      16     H     0.42033  0.42033  0.00000  0.15934
      17     H     0.42130  0.42130  0.00000  0.15740
      18     C     3.23988  3.23988  0.00000 -0.47976
      19     H     0.42112  0.42112  0.00000  0.15775
      20     H     0.42151  0.42151  0.00000  0.15697
      21     H     0.42069  0.42069  0.00000  0.15862
      22     H     0.41792  0.41792  0.00000  0.16416
      23     H     0.42098  0.42098  0.00000  0.15805

   Total alpha = 36.00000, Total beta = 36.00000, Total charge = -0.00000
