  ==> Input File <==

--------------------------------------------------------------------------
set {
	reference rhf
	basis 6-31G*
}

set_num_threads( 4 )
memory 2 gb

molecule MOL {
0 1

H	 -2.698709	 -0.000305	 0.034435
C	 -1.693833	 0.000034	 0.434417
O	 -0.828952	 -0.000968	 -0.659236
H	 -1.574200	 0.882896	 1.055746
H	 -1.574147	 -0.881698	 1.057355
C	 0.559449	 -0.000018	 -0.420814
C	 0.898809	 -0.143599	 1.061460
C	 1.303012	 -1.014372	 -1.287508
H	 0.862793	 0.991253	 -0.736087
H	 0.316279	 0.556747	 1.650291
H	 1.951053	 0.068043	 1.223406
H	 0.707097	 -1.145730	 1.431789
H	 0.999730	 -0.917242	 -2.324351
H	 2.372804	 -0.839848	 -1.227914
H	 1.121423	 -2.036561	 -0.971285

	symmetry c1
}
set optking {
	frozen_dihedral = ("
		9 6 3 2
	")
}

ee = optimize('scf')
oeprop('DIPOLE', 'QUADRUPOLE', 'MULLIKEN_CHARGES')
f=open( 'psi4out.xyz', 'w' )
f.write( "15  " )
f.write( str(ee) + "\n" )
f.write( MOL.save_string_xyz() )
f.close()
--------------------------------------------------------------------------

    Molecular point group: c1
  Charge       = 0
  Multiplicity = 1
  Basis Set: 6-31G*
  Basis Set:
  @DF-RHF Final Energy:  -232.12878896771008
    Total Energy =                       -232.1287889677099656
    Molecular point group: c1
  Basis Set: 6-31G*
  Basis Set:
  Basis Set: 6-31G*
  Basis Set:
  @DF-RHF Final Energy:  -232.12986393817189
    Total Energy =                       -232.1298639381722069
  Basis Set: 6-31G*
  Basis Set:
  Basis Set: 6-31G*
  Basis Set:
  @DF-RHF Final Energy:  -232.13338041699609
    Total Energy =                       -232.1333804169961468
  Basis Set: 6-31G*
  Basis Set:
  Basis Set: 6-31G*
  Basis Set:
  @DF-RHF Final Energy:  -232.13385854233854
    Total Energy =                       -232.1338585423384302
  Basis Set: 6-31G*
  Basis Set:
  Basis Set: 6-31G*
  Basis Set:
  @DF-RHF Final Energy:  -232.13391200786191
    Total Energy =                       -232.1339120078619089
  Basis Set: 6-31G*
  Basis Set:
  Basis Set: 6-31G*
  Basis Set:
  @DF-RHF Final Energy:  -232.13391611090179
    Total Energy =                       -232.1339161109017368
  Basis Set: 6-31G*
  Basis Set:
  Charge       = 0
  Multiplicity = 1
  Basis Set: 6-31G*
  Basis Set:

    Orbital Energies (a.u.)
    -----------------------

    Doubly Occupied:

       1A    -20.545539     2A    -11.274829     3A    -11.262558
       4A    -11.215930     5A    -11.204535     6A     -1.366866
       7A     -1.053170     8A     -0.949684     9A     -0.914866
      10A     -0.783054    11A     -0.675654    12A     -0.642102
      13A     -0.629550    14A     -0.588294    15A     -0.553047
      16A     -0.541742    17A     -0.529536    18A     -0.506373
      19A     -0.493003    20A     -0.447892    21A     -0.398664

  @DF-RHF Final Energy:  -232.13391638991956

   => Energetics <=

    Nuclear Repulsion Energy =            197.8259322057809584
    One-Electron Energy =                -706.7659256507434975
    Two-Electron Energy =                 276.8060770550430334
    DFT Exchange-Correlation Energy =       0.0000000000000000
    Empirical Dispersion Energy =           0.0000000000000000
    PCM Polarization Energy =               0.0000000000000000
    EFP Energy =                            0.0000000000000000
    Total Energy =                       -232.1339163899194773
    Molecular point group: c1
  Basis Set: 6-31G*
  Basis Set:

  -Total Gradient:
     Atom            X                  Y                   Z
    ------   -----------------  -----------------  -----------------
       1        0.000005765818     0.000005043053    -0.000005043907
       2        0.000120904867    -0.002528977721     0.000117439683
       3       -0.000019453818     0.003651720177    -0.000763853721
       4       -0.000002376168    -0.000011258529     0.000000052704
       5        0.000009302885    -0.000010718395    -0.000003343005
       6       -0.000721006638    -0.000059085888     0.003358320542
       7        0.000020840726     0.000001692085     0.000024510823
       8        0.000047162582     0.000028890432    -0.000035585009
       9        0.000567262306    -0.001097524739    -0.002686471686
      10       -0.000010962483     0.000004938622     0.000010909313
      11       -0.000004907779     0.000000118758     0.000006994114
      12        0.000002994460     0.000009041106    -0.000004744469
      13       -0.000001862361    -0.000022179510    -0.000017773504
      14        0.000002330964    -0.000002948008    -0.000019403787
      15       -0.000015995361     0.000031248556     0.000017991908

  **** Optimization is complete! (in 7 steps) ****
    Final optimized geometry and variables:
    Molecular point group: c1

    Geometry (in Angstrom), charge = 0, multiplicity = 1:

    H           -2.745613794514     0.103034614415     0.066595901910
    C           -1.775682316629     0.192250905353     0.537372246452
    O           -0.839462703827     0.197597483899    -0.493400977797
    H           -1.762598062958     1.112567773092     1.116405845009
    H           -1.647005731679    -0.645923214898     1.215109488885
    C            0.546393575487     0.281285633709    -0.224240390612
    C            0.948759493252     0.103222057392     1.237218690667
    C            1.223865262310    -0.753794475023    -1.114243028628
    H            0.872099385088     1.265199079105    -0.554991519015
    H            0.490083345289     0.841004936460     1.885354438947
    H            2.024184402365     0.220273655492     1.320269492725
    H            0.694965744852    -0.885243461048     1.605905300485
    H            0.917826171032    -0.614521627494    -2.144524141723
    H            2.305155685075    -0.667144327356    -1.061108302485
    H            0.941644833411    -1.757327013213    -0.811042437875

  Mulliken Charges: (a.u.)
   Center  Symbol    Alpha    Beta     Spin     Total
       1     H     0.41229  0.41229  0.00000  0.17542
       2     C     3.07590  3.07590  0.00000 -0.15180
       3     O     4.32006  4.32006  0.00000 -0.64012
       4     H     0.43110  0.43110  0.00000  0.13780
       5     H     0.42950  0.42950  0.00000  0.14100
       6     C     2.89975  2.89975  0.00000  0.20050
       7     C     3.26448  3.26448  0.00000 -0.52895
       8     C     3.23872  3.23872  0.00000 -0.47745
       9     H     0.42578  0.42578  0.00000  0.14844
      10     H     0.41451  0.41451  0.00000  0.17098
      11     H     0.41391  0.41391  0.00000  0.17219
      12     H     0.41645  0.41645  0.00000  0.16711
      13     H     0.41097  0.41097  0.00000  0.17805
      14     H     0.42588  0.42588  0.00000  0.14824
      15     H     0.42070  0.42070  0.00000  0.15861

   Total alpha = 21.00000, Total beta = 21.00000, Total charge =  0.00000
