  ==> Input File <==

--------------------------------------------------------------------------
set {
	reference rhf
	basis cc-pvtz
}

set_num_threads( 4 )
memory 2 gb

molecule MOL {
0 1

H	 3.459101	 0.139266	 -0.762951
C	 2.749156	 -0.051729	 0.031265
C	 1.322304	 0.099773	 -0.484271
H	 2.929445	 -1.053887	 0.403481
H	 2.954281	 0.646699	 0.834672
C	 0.308557	 -0.162619	 0.622645
H	 1.143368	 -0.594400	 -1.295960
H	 1.169532	 1.100095	 -0.870217
N	 -1.069352	 -0.004081	 0.085342
H	 0.371632	 -1.172932	 0.991288
H	 0.400391	 0.548875	 1.426218
O	 -1.864622	 0.532188	 0.781429
O	 -1.286935	 -0.450471	 -0.990918

	symmetry c1
}
set optking {
	frozen_dihedral = ("
		12 9 6 3
	")
}

ee = optimize('scf')
oeprop('DIPOLE', 'QUADRUPOLE', 'MULLIKEN_CHARGES')
f=open( 'psi4out.xyz', 'w' )
f.write( "13  " )
f.write( str(ee) + "\n" )
f.write( MOL.save_string_xyz() )
f.close()
--------------------------------------------------------------------------

    Molecular point group: c1
  Charge       = 0
  Multiplicity = 1
  Basis Set: CC-PVTZ
  Basis Set:
  @DF-RHF Final Energy:  -321.86016390641862
    Total Energy =                       -321.8601639064183928
    Molecular point group: c1
  Basis Set: CC-PVTZ
  Basis Set:
  Basis Set: CC-PVTZ
  Basis Set:
  @DF-RHF Final Energy:  -321.86034168232379
    Total Energy =                       -321.8603416823239627
  Basis Set: CC-PVTZ
  Basis Set:
  Basis Set: CC-PVTZ
  Basis Set:
  @DF-RHF Final Energy:  -321.86078268970527
    Total Energy =                       -321.8607826897048767
  Basis Set: CC-PVTZ
  Basis Set:
  Basis Set: CC-PVTZ
  Basis Set:
  @DF-RHF Final Energy:  -321.86089850485234
    Total Energy =                       -321.8608985048524005
  Basis Set: CC-PVTZ
  Basis Set:
  Basis Set: CC-PVTZ
  Basis Set:
  @DF-RHF Final Energy:  -321.86088449961471
    Total Energy =                       -321.8608844996148264
  Basis Set: CC-PVTZ
  Basis Set:
  Basis Set: CC-PVTZ
  Basis Set:
  @DF-RHF Final Energy:  -321.86090183338592
    Total Energy =                       -321.8609018333860377
  Basis Set: CC-PVTZ
  Basis Set:
  Charge       = 0
  Multiplicity = 1
  Basis Set: CC-PVTZ
  Basis Set:

    Orbital Energies (a.u.)
    -----------------------

    Doubly Occupied:

       1A    -20.591468     2A    -20.590280     3A    -15.837962
       4A    -11.298424     5A    -11.249393     6A    -11.235641
       7A     -1.636889     8A     -1.420962     9A     -1.132380
      10A     -1.027186    11A     -0.884653    12A     -0.829682
      13A     -0.763580    14A     -0.745597    15A     -0.730190
      16A     -0.664220    17A     -0.605736    18A     -0.581768
      19A     -0.551820    20A     -0.522235    21A     -0.510330
      22A     -0.487609    23A     -0.474384    24A     -0.454508

  @DF-RHF Final Energy:  -321.86090197702822

   => Energetics <=

    Nuclear Repulsion Energy =            247.6807231302470882
    One-Electron Energy =                -929.4294524067653356
    Two-Electron Energy =                 359.8878272994900271
    DFT Exchange-Correlation Energy =       0.0000000000000000
    Empirical Dispersion Energy =           0.0000000000000000
    PCM Polarization Energy =               0.0000000000000000
    EFP Energy =                            0.0000000000000000
    Total Energy =                       -321.8609019770282202
    Molecular point group: c1
  Basis Set: CC-PVTZ
  Basis Set:

  -Total Gradient:
     Atom            X                  Y                   Z
    ------   -----------------  -----------------  -----------------
       1        0.000001807579    -0.000003296236     0.000002138639
       2        0.000004624229    -0.000012971370    -0.000010011356
       3        0.000005706351    -0.000341781309    -0.000090708302
       4        0.000000275979    -0.000000624038     0.000003637106
       5       -0.000000006861     0.000005981284    -0.000002963316
       6       -0.000052971901     0.000326224368     0.000206757684
       7       -0.000000238856     0.000005101964     0.000011172069
       8       -0.000000659338     0.000003565666    -0.000003215785
       9        0.000188538417     0.000439893538    -0.000307139879
      10       -0.000002619767     0.000005647995     0.000007162156
      11        0.000012138591     0.000004288052    -0.000008810617
      12       -0.000132243431    -0.000447615465     0.000188287342
      13       -0.000024350996     0.000015585552     0.000003694257

  **** Optimization is complete! (in 7 steps) ****
    Final optimized geometry and variables:
    Molecular point group: c1

    Geometry (in Angstrom), charge = 0, multiplicity = 1:

    H            3.494181049375     0.140698400648    -0.753496617794
    C            2.768078324499    -0.041152441048     0.028073278773
    C            1.351482621454     0.100412527515    -0.520428849196
    H            2.942733961882    -1.038770855949     0.415890351712
    H            2.958171614799     0.665926205310     0.827771261952
    C            0.325629048357    -0.150393414151     0.570258411197
    H            1.190186305273    -0.594826387447    -1.330955797611
    H            1.208412037678     1.097377009337    -0.921684635049
    N           -1.076701960168     0.001972427901     0.084008905056
    H            0.377036114540    -1.166485175845     0.937592948012
    H            0.417714513062     0.530390779589     1.398917728339
    O           -1.843488813089     0.535865428188     0.812279669002
    O           -1.342028860695    -0.446178707566    -0.980442122603

  Mulliken Charges: (a.u.)
   Center  Symbol    Alpha    Beta     Spin     Total
       1     H     0.44142  0.44142  0.00000  0.11715
       2     C     3.15188  3.15188  0.00000 -0.30376
       3     C     3.09461  3.09461  0.00000 -0.18921
       4     H     0.45260  0.45260  0.00000  0.09481
       5     H     0.45244  0.45244  0.00000  0.09512
       6     C     3.04252  3.04252  0.00000 -0.08504
       7     H     0.43349  0.43349  0.00000  0.13302
       8     H     0.44372  0.44372  0.00000  0.11256
       9     N     3.27583  3.27583  0.00000  0.44833
      10     H     0.43720  0.43720  0.00000  0.12559
      11     H     0.43178  0.43178  0.00000  0.13644
      12     O     4.17009  4.17009  0.00000 -0.34018
      13     O     4.17241  4.17241  0.00000 -0.34483

   Total alpha = 24.00000, Total beta = 24.00000, Total charge = -0.00000
