  ==> Input File <==

--------------------------------------------------------------------------
set {
	reference rhf
	basis 6-31G*
}

set_num_threads( 4 )
memory 2 gb

molecule MOL {
0 1

O	 -1.487788	 1.240889	 -0.102860
C	 -1.083277	 0.139568	 0.115197
C	 0.323299	 -0.082943	 0.642902
C	 -1.933017	 -1.084621	 -0.143902
C	 1.355627	 -0.005344	 -0.493127
H	 0.396251	 -1.044647	 1.143147
H	 0.528637	 0.693580	 1.371677
C	 2.759839	 0.310939	 0.018147
H	 1.373631	 -0.946771	 -1.037796
H	 1.037780	 0.756398	 -1.197302
H	 3.468133	 0.366152	 -0.802196
H	 3.109465	 -0.452138	 0.707568
H	 2.780229	 1.263468	 0.539031
H	 -1.393885	 -1.806447	 -0.750509
H	 -2.850323	 -0.799888	 -0.640100
H	 -2.169004	 -1.571158	 0.798858

	symmetry c1
}
set optking {
	frozen_dihedral = ("
		9 5 3 2
	")
}

ee = optimize('scf')
oeprop('DIPOLE', 'QUADRUPOLE', 'MULLIKEN_CHARGES')
f=open( 'psi4out.xyz', 'w' )
f.write( "16  " )
f.write( str(ee) + "\n" )
f.write( MOL.save_string_xyz() )
f.close()
--------------------------------------------------------------------------

    Molecular point group: c1
  Charge       = 0
  Multiplicity = 1
  Basis Set: 6-31G*
  Basis Set:
  @DF-RHF Final Energy:  -270.02873196532840
    Total Energy =                       -270.0287319653284612
    Molecular point group: c1
  Basis Set: 6-31G*
  Basis Set:
  Basis Set: 6-31G*
  Basis Set:
  @DF-RHF Final Energy:  -270.02890674099535
    Total Energy =                       -270.0289067409954100
  Basis Set: 6-31G*
  Basis Set:
  Basis Set: 6-31G*
  Basis Set:
  @DF-RHF Final Energy:  -270.02888972128903
    Total Energy =                       -270.0288897212889765
  Basis Set: 6-31G*
  Basis Set:
  Basis Set: 6-31G*
  Basis Set:
  @DF-RHF Final Energy:  -270.02893136110134
    Total Energy =                       -270.0289313611011721
  Basis Set: 6-31G*
  Basis Set:
  Basis Set: 6-31G*
  Basis Set:
  @DF-RHF Final Energy:  -270.02896133639217
    Total Energy =                       -270.0289613363922854
  Basis Set: 6-31G*
  Basis Set:
  Charge       = 0
  Multiplicity = 1
  Basis Set: 6-31G*
  Basis Set:

    Orbital Energies (a.u.)
    -----------------------

    Doubly Occupied:

       1A    -20.547831     2A    -11.325110     3A    -11.232833
       4A    -11.229710     5A    -11.228465     6A    -11.218255
       7A     -1.393836     8A     -1.080932     9A     -1.013140
      10A     -0.948640    11A     -0.828602    12A     -0.734909
      13A     -0.661207    14A     -0.645334    15A     -0.611798
      16A     -0.607751    17A     -0.574680    18A     -0.556331
      19A     -0.543678    20A     -0.514063    21A     -0.500057
      22A     -0.484356    23A     -0.470942    24A     -0.398179

  @DF-RHF Final Energy:  -270.02896230799138

   => Energetics <=

    Nuclear Repulsion Energy =            236.9644410168014872
    One-Electron Energy =                -835.2855281596187069
    Two-Electron Energy =                 328.2921248348258132
    DFT Exchange-Correlation Energy =       0.0000000000000000
    Empirical Dispersion Energy =           0.0000000000000000
    PCM Polarization Energy =               0.0000000000000000
    EFP Energy =                            0.0000000000000000
    Total Energy =                       -270.0289623079913781
    Molecular point group: c1
  Basis Set: 6-31G*
  Basis Set:

  -Total Gradient:
     Atom            X                  Y                   Z
    ------   -----------------  -----------------  -----------------
       1       -0.000012363009     0.000015252969    -0.000031152119
       2        0.000223729168     0.002648645472     0.000484844681
       3        0.000298343349    -0.003963216820    -0.000017757146
       4        0.000036938505    -0.000001846962    -0.000052330796
       5       -0.003145004548     0.002621616617    -0.002654551419
       6       -0.000024093308    -0.000020408745     0.000049501365
       7       -0.000009632573    -0.000021130778    -0.000014041115
       8       -0.000018071502    -0.000043702478    -0.000054004536
       9        0.002657966000    -0.001235765965     0.002330917457
      10        0.000032139993    -0.000001307792    -0.000066199381
      11        0.000012048595     0.000013386606    -0.000003198783
      12       -0.000000583578    -0.000010594620    -0.000004741958
      13       -0.000040967671    -0.000015901520    -0.000002864504
      14       -0.000009154572    -0.000003491137     0.000012641761
      15        0.000001305183     0.000005592809     0.000007535464
      16       -0.000002600028     0.000012872343     0.000015401028

  **** Optimization is complete! (in 6 steps) ****
    Final optimized geometry and variables:
    Molecular point group: c1

    Geometry (in Angstrom), charge = 0, multiplicity = 1:

    O           -1.500938083810     1.147818332334    -0.087427654962
    C           -1.083582150272     0.048781356080     0.116928737091
    C            0.330610359756    -0.159333028540     0.631928871059
    C           -1.921907682025    -1.181750708273    -0.147871798225
    C            1.363939100306    -0.075897014234    -0.507964502967
    H            0.424426302120    -1.107373816470     1.152820126943
    H            0.520271735766     0.636251015802     1.344336345623
    C            2.771646399652     0.209349132574     0.016677394678
    H            1.387009878802    -1.019035730088    -1.047876391972
    H            1.071180936458     0.700582254633    -1.206132448594
    H            3.491671194685     0.229632578066    -0.795162265508
    H            3.089796736543    -0.552481711890     0.722801581779
    H            2.811907059758     1.169120411619     0.522196394909
    H           -1.384354831634    -1.881263554223    -0.781803563895
    H           -2.853921670351    -0.901343104865    -0.618506763568
    H           -2.129387173854    -1.692566683599     0.788703666009

  Mulliken Charges: (a.u.)
   Center  Symbol    Alpha    Beta     Spin     Total
       1     O     4.26172  4.26172  0.00000 -0.52343
       2     C     2.73910  2.73910  0.00000  0.52179
       3     C     3.19991  3.19991  0.00000 -0.39982
       4     C     3.28925  3.28925  0.00000 -0.57851
       5     C     3.16139  3.16139  0.00000 -0.32278
       6     H     0.41561  0.41561  0.00000  0.16877
       7     H     0.40114  0.40114  0.00000  0.19772
       8     C     3.24005  3.24005  0.00000 -0.48010
       9     H     0.41962  0.41962  0.00000  0.16076
      10     H     0.40481  0.40481  0.00000  0.19038
      11     H     0.41626  0.41626  0.00000  0.16747
      12     H     0.42098  0.42098  0.00000  0.15805
      13     H     0.41645  0.41645  0.00000  0.16709
      14     H     0.40952  0.40952  0.00000  0.18095
      15     H     0.39708  0.39708  0.00000  0.20585
      16     H     0.40710  0.40710  0.00000  0.18581

   Total alpha = 24.00000, Total beta = 24.00000, Total charge =  0.00000
