  ==> Input File <==

--------------------------------------------------------------------------
set {
	reference rhf
	basis 6-31G*
}

set_num_threads( 4 )
memory 2 gb

molecule MOL {
0 1

O	 3.225979	 0.970355	 -0.599647
C	 2.701189	 0.057885	 -0.047330
C	 1.245376	 -0.013843	 0.345420
O	 3.347903	 -1.046386	 0.304773
C	 0.455112	 1.231400	 -0.050772
H	 0.838542	 -0.913825	 -0.103701
H	 1.208210	 -0.175333	 1.419774
C	 -0.998893	 1.219485	 0.433193
H	 0.482531	 1.345121	 -1.130325
H	 0.957290	 2.103070	 0.354729
C	 -1.425053	 -0.056430	 1.164999
H	 -1.643099	 1.355045	 -0.432455
H	 -1.173857	 2.080419	 1.076768
C	 -2.910908	 -0.064921	 1.529914
H	 -1.203874	 -0.919055	 0.538280
H	 -0.839798	 -0.180639	 2.073306
C	 -3.346966	 -1.332910	 2.266248
H	 -3.504473	 0.045634	 0.623993
H	 -3.134936	 0.803284	 2.147756
C	 -4.832889	 -1.335137	 2.623640
H	 -3.122898	 -2.201532	 1.650673
H	 -2.757778	 -1.442825	 3.174299
H	 -5.111279	 -2.246153	 3.144368
H	 -5.450429	 -1.261555	 1.732897
H	 -5.082505	 -0.496632	 3.267748
C	 4.728119	 -1.109107	 -0.004993
H	 4.882018	 -1.033965	 -1.071845
H	 5.068212	 -2.067527	 0.355250
H	 5.265056	 -0.311663	 0.488280

	symmetry c1
}
set optking {
	frozen_dihedral = ("
		11 8 5 9
	")
}

ee = optimize('scf')
oeprop('DIPOLE', 'QUADRUPOLE', 'MULLIKEN_CHARGES')
f=open( 'psi4out.xyz', 'w' )
f.write( "29  " )
f.write( str(ee) + "\n" )
f.write( MOL.save_string_xyz() )
f.close()
--------------------------------------------------------------------------

    Molecular point group: c1
  Charge       = 0
  Multiplicity = 1
  Basis Set: 6-31G*
  Basis Set:
  @DF-RHF Final Energy:  -501.03319924979974
    Total Energy =                       -501.0331992497997362
    Molecular point group: c1
  Basis Set: 6-31G*
  Basis Set:
  Basis Set: 6-31G*
  Basis Set:
  @DF-RHF Final Energy:  -501.03327393290078
    Total Energy =                       -501.0332739329003289
  Basis Set: 6-31G*
  Basis Set:
  Basis Set: 6-31G*
  Basis Set:
  @DF-RHF Final Energy:  -501.03541672335109
    Total Energy =                       -501.0354167233513181
  Basis Set: 6-31G*
  Basis Set:
  Basis Set: 6-31G*
  Basis Set:
  @DF-RHF Final Energy:  -501.03559790698034
    Total Energy =                       -501.0355979069802288
  Basis Set: 6-31G*
  Basis Set:
  @DF-RHF Final Energy:  -501.03536661024998
    Total Energy =                       -501.0353666102499801
  @DF-RHF Final Energy:  -501.03558399262658
    Total Energy =                       -501.0355839926259023
  Basis Set: 6-31G*
  Basis Set:
  @DF-RHF Final Energy:  -501.03561421755603
    Total Energy =                       -501.0356142175560308
  Basis Set: 6-31G*
  Basis Set:
  Basis Set: 6-31G*
  Basis Set:
  @DF-RHF Final Energy:  -501.03561156317267
    Total Energy =                       -501.0356115631720968
  Basis Set: 6-31G*
  Basis Set:
  Basis Set: 6-31G*
  Basis Set:
  @DF-RHF Final Energy:  -501.03561574978778
    Total Energy =                       -501.0356157497874392
  Basis Set: 6-31G*
  Basis Set:
  Charge       = 0
  Multiplicity = 1
  Basis Set: 6-31G*
  Basis Set:

    Orbital Energies (a.u.)
    -----------------------

    Doubly Occupied:

       1A    -20.603121     2A    -20.545080     3A    -11.371775
       4A    -11.280524     5A    -11.234751     6A    -11.218995
       7A    -11.217710     8A    -11.216950     9A    -11.216242
      10A    -11.214756    11A    -11.209340    12A     -1.468883
      13A     -1.362343    14A     -1.095736    15A     -1.065806
      16A     -1.018422    17A     -0.976792    18A     -0.928374
      19A     -0.864846    20A     -0.799029    21A     -0.791310
      22A     -0.758865    23A     -0.698465    24A     -0.683371
      25A     -0.670307    26A     -0.657581    27A     -0.628714
      28A     -0.602499    29A     -0.590700    30A     -0.579924
      31A     -0.566334    32A     -0.553081    33A     -0.531111
      34A     -0.523170    35A     -0.522172    36A     -0.512251
      37A     -0.500797    38A     -0.480299    39A     -0.467331
      40A     -0.459934    41A     -0.457437    42A     -0.448645
      43A     -0.440075    44A     -0.437232

  @DF-RHF Final Energy:  -501.03561579599636

   => Energetics <=

    Nuclear Repulsion Energy =            612.0581381792437696
    One-Electron Energy =               -1895.2453461587256243
    Two-Electron Energy =                 782.1515921834857181
    DFT Exchange-Correlation Energy =       0.0000000000000000
    Empirical Dispersion Energy =           0.0000000000000000
    PCM Polarization Energy =               0.0000000000000000
    EFP Energy =                            0.0000000000000000
    Total Energy =                       -501.0356157959961365
    Molecular point group: c1
  Basis Set: 6-31G*
  Basis Set:

  -Total Gradient:
     Atom            X                  Y                   Z
    ------   -----------------  -----------------  -----------------
       1        0.000000410546     0.000004028145     0.000007953263
       2       -0.000000191958    -0.000002795667    -0.000004420835
       3       -0.000000648942    -0.000008648184    -0.000014449932
       4       -0.000001036709    -0.000003707353    -0.000004721508
       5        0.000087698834    -0.001102926102     0.000183204402
       6        0.000001572981     0.000002300177     0.000009041704
       7        0.000006148276     0.000006485636     0.000004330846
       8       -0.000279542832    -0.000219980266    -0.000963839124
       9        0.000000958857     0.001018375103     0.000106839200
      10       -0.000000811059    -0.000004949869    -0.000002851862
      11        0.000188831930     0.000312828394     0.000679717206
      12       -0.000001153447    -0.000000061167     0.000000535200
      13        0.000001132094     0.000001053033    -0.000000767020
      14        0.000000568046    -0.000001850743    -0.000001678772
      15       -0.000000611527     0.000000080949     0.000001035825
      16       -0.000003265060     0.000000124607    -0.000000023563
      17       -0.000000858336    -0.000000988916    -0.000001225848
      18        0.000001789651    -0.000000505276    -0.000001419795
      19       -0.000001205407    -0.000000509597    -0.000000745568
      20        0.000000473025     0.000000853957     0.000002709253
      21       -0.000001562783    -0.000000040358    -0.000000724253
      22        0.000001214504    -0.000000665876    -0.000001216436
      23        0.000000100876     0.000000389478     0.000000658533
      24        0.000000757181    -0.000000376990     0.000000027158
      25       -0.000000884322     0.000000572972     0.000000337888
      26        0.000000356135     0.000000968566     0.000001364802
      27       -0.000000249913    -0.000000007331     0.000000145044
      28       -0.000000301286    -0.000000079109     0.000000186033
      29        0.000000310636     0.000000031789    -0.000000001837

  **** Optimization is complete! (in 10 steps) ****
    Final optimized geometry and variables:
    Molecular point group: c1

    Geometry (in Angstrom), charge = 0, multiplicity = 1:

    O            2.978434170597     1.144571572559    -1.390130052685
    C            2.530953968219     0.224940294561    -0.784208757441
    C            1.102699141302     0.087577237406    -0.312986470818
    O            3.253057080083    -0.832048886158    -0.432729192042
    C            0.238755202453     1.285478135919    -0.706859808322
    H            0.722327017514    -0.842674084048    -0.721595610150
    H            1.137108605777    -0.052403729590     0.762609601513
    C           -1.250973497658     1.240781590956    -0.265131470610
    H            0.293434165754     1.403642207190    -1.782763789929
    H            0.703662891342     2.177256022856    -0.302849979797
    C           -1.744431450986    -0.019582287481     0.455635079795
    H           -1.876088152648     1.394595277732    -1.140145257800
    H           -1.444860329301     2.090534132079     0.383674189957
    C           -3.225238381798     0.072903315997     0.830429727691
    H           -1.595320402053    -0.894627559472    -0.172985744254
    H           -1.163147038408    -0.187034973965     1.359165087880
    C           -3.745466512033    -1.171069220484     1.553103126481
    H           -3.815232736767     0.237476422719    -0.069654705337
    H           -3.383426416848     0.946151469087     1.461150796950
    C           -5.224509288231    -1.070858690790     1.924820146858
    H           -3.590567295243    -2.044709293207     0.923463174884
    H           -3.158004761677    -1.336591140954     2.453768827629
    H           -5.563743201125    -1.966888400744     2.435368195760
    H           -5.842784724375    -0.939570227201     1.041245564929
    H           -5.406972234815    -0.226070145388     2.583038197719
    C            4.617162063232    -0.833259345633    -0.812093350682
    H            4.712796549392    -0.785596905144    -1.887323744980
    H            5.025835206387    -1.760296144156    -0.441136280930
    H            5.134934159866     0.006854241188    -0.372013765922

  Mulliken Charges: (a.u.)
   Center  Symbol    Alpha    Beta     Spin     Total
       1     O     4.28597  4.28597  0.00000 -0.57193
       2     C     2.60439  2.60439  0.00000  0.79122
       3     C     3.21097  3.21097  0.00000 -0.42193
       4     O     4.30775  4.30775  0.00000 -0.61550
       5     C     3.15793  3.15793  0.00000 -0.31585
       6     H     0.39950  0.39950  0.00000  0.20100
       7     H     0.39979  0.39979  0.00000  0.20042
       8     C     3.15750  3.15750  0.00000 -0.31500
       9     H     0.40926  0.40926  0.00000  0.18147
      10     H     0.40921  0.40921  0.00000  0.18157
      11     C     3.15695  3.15695  0.00000 -0.31391
      12     H     0.41879  0.41879  0.00000  0.16243
      13     H     0.41934  0.41934  0.00000  0.16133
      14     C     3.15016  3.15016  0.00000 -0.30032
      15     H     0.42351  0.42351  0.00000  0.15298
      16     H     0.42336  0.42336  0.00000  0.15328
      17     C     3.15134  3.15134  0.00000 -0.30267
      18     H     0.42341  0.42341  0.00000  0.15317
      19     H     0.42348  0.42348  0.00000  0.15304
      20     C     3.23934  3.23934  0.00000 -0.47869
      21     H     0.42320  0.42320  0.00000  0.15359
      22     H     0.42324  0.42324  0.00000  0.15352
      23     H     0.41922  0.41922  0.00000  0.16157
      24     H     0.42160  0.42160  0.00000  0.15679
      25     H     0.42162  0.42162  0.00000  0.15675
      26     C     3.09231  3.09231  0.00000 -0.18462
      27     H     0.40916  0.40916  0.00000  0.18168
      28     H     0.40852  0.40852  0.00000  0.18296
      29     H     0.40918  0.40918  0.00000  0.18164

   Total alpha = 44.00000, Total beta = 44.00000, Total charge =  0.00000
