  ==> Input File <==

--------------------------------------------------------------------------
set {
	reference rhf
	basis cc-pvtz
}

set_num_threads( 4 )
memory 2 gb

molecule MOL {
0 1

H	 -2.002195	 0.019191	 -2.726409
N	 -1.054841	 -0.093088	 -2.434890
C	 -0.919027	 -1.216264	 -1.525950
H	 -0.777181	 0.750421	 -1.979485
C	 0.518230	 -1.369505	 -1.083845
H	 -1.544565	 -1.133277	 -0.638053
H	 -1.211737	 -2.121471	 -2.046498
O	 0.881195	 -0.248324	 -0.336237
H	 0.625718	 -2.271016	 -0.482267
H	 1.160937	 -1.463168	 -1.956246
C	 2.208068	 -0.234417	 0.074171
H	 2.725499	 -1.027054	 -0.446768
H	 2.688377	 0.712084	 -0.164856
H	 2.295137	 -0.403407	 1.144883

	symmetry c1
}
set optking {
	frozen_dihedral = ("
		5 8 11 13
	")
}

ee = optimize('scf')
oeprop('DIPOLE', 'QUADRUPOLE', 'MULLIKEN_CHARGES')
f=open( 'psi4out.xyz', 'w' )
f.write( "14  " )
f.write( str(ee) + "\n" )
f.write( MOL.save_string_xyz() )
f.close()
--------------------------------------------------------------------------

    Molecular point group: c1
  Charge       = 0
  Multiplicity = 1
  Basis Set: CC-PVTZ
  Basis Set:
  @DF-RHF Final Energy:  -248.22184107291594
    Total Energy =                       -248.2218410729159359
    Molecular point group: c1
  Basis Set: CC-PVTZ
  Basis Set:
  Basis Set: CC-PVTZ
  Basis Set:
  @DF-RHF Final Energy:  -248.22260288554190
    Total Energy =                       -248.2226028855420736
  Basis Set: CC-PVTZ
  Basis Set:
  Basis Set: CC-PVTZ
  Basis Set:
  @DF-RHF Final Energy:  -248.22282798893934
    Total Energy =                       -248.2228279889392866
  Basis Set: CC-PVTZ
  Basis Set:
  Charge       = 0
  Multiplicity = 1
  Basis Set: CC-PVTZ
  Basis Set:

    Orbital Energies (a.u.)
    -----------------------

    Doubly Occupied:

       1A    -20.547456     2A    -15.523083     3A    -11.264423
       4A    -11.263230     5A    -11.239364     6A     -1.380086
       7A     -1.175526     8A     -1.000438     9A     -0.907884
      10A     -0.815395    11A     -0.683840    12A     -0.673793
      13A     -0.645177    14A     -0.611524    15A     -0.607736
      16A     -0.540230    17A     -0.536013    18A     -0.496998
      19A     -0.473337    20A     -0.415267    21A     -0.383488

  @DF-RHF Final Energy:  -248.22282970598371

   => Energetics <=

    Nuclear Repulsion Energy =            194.4431343597212845
    One-Electron Energy =                -722.9633516372697386
    Two-Electron Energy =                 280.2973875715646841
    DFT Exchange-Correlation Energy =       0.0000000000000000
    Empirical Dispersion Energy =           0.0000000000000000
    PCM Polarization Energy =               0.0000000000000000
    EFP Energy =                            0.0000000000000000
    Total Energy =                       -248.2228297059837701
    Molecular point group: c1
  Basis Set: CC-PVTZ
  Basis Set:

  -Total Gradient:
     Atom            X                  Y                   Z
    ------   -----------------  -----------------  -----------------
       1        0.000003320885    -0.000011057764     0.000007030838
       2        0.000005453374    -0.000003480464     0.000007936316
       3       -0.000015256288     0.000016939471     0.000002178429
       4        0.000003673235    -0.000006145962     0.000001423898
       5        0.000304701527     0.000533432080    -0.000984361008
       6        0.000009369041     0.000004144725    -0.000007616236
       7       -0.000009169554    -0.000006827083    -0.000012492432
       8       -0.000212433760    -0.000852493083     0.001152398228
       9        0.000006015686     0.000028761932    -0.000001200556
      10        0.000014767193     0.000017164594     0.000011050075
      11       -0.000474470552     0.000782843905     0.001096246583
      12        0.000032039856    -0.000007158870    -0.000005332898
      13        0.000344161932    -0.000520258867    -0.001284188049
      14       -0.000012172576     0.000024135387     0.000016926816

  **** Optimization is complete! (in 4 steps) ****
    Final optimized geometry and variables:
    Molecular point group: c1

    Geometry (in Angstrom), charge = 0, multiplicity = 1:

    H           -2.334904428671     0.660756153707    -1.655533719855
    N           -1.387436774001     0.534830785647    -1.370091371449
    C           -1.260729257467    -0.595543621753    -0.468913960611
    H           -1.096994024661     1.371629484478    -0.910399892733
    C            0.176826276972    -0.769301484822    -0.035419500308
    H           -1.880579126472    -0.510395669428     0.422727579189
    H           -1.566941582057    -1.494204789285    -0.993269541010
    O            0.555318859129     0.348762250441     0.711313364568
    H            0.272598252153    -1.674616601168     0.561856931535
    H            0.811617145474    -0.868311377751    -0.911980226385
    C            1.883615217665     0.385687179576     1.133719184346
    H            2.479572092323    -0.385103186483     0.655816548093
    H            2.313907177579     1.345648112951     0.876324384837
    H            1.943907123900     0.247027288935     2.207940082967

  Mulliken Charges: (a.u.)
   Center  Symbol    Alpha    Beta     Spin     Total
       1     H     0.43034  0.43034  0.00000  0.13931
       2     N     3.69429  3.69429  0.00000 -0.38858
       3     C     3.02404  3.02404  0.00000 -0.04808
       4     H     0.42218  0.42218  0.00000  0.15563
       5     C     2.96795  2.96795  0.00000  0.06410
       6     H     0.46482  0.46482  0.00000  0.07036
       7     H     0.45875  0.45875  0.00000  0.08250
       8     O     4.18448  4.18448  0.00000 -0.36896
       9     H     0.47014  0.47014  0.00000  0.05972
      10     H     0.46830  0.46830  0.00000  0.06340
      11     C     3.02718  3.02718  0.00000 -0.05436
      12     H     0.47205  0.47205  0.00000  0.05589
      13     H     0.45505  0.45505  0.00000  0.08989
      14     H     0.46042  0.46042  0.00000  0.07915

   Total alpha = 21.00000, Total beta = 21.00000, Total charge = -0.00000
