  ==> Input File <==

--------------------------------------------------------------------------
set {
	reference rhf
	basis 6-31G*
}

set_num_threads( 4 )
memory 2 gb

molecule MOL {
0 1

H	 1.772027	 0.894200	 0.800476
C	 0.911449	 0.984041	 0.151909
O	 0.000000	 0.000000	 0.521119
H	 0.488735	 1.981289	 0.263713
H	 1.234324	 0.861303	 -0.880746
C	 -1.165642	 0.000000	 -0.238270
H	 -1.228672	 0.883184	 -0.872070
H	 -2.003012	 0.000000	 0.445920
H	 -1.228672	 -0.883184	 -0.872070

	symmetry c1
}
set optking {
	frozen_dihedral = ("
		2 3 6 7
	")
}

ee = optimize('scf')
oeprop('DIPOLE', 'QUADRUPOLE', 'MULLIKEN_CHARGES')
f=open( 'psi4out.xyz', 'w' )
f.write( "9  " )
f.write( str(ee) + "\n" )
f.write( MOL.save_string_xyz() )
f.close()
--------------------------------------------------------------------------

    Molecular point group: c1
  Charge       = 0
  Multiplicity = 1
  Basis Set: 6-31G*
  Basis Set:
  @DF-RHF Final Energy:  -154.06037498824628
    Total Energy =                       -154.0603749882462239
    Molecular point group: c1
  Basis Set: 6-31G*
  Basis Set:
  Basis Set: 6-31G*
  Basis Set:
  @DF-RHF Final Energy:  -154.06068463587678
    Total Energy =                       -154.0606846358767541
  Basis Set: 6-31G*
  Basis Set:
  Basis Set: 6-31G*
  Basis Set:
  @DF-RHF Final Energy:  -154.06079858386676
    Total Energy =                       -154.0607985838668128
  Basis Set: 6-31G*
  Basis Set:
  Charge       = 0
  Multiplicity = 1
  Basis Set: 6-31G*
  Basis Set:

    Orbital Energies (a.u.)
    -----------------------

    Doubly Occupied:

       1A    -20.552275     2A    -11.265642     3A    -11.264668
       4A     -1.374099     5A     -0.974893     6A     -0.872862
       7A     -0.656438     8A     -0.653261     9A     -0.642824
      10A     -0.558765    11A     -0.528090    12A     -0.472963
      13A     -0.411667

  @DF-RHF Final Energy:  -154.06079930278921

   => Energetics <=

    Nuclear Repulsion Energy =             84.4857044568465483
    One-Electron Energy =                -376.6361133326894333
    Two-Electron Energy =                 138.0896095730536217
    DFT Exchange-Correlation Energy =       0.0000000000000000
    Empirical Dispersion Energy =           0.0000000000000000
    PCM Polarization Energy =               0.0000000000000000
    EFP Energy =                            0.0000000000000000
    Total Energy =                       -154.0607993027892917
    Molecular point group: c1
  Basis Set: 6-31G*
  Basis Set:

  -Total Gradient:
     Atom            X                  Y                   Z
    ------   -----------------  -----------------  -----------------
       1        0.000037116060     0.000033481170    -0.000005593683
       2       -0.000392918146     0.000820078507     0.000851909761
       3        0.000851805288    -0.001342966208    -0.001634147396
       4       -0.000035664331    -0.000044115858    -0.000006725050
       5       -0.000035918321    -0.000002186960     0.000016275145
       6       -0.001190047947     0.001299275187     0.001946211645
       7        0.000786210322    -0.000766103707    -0.001147767801
       8       -0.000038611431     0.000001644627    -0.000011751535
       9        0.000018028507     0.000000893241    -0.000008411086

  **** Optimization is complete! (in 4 steps) ****
    Final optimized geometry and variables:
    Molecular point group: c1

    Geometry (in Angstrom), charge = 0, multiplicity = 1:

    H            1.865975275575     0.540701243200     0.676814872321
    C            1.014200524615     0.644699705378     0.018575278395
    O            0.087793902604    -0.329948503652     0.378831689400
    H            0.605105534062     1.646709215803     0.131070209682
    H            1.350898291160     0.522304868153    -1.009261874977
    C           -1.095044135447    -0.343214171401    -0.364710867575
    H           -1.182167157598     0.529932442946    -1.004961657317
    H           -1.941301401444    -0.366755180052     0.311721268757
    H           -1.129272462192    -1.226107003039    -0.996339478930

  Mulliken Charges: (a.u.)
   Center  Symbol    Alpha    Beta     Spin     Total
       1     H     0.41270  0.41270  0.00000  0.17460
       2     C     3.07889  3.07889  0.00000 -0.15777
       3     O     4.30023  4.30023  0.00000 -0.60046
       4     H     0.42985  0.42985  0.00000  0.14030
       5     H     0.43029  0.43029  0.00000  0.13942
       6     C     3.07750  3.07750  0.00000 -0.15500
       7     H     0.43029  0.43029  0.00000  0.13943
       8     H     0.41780  0.41780  0.00000  0.16439
       9     H     0.42245  0.42245  0.00000  0.15510

   Total alpha = 13.00000, Total beta = 13.00000, Total charge = -0.00000
