  ==> Input File <==

--------------------------------------------------------------------------
set {
	reference rhf
	basis 6-31G*
}

set_num_threads( 1 )
memory 2 gb

molecule MOL {
0 1

H	 -2.646374	 -0.642757	 1.268656
C	 -2.083525	 -0.384536	 0.393091
O	 -0.807605	 -0.127164	 0.768327
F	 -2.118945	 -1.383102	 -0.486752
F	 -2.621877	 0.670592	 -0.209486
C	 0.084052	 0.273579	 -0.209957
C	 -0.619116	 0.101262	 -1.550114
Cl	 1.563504	 -0.698582	 -0.152165
H	 0.367893	 1.306364	 -0.107173
F	 0.169176	 0.477841	 -2.534453
F	 -1.691311	 0.867749	 -1.568379
F	 -0.991275	 -1.138230	 -1.757790

	symmetry c1
}
set optking {
	frozen_dihedral = ("
		10 7 6 9,
		6 3 2 4
	")
}

ee = energy('scf')
oeprop('DIPOLE', 'QUADRUPOLE', 'MULLIKEN_CHARGES')
f=open( 'psi4out.xyz', 'w' )
f.write( "12  " )
f.write( str(ee) + "\n" )
f.write( MOL.save_string_xyz() )
f.close()
--------------------------------------------------------------------------

    Molecular point group: c1

    Geometry (in Angstrom), charge = 0, multiplicity = 1:

       Center              X                  Y                   Z               Mass
    ------------   -----------------  -----------------  -----------------  -----------------
           H         -1.940928419010    -0.449753274711     1.990696192372     1.007825032070
           C         -1.378079419010    -0.191532274711     1.115131192372    12.000000000000
           O         -0.102159419010     0.065839725289     1.490367192372    15.994914619560
           F         -1.413499419010    -1.190098274711     0.235288192372    18.998403224000
           F         -1.916431419010     0.863595725289     0.512554192372    18.998403224000
           C          0.789497580990     0.466582725289     0.512083192372    12.000000000000
           C          0.086329580990     0.294265725289    -0.828073807628    12.000000000000
          CL          2.268949580990    -0.505578274711     0.569875192372    34.968852682000
           H          1.073338580990     1.499367725289     0.614867192372     1.007825032070
           F          0.874621580990     0.670844725289    -1.812412807628    18.998403224000
           F         -0.985865419010     1.060752725289    -0.846338807628    18.998403224000
           F         -0.285829419010    -0.945226274711    -1.035749807628    18.998403224000

  Charge       = 0
  Multiplicity = 1
  Basis Set: 6-31G*
  Basis Set:

    Orbital Energies (a.u.)
    -----------------------

    Doubly Occupied:

       1A   -104.846811     2A    -26.350507     3A    -26.329025
       4A    -26.327398     5A    -26.313569     6A    -26.308422
       7A    -20.644989     8A    -11.518239     9A    -11.478787
      10A    -11.400829    11A    -10.581391    12A     -8.050753
      13A     -8.047192    14A     -8.047104    15A     -1.778062
      16A     -1.704379    17A     -1.685951    18A     -1.639507
      19A     -1.599329    20A     -1.486212    21A     -1.178535
      22A     -1.040211    23A     -1.015454    24A     -0.901017
      25A     -0.884164    26A     -0.877610    27A     -0.861740
      28A     -0.798601    29A     -0.783433    30A     -0.772394
      31A     -0.752188    32A     -0.739241    33A     -0.692112
      34A     -0.687829    35A     -0.679656    36A     -0.666618
      37A     -0.664068    38A     -0.640610    39A     -0.623868
      40A     -0.559842    41A     -0.549663    42A     -0.526210
      43A     -0.518599    44A     -0.479599    45A     -0.468866

  @DF-RHF Final Energy: -1146.08978656900899

   => Energetics <=

    Nuclear Repulsion Energy =            800.7787944077473412
    One-Electron Energy =               -3184.7359021791930900
    Two-Electron Energy =                1237.8673212024393706
    DFT Exchange-Correlation Energy =       0.0000000000000000
    Empirical Dispersion Energy =           0.0000000000000000
    PCM Polarization Energy =               0.0000000000000000
    EFP Energy =                            0.0000000000000000
    Total Energy =                      -1146.0897865690064918

  Mulliken Charges: (a.u.)
   Center  Symbol    Alpha    Beta     Spin     Total
       1     H     0.39218  0.39218  0.00000  0.21563
       2     C     2.55983  2.55983  0.00000  0.88035
       3     O     4.31848  4.31848  0.00000 -0.63696
       4     F     4.68680  4.68680  0.00000 -0.37361
       5     F     4.68659  4.68659  0.00000 -0.37318
       6     C     2.99762  2.99762  0.00000  0.00476
       7     C     2.48199  2.48199  0.00000  1.03601
       8    CL     8.49712  8.49712  0.00000  0.00577
       9     H     0.37036  0.37036  0.00000  0.25928
      10     F     4.67587  4.67587  0.00000 -0.35173
      11     F     4.66974  4.66974  0.00000 -0.33948
      12     F     4.66342  4.66342  0.00000 -0.32685

   Total alpha = 45.00000, Total beta = 45.00000, Total charge =  0.00000
