  ==> Input File <==

--------------------------------------------------------------------------
set {
	reference rhf
	basis 6-31G*
}

set_num_threads( 4 )
memory 2 gb

molecule MOL {
0 1

O	 1.829393	 0.288823	 -0.940839
C	 1.122059	 0.121804	 -0.000188
C	 -0.170150	 -0.657997	 -0.000612
O	 1.386064	 0.613826	 1.203635
C	 -1.412532	 0.227344	 -0.000452
H	 -0.153702	 -1.313099	 -0.867402
H	 -0.153924	 -1.313811	 0.865644
C	 -2.706999	 -0.587347	 -0.000541
H	 -1.388000	 0.879466	 -0.868000
H	 -1.387972	 0.879138	 0.867341
C	 -3.956778	 0.291888	 0.000910
H	 -2.726114	 -1.239230	 -0.871609
H	 -2.725217	 -1.240844	 0.869333
H	 -3.985213	 0.933254	 -0.875158
H	 -4.860123	 -0.309979	 0.000519
H	 -3.984618	 0.931166	 0.878514
C	 2.575449	 1.369659	 1.342283
H	 3.439088	 0.766836	 1.100996
H	 2.610943	 1.677094	 2.375808
H	 2.553802	 2.234440	 0.694834

	symmetry c1
}
set optking {
	frozen_dihedral = ("
		1 2 3 6
	")
}

ee = optimize('scf')
oeprop('DIPOLE', 'QUADRUPOLE', 'MULLIKEN_CHARGES')
f=open( 'psi4out.xyz', 'w' )
f.write( "20  " )
f.write( str(ee) + "\n" )
f.write( MOL.save_string_xyz() )
f.close()
--------------------------------------------------------------------------

    Molecular point group: c1
  Charge       = 0
  Multiplicity = 1
  Basis Set: 6-31G*
  Basis Set:
  @DF-RHF Final Energy:  -383.93983705520975
    Total Energy =                       -383.9398370552098640
    Molecular point group: c1
  Basis Set: 6-31G*
  Basis Set:
  Basis Set: 6-31G*
  Basis Set:
  @DF-RHF Final Energy:  -383.93949237727060
    Total Energy =                       -383.9394923772707671
  Basis Set: 6-31G*
  Basis Set:
  Basis Set: 6-31G*
  Basis Set:
  @DF-RHF Final Energy:  -383.94011396342728
    Total Energy =                       -383.9401139634275069
  Basis Set: 6-31G*
  Basis Set:
  Basis Set: 6-31G*
  Basis Set:
  @DF-RHF Final Energy:  -383.94033397778918
    Total Energy =                       -383.9403339777894644
  Basis Set: 6-31G*
  Basis Set:
  Basis Set: 6-31G*
  Basis Set:
  @DF-RHF Final Energy:  -383.94033501357319
    Total Energy =                       -383.9403350135731898
  Basis Set: 6-31G*
  Basis Set:
  Charge       = 0
  Multiplicity = 1
  Basis Set: 6-31G*
  Basis Set:

    Orbital Energies (a.u.)
    -----------------------

    Doubly Occupied:

       1A    -20.604210     2A    -20.543283     3A    -11.370702
       4A    -11.280636     5A    -11.233856     6A    -11.229870
       7A    -11.224462     8A    -11.214542     9A     -1.468534
      10A     -1.361146    11A     -1.093025    12A     -1.025288
      13A     -0.967206    14A     -0.890403    15A     -0.807369
      16A     -0.773657    17A     -0.693790    18A     -0.679771
      19A     -0.673280    20A     -0.647257    21A     -0.597955
      22A     -0.591818    23A     -0.575131    24A     -0.553110
      25A     -0.533716    26A     -0.519483    27A     -0.512143
      28A     -0.484016    29A     -0.480560    30A     -0.475861
      31A     -0.453721    32A     -0.429332

  @DF-RHF Final Energy:  -383.94033564349013

   => Energetics <=

    Nuclear Repulsion Energy =            383.3546833253052455
    One-Electron Energy =               -1282.6117700185429840
    Two-Electron Energy =                 515.3167510497476087
    DFT Exchange-Correlation Energy =       0.0000000000000000
    Empirical Dispersion Energy =           0.0000000000000000
    PCM Polarization Energy =               0.0000000000000000
    EFP Energy =                            0.0000000000000000
    Total Energy =                       -383.9403356434901298
    Molecular point group: c1
  Basis Set: 6-31G*
  Basis Set:

  -Total Gradient:
     Atom            X                  Y                   Z
    ------   -----------------  -----------------  -----------------
       1       -0.000151806933     0.000219807945     0.000005792113
       2        0.000214348849    -0.000368159825     0.000097229659
       3       -0.000221873629     0.000338286467    -0.000204936329
       4        0.000025871210    -0.000030784305    -0.000037404308
       5       -0.000015050429     0.000011748791     0.000054152712
       6        0.000126082701    -0.000237628371     0.000135713370
       7        0.000005644320     0.000014100373    -0.000052842381
       8        0.000021637049    -0.000006369689    -0.000035171152
       9        0.000003831458    -0.000057310331     0.000025699025
      10       -0.000025814220     0.000049094384    -0.000007036490
      11        0.000000677292     0.000024114700     0.000023505049
      12        0.000008841031     0.000000397976    -0.000013356786
      13        0.000031561799    -0.000002654216    -0.000010694083
      14       -0.000007228386    -0.000001772150    -0.000000512900
      15        0.000000376397    -0.000001060499     0.000008452188
      16       -0.000006749725     0.000012655919    -0.000003344178
      17       -0.000048282016     0.000049628227     0.000007048230
      18       -0.000000384989    -0.000016862904    -0.000006179282
      19        0.000022657151     0.000005408754     0.000005351737
      20        0.000015661065    -0.000002641248     0.000008533807

  **** Optimization is complete! (in 6 steps) ****
    Final optimized geometry and variables:
    Molecular point group: c1

    Geometry (in Angstrom), charge = 0, multiplicity = 1:

    O            1.933448866967     0.075520664438    -1.157595743952
    C            1.256896782935    -0.127553434028    -0.201014508596
    C           -0.021213628687    -0.927263803400    -0.200289908410
    O            1.534205548876     0.361991185078     1.001172183298
    C           -1.256072200479    -0.013702498259    -0.195754204406
    H           -0.013909688333    -1.551063263133    -1.085001391284
    H           -0.033887465488    -1.566755600659     0.675542013677
    C           -2.564089236666    -0.805481891909    -0.223041340582
    H           -1.213299707736     0.645782711266    -1.059027581925
    H           -1.230461935687     0.619041507111     0.686653394507
    C           -3.798799717582     0.094813589955    -0.217530365942
    H           -2.582670592683    -1.440070408070    -1.106045303621
    H           -2.598514848972    -1.472482798987     0.635501550437
    H           -3.809890799318     0.750233497665    -1.083542155686
    H           -4.711267434315    -0.492600148856    -0.235485925942
    H           -3.824613810255     0.719659780112     0.670564701469
    C            2.692296675090     1.168813820334     1.114442147853
    H            3.573775200256     0.607574382368     0.839888034064
    H            2.745466486335     1.465809371018     2.150288808411
    H            2.612964918083     2.038861662246     0.478634096617

  Mulliken Charges: (a.u.)
   Center  Symbol    Alpha    Beta     Spin     Total
       1     O     4.28492  4.28492  0.00000 -0.56984
       2     C     2.61727  2.61727  0.00000  0.76545
       3     C     3.19383  3.19383  0.00000 -0.38765
       4     O     4.30291  4.30291  0.00000 -0.60581
       5     C     3.16481  3.16481  0.00000 -0.32963
       6     H     0.39967  0.39967  0.00000  0.20066
       7     H     0.40453  0.40453  0.00000  0.19094
       8     C     3.15289  3.15289  0.00000 -0.30577
       9     H     0.41178  0.41178  0.00000  0.17645
      10     H     0.41033  0.41033  0.00000  0.17935
      11     C     3.24030  3.24030  0.00000 -0.48059
      12     H     0.41970  0.41970  0.00000  0.16061
      13     H     0.42078  0.42078  0.00000  0.15844
      14     H     0.41965  0.41965  0.00000  0.16071
      15     H     0.41733  0.41733  0.00000  0.16534
      16     H     0.42033  0.42033  0.00000  0.15935
      17     C     3.09246  3.09246  0.00000 -0.18492
      18     H     0.40853  0.40853  0.00000  0.18294
      19     H     0.40884  0.40884  0.00000  0.18231
      20     H     0.40916  0.40916  0.00000  0.18167

   Total alpha = 32.00000, Total beta = 32.00000, Total charge =  0.00000
