  ==> Input File <==

--------------------------------------------------------------------------
set {
	reference rhf
	basis 6-31G*
}

set_num_threads( 4 )
memory 2 gb

molecule MOL {
0 1

O	 -2.439739	 -0.935931	 -0.423848
C	 -1.921153	 0.064240	 -0.045697
C	 -2.624470	 1.379923	 0.150949
O	 -0.632575	 0.154573	 0.251549
H	 -2.168117	 2.136577	 -0.476876
H	 -3.669540	 1.273223	 -0.098610
H	 -2.519365	 1.700893	 1.180846
C	 0.160891	 -1.019931	 0.106212
C	 1.589627	 -0.672828	 0.480843
H	 0.089836	 -1.367806	 -0.916050
H	 -0.238459	 -1.792301	 0.749618
C	 2.246377	 0.346236	 -0.452210
H	 2.163194	 -1.597435	 0.473358
H	 1.604769	 -0.303424	 1.502885
C	 3.424844	 1.065902	 0.202232
H	 2.587000	 -0.160189	 -1.353104
H	 1.505637	 1.073729	 -0.767516
H	 3.872399	 1.783097	 -0.478473
H	 4.199219	 0.364248	 0.499391
H	 3.109883	 1.605735	 1.090747

	symmetry c1
}
set optking {
	frozen_dihedral = ("
		16 12 9 8
	")
}

ee = optimize('scf')
oeprop('DIPOLE', 'QUADRUPOLE', 'MULLIKEN_CHARGES')
f=open( 'psi4out.xyz', 'w' )
f.write( "20  " )
f.write( str(ee) + "\n" )
f.write( MOL.save_string_xyz() )
f.close()
--------------------------------------------------------------------------

    Molecular point group: c1
  Charge       = 0
  Multiplicity = 1
  Basis Set: 6-31G*
  Basis Set:
  @DF-RHF Final Energy:  -383.94397148674807
    Total Energy =                       -383.9439714867478415
    Molecular point group: c1
  Basis Set: 6-31G*
  Basis Set:
  Basis Set: 6-31G*
  Basis Set:
  @DF-RHF Final Energy:  -383.94403221242612
    Total Energy =                       -383.9440322124261229
  Basis Set: 6-31G*
  Basis Set:
  Basis Set: 6-31G*
  Basis Set:
  @DF-RHF Final Energy:  -383.94326792543615
    Total Energy =                       -383.9432679254362029
  Basis Set: 6-31G*
  Basis Set:
  Basis Set: 6-31G*
  Basis Set:
  @DF-RHF Final Energy:  -383.94415979672351
    Total Energy =                       -383.9441597967238522
  Basis Set: 6-31G*
  Basis Set:
  Basis Set: 6-31G*
  Basis Set:
  @DF-RHF Final Energy:  -383.94417083632857
    Total Energy =                       -383.9441708363291355
  Basis Set: 6-31G*
  Basis Set:
  Basis Set: 6-31G*
  Basis Set:
  @DF-RHF Final Energy:  -383.94417697711697
    Total Energy =                       -383.9441769771167401
  Basis Set: 6-31G*
  Basis Set:
  Charge       = 0
  Multiplicity = 1
  Basis Set: 6-31G*
  Basis Set:

    Orbital Energies (a.u.)
    -----------------------

    Doubly Occupied:

       1A    -20.602186     2A    -20.544313     3A    -11.374810
       4A    -11.282392     5A    -11.233646     6A    -11.225294
       7A    -11.220510     8A    -11.212883     9A     -1.468294
      10A     -1.362574    11A     -1.085251    12A     -1.028193
      13A     -0.981233    14A     -0.879886    15A     -0.810420
      16A     -0.776467    17A     -0.690189    18A     -0.682885
      19A     -0.667019    20A     -0.630051    21A     -0.603362
      22A     -0.592243    23A     -0.573355    24A     -0.551372
      25A     -0.539851    26A     -0.533278    27A     -0.513136
      28A     -0.482094    29A     -0.474684    30A     -0.471376
      31A     -0.448804    32A     -0.438958

  @DF-RHF Final Energy:  -383.94417739357505

   => Energetics <=

    Nuclear Repulsion Energy =            385.9380494172085037
    One-Electron Energy =               -1287.8024365816700083
    Two-Electron Energy =                 517.9202097708863448
    DFT Exchange-Correlation Energy =       0.0000000000000000
    Empirical Dispersion Energy =           0.0000000000000000
    PCM Polarization Energy =               0.0000000000000000
    EFP Energy =                            0.0000000000000000
    Total Energy =                       -383.9441773935751598
    Molecular point group: c1
  Basis Set: 6-31G*
  Basis Set:

  -Total Gradient:
     Atom            X                  Y                   Z
    ------   -----------------  -----------------  -----------------
       1        0.000010216802    -0.000000333683    -0.000003995258
       2       -0.000009126230     0.000004975624     0.000007981096
       3       -0.000003044710     0.000003009795    -0.000002542694
       4       -0.000018578292    -0.000010616277    -0.000001488574
       5       -0.000001223843     0.000000325813     0.000000977154
       6       -0.000000443094     0.000001657021     0.000000394808
       7       -0.000000198153     0.000000339465     0.000000792069
       8       -0.000903689183     0.001990486547     0.001495624411
       9        0.001993702384    -0.002901411961    -0.001708920967
      10       -0.000000296983    -0.000004079438    -0.000005724206
      11        0.000009817156    -0.000000731858    -0.000004493642
      12       -0.004218944956     0.001525017195    -0.001381235854
      13        0.000001664685     0.000000261327    -0.000004632802
      14        0.000001415001     0.000002181437     0.000003422291
      15       -0.000005002258    -0.000002695113     0.000009431537
      16        0.003128195615    -0.000596273725     0.001590559992
      17        0.000014329290    -0.000011406257     0.000002067435
      18       -0.000005573642     0.000000905871    -0.000000381304
      19        0.000003852064     0.000000135692    -0.000002800045
      20        0.000002928355    -0.000001747475     0.000004964553

  **** Optimization is complete! (in 7 steps) ****
    Final optimized geometry and variables:
    Molecular point group: c1

    Geometry (in Angstrom), charge = 0, multiplicity = 1:

    O           -2.403364648545    -0.989547067180    -0.477883686980
    C           -1.891604360412     0.007414611851    -0.082478941285
    C           -2.603851834910     1.314964750418     0.135875701453
    O           -0.605258091661     0.099689289628     0.224005981027
    H           -2.150574568724     2.085683128116    -0.476866811434
    H           -3.647428230812     1.206021590500    -0.118919761859
    H           -2.503842364703     1.617898778739     1.171744825447
    C            0.195865078043    -1.067520770949     0.064591354420
    C            1.619273385199    -0.711063093250     0.453494608354
    H            0.129562497806    -1.402090182783    -0.962623714331
    H           -0.200741640123    -1.851058111836     0.696013879707
    C            2.287504830028     0.299141352303    -0.487454464868
    H            2.203032008597    -1.627257446747     0.490762953114
    H            1.597928109011    -0.314390748910     1.465171875919
    C            3.480063658869     1.000866451395     0.164038822204
    H            2.640748438577    -0.219888010890    -1.375464314218
    H            1.563448606507     1.039708027585    -0.808585409799
    H            3.964131883904     1.678697543554    -0.532027051694
    H            4.224618913013     0.282983076178     0.497400051344
    H            3.168776672712     1.579359683250     1.028924678855

  Mulliken Charges: (a.u.)
   Center  Symbol    Alpha    Beta     Spin     Total
       1     O     4.28307  4.28307  0.00000 -0.56614
       2     C     2.61934  2.61934  0.00000  0.76133
       3     C     3.28166  3.28166  0.00000 -0.56332
       4     O     4.30823  4.30823  0.00000 -0.61646
       5     H     0.40085  0.40085  0.00000  0.19829
       6     H     0.39680  0.39680  0.00000  0.20640
       7     H     0.40052  0.40052  0.00000  0.19896
       8     C     3.00380  3.00380  0.00000 -0.00760
       9     C     3.16515  3.16515  0.00000 -0.33030
      10     H     0.41064  0.41064  0.00000  0.17871
      11     H     0.40863  0.40863  0.00000  0.18275
      12     C     3.15635  3.15635  0.00000 -0.31270
      13     H     0.41650  0.41650  0.00000  0.16701
      14     H     0.41437  0.41437  0.00000  0.17126
      15     C     3.24071  3.24071  0.00000 -0.48143
      16     H     0.42155  0.42155  0.00000  0.15691
      17     H     0.41166  0.41166  0.00000  0.17667
      18     H     0.41833  0.41833  0.00000  0.16334
      19     H     0.42191  0.42191  0.00000  0.15618
      20     H     0.41993  0.41993  0.00000  0.16014

   Total alpha = 32.00000, Total beta = 32.00000, Total charge =  0.00000
