  ==> Input File <==

--------------------------------------------------------------------------
set {
	reference rhf
	basis 6-31G*
}

set_num_threads( 4 )
memory 2 gb

molecule MOL {
0 1

H	 -4.031818	 -0.453427	 -0.000094
C	 -2.967712	 -0.297022	 -0.000064
C	 -2.458620	 0.992929	 0.000032
C	 -2.109895	 -1.385637	 -0.000122
H	 -3.124998	 1.836319	 0.000077
C	 -1.090278	 1.193236	 0.000070
H	 -2.506361	 -2.384847	 -0.000198
C	 -0.739812	 -1.187531	 -0.000085
H	 -0.678594	 2.184290	 0.000146
C	 -0.226438	 0.104061	 0.000012
H	 -0.072310	 -2.027032	 -0.000131
C	 1.239129	 0.373821	 0.000060
O	 1.918655	 -0.450377	 0.783351
O	 1.756707	 1.238603	 -0.634861
C	 3.321751	 -0.264905	 0.843296
H	 3.762364	 -0.392716	 -0.134620
H	 3.688990	 -1.019009	 1.521761
H	 3.557457	 0.721684	 1.214783

	symmetry c1
}
set optking {
	frozen_dihedral = ("
		13 12 10 6
	")
}

ee = optimize('scf')
oeprop('DIPOLE', 'QUADRUPOLE', 'MULLIKEN_CHARGES')
f=open( 'psi4out.xyz', 'w' )
f.write( "18  " )
f.write( str(ee) + "\n" )
f.write( MOL.save_string_xyz() )
f.close()
--------------------------------------------------------------------------

    Molecular point group: c1
  Charge       = 0
  Multiplicity = 1
  Basis Set: 6-31G*
  Basis Set:
  @DF-RHF Final Energy:  -457.34613190425597
    Total Energy =                       -457.3461319042562536
    Molecular point group: c1
  Basis Set: 6-31G*
  Basis Set:
  Basis Set: 6-31G*
  Basis Set:
  @DF-RHF Final Energy:  -457.34385425824263
    Total Energy =                       -457.3438542582427999
  Basis Set: 6-31G*
  Basis Set:
  Basis Set: 6-31G*
  Basis Set:
  @DF-RHF Final Energy:  -457.34649938447654
    Total Energy =                       -457.3464993844766013
  Basis Set: 6-31G*
  Basis Set:
  Basis Set: 6-31G*
  Basis Set:
  @DF-RHF Final Energy:  -457.34657670515935
    Total Energy =                       -457.3465767051594639
  Basis Set: 6-31G*
  Basis Set:
  Basis Set: 6-31G*
  Basis Set:
  @DF-RHF Final Energy:  -457.34657792071687
    Total Energy =                       -457.3465779207172091
  Basis Set: 6-31G*
  Basis Set:
  Charge       = 0
  Multiplicity = 1
  Basis Set: 6-31G*
  Basis Set:

    Orbital Energies (a.u.)
    -----------------------

    Doubly Occupied:

       1A    -20.608807     2A    -20.546445     3A    -11.378439
       4A    -11.283222     5A    -11.247569     6A    -11.244568
       7A    -11.243598     8A    -11.242994     9A    -11.238566
      10A    -11.237922    11A     -1.473533    12A     -1.365216
      13A     -1.166106    14A     -1.048695    15A     -1.025493
      16A     -0.978719    17A     -0.860157    18A     -0.836276
      19A     -0.778713    20A     -0.738681    21A     -0.683931
      22A     -0.678135    23A     -0.674168    24A     -0.630571
      25A     -0.626962    26A     -0.597498    27A     -0.588219
      28A     -0.555415    29A     -0.532496    30A     -0.516187
      31A     -0.505919    32A     -0.501206    33A     -0.458540
      34A     -0.444455    35A     -0.343928    36A     -0.341826

  @DF-RHF Final Energy:  -457.34657823428665

   => Energetics <=

    Nuclear Repulsion Energy =            492.6909332602638187
    One-Electron Energy =               -1599.6286788867641917
    Two-Electron Energy =                 649.5911673922140608
    DFT Exchange-Correlation Energy =       0.0000000000000000
    Empirical Dispersion Energy =           0.0000000000000000
    PCM Polarization Energy =               0.0000000000000000
    EFP Energy =                            0.0000000000000000
    Total Energy =                       -457.3465782342863122
    Molecular point group: c1
  Basis Set: 6-31G*
  Basis Set:

  -Total Gradient:
     Atom            X                  Y                   Z
    ------   -----------------  -----------------  -----------------
       1       -0.000001224757     0.000005229410     0.000004524768
       2        0.000009908932    -0.000057237319    -0.000006431329
       3        0.000046070108     0.000033866954     0.000022883123
       4       -0.000051431355     0.000025964390    -0.000029726053
       5       -0.000004288550    -0.000003659428    -0.000007555372
       6       -0.000107962576    -0.000060259624     0.004886182681
       7        0.000006258051     0.000000307037     0.000006058905
       8        0.000044297493     0.000052174591    -0.000020836576
       9        0.000004771401    -0.000002650589     0.000001884784
      10       -0.000112358053     0.001082394126    -0.005693807623
      11        0.000002157372    -0.000007475957     0.000002911103
      12        0.000799988519    -0.004127178405    -0.002977381436
      13       -0.000625694514     0.003041817306     0.003821841069
      14       -0.000009452697     0.000016680090    -0.000015864022
      15       -0.000006018908     0.000007783126     0.000011348234
      16       -0.000002090916    -0.000001215606    -0.000001790105
      17       -0.000000168400    -0.000002961323    -0.000002261763
      18        0.000007238846    -0.000003578778    -0.000001980386

  **** Optimization is complete! (in 6 steps) ****
    Final optimized geometry and variables:
    Molecular point group: c1

    Geometry (in Angstrom), charge = 0, multiplicity = 1:

    H           -4.017069147162    -0.511561329847    -0.078404520326
    C           -2.954280769233    -0.348332327298    -0.095598716592
    C           -2.453269326511     0.943979831977    -0.108452503041
    C           -2.088716197053    -1.431243829764    -0.098839154335
    H           -3.124552122471     1.783458581712    -0.096082737257
    C           -1.085669807558     1.154139807643    -0.139173802550
    H           -2.478141105808    -2.433126507548    -0.085054970663
    C           -0.720391537062    -1.223112628710    -0.106177448608
    H           -0.684650166966     2.150044388043    -0.164720879837
    C           -0.217448322504     0.070737592582    -0.148575261167
    H           -0.045905847106    -2.058345967672    -0.083193179057
    C            1.249529875627     0.340033746841    -0.128005732067
    O            1.909233618783    -0.503672158765     0.651040789222
    O            1.770121573125     1.245532165934    -0.698698642211
    C            3.312969249903    -0.330136265658     0.737440576026
    H            3.768816598942    -0.425371146095    -0.237506393834
    H            3.665085447310    -1.109770889667     1.394536742512
    H            3.547825410150     0.641258049351     1.147233657971

  Mulliken Charges: (a.u.)
   Center  Symbol    Alpha    Beta     Spin     Total
       1     H     0.39576  0.39576  0.00000  0.20848
       2     C     3.09242  3.09242  0.00000 -0.18485
       3     C     3.10456  3.10456  0.00000 -0.20912
       4     C     3.10534  3.10534  0.00000 -0.21067
       5     H     0.39545  0.39545  0.00000  0.20909
       6     C     3.09303  3.09303  0.00000 -0.18605
       7     H     0.39607  0.39607  0.00000  0.20786
       8     C     3.08956  3.08956  0.00000 -0.17913
       9     H     0.38102  0.38102  0.00000  0.23795
      10     C     3.04207  3.04207  0.00000 -0.08415
      11     H     0.38612  0.38612  0.00000  0.22776
      12     C     2.61202  2.61202  0.00000  0.77597
      13     O     4.30329  4.30329  0.00000 -0.60658
      14     O     4.28680  4.28680  0.00000 -0.57360
      15     C     3.09388  3.09388  0.00000 -0.18777
      16     H     0.40825  0.40825  0.00000  0.18350
      17     H     0.40728  0.40728  0.00000  0.18544
      18     H     0.40707  0.40707  0.00000  0.18585

   Total alpha = 36.00000, Total beta = 36.00000, Total charge = -0.00000
