                              Psi4 1.0.54 Driver

  ==> Input File <==

--------------------------------------------------------------------------
set {
	reference rhf
	basis cc-pvtz
}

set_num_threads( 4 )
memory 2 gb

molecule MOL {
0 1

O	 0.813719	 -0.237793	 -4.924481
C	 0.337490	 0.323790	 -3.992139
C	 0.302515	 -0.325374	 -2.622682
C	 -0.238450	 1.714465	 -4.114953
C	 1.628282	 -0.116043	 -1.880142
H	 0.129975	 -1.384470	 -2.766412
H	 -0.516376	 0.077405	 -2.036124
C	 1.630207	 -0.772146	 -0.501001
H	 2.426945	 -0.516327	 -2.491810
H	 1.822081	 0.948095	 -1.769005
C	 2.907848	 -0.545876	 0.309149
H	 1.461560	 -1.840214	 -0.613999
H	 0.787571	 -0.389819	 0.068555
C	 3.373802	 0.906639	 0.372125
H	 3.699140	 -1.146831	 -0.127906
H	 2.764321	 -0.923458	 1.318191
H	 3.519798	 1.311927	 -0.623875
H	 4.316899	 0.983758	 0.900700
H	 2.661122	 1.540651	 0.885346
H	 -1.313522	 1.669173	 -3.972945
H	 -0.020833	 2.122489	 -5.090006
H	 0.159410	 2.363280	 -3.342725

	symmetry c1
}
set optking {
	frozen_dihedral = ("
		12 8 11 15
	")
}

ee,wfn = optimize('scf', return_wfn=True)
oeprop( wfn, 'DIPOLE', 'QUADRUPOLE', 'MULLIKEN_CHARGES')
f=open( 'psi4out.xyz', 'w' )
f.write( "22  " )
f.write( str(ee) + "\n" )
f.write( MOL.save_string_xyz() )
f.close()
--------------------------------------------------------------------------

    Molecular point group: c1
  Charge       = 0
  Multiplicity = 1
  Basis Set: CC-PVTZ
  Basis Set:
  @DF-RHF Final Energy:  -348.22123025835350
    Total Energy =                       -348.2212302583538985
    Molecular point group: c1
  Basis Set: CC-PVTZ
  Basis Set:
  Basis Set: CC-PVTZ
  Basis Set:
  @DF-RHF Final Energy:  -348.22182226040258
    Total Energy =                       -348.2218222604020070
  Basis Set: CC-PVTZ
  Basis Set:
  Basis Set: CC-PVTZ
  Basis Set:
  @DF-RHF Final Energy:  -348.22273891560792
    Total Energy =                       -348.2227389156079198
  Basis Set: CC-PVTZ
  Basis Set:
  Basis Set: CC-PVTZ
  Basis Set:
  @DF-RHF Final Energy:  -348.22273971567461
    Total Energy =                       -348.2227397156742086
  Basis Set: CC-PVTZ
  Basis Set:
  @DF-RHF Final Energy:  -348.22272243271527
    Total Energy =                       -348.2227224327150452
  Basis Set: CC-PVTZ
  Basis Set:
  @DF-RHF Final Energy:  -348.22278505767468
    Total Energy =                       -348.2227850576745709
  Basis Set: CC-PVTZ
  Basis Set:
  Basis Set: CC-PVTZ
  Basis Set:
  @DF-RHF Final Energy:  -348.22270110999995
    Total Energy =                       -348.2227011099999459
  Basis Set: CC-PVTZ
  Basis Set:
  Basis Set: CC-PVTZ
  Basis Set:
  @DF-RHF Final Energy:  -348.22279374740236
    Total Energy =                       -348.2227937474023065
  Basis Set: CC-PVTZ
  Basis Set:
  Charge       = 0
  Multiplicity = 1
  Basis Set: CC-PVTZ
  Basis Set:

    Orbital Energies (a.u.)
    -----------------------

    Doubly Occupied:

       1A    -20.536590     2A    -11.319071     3A    -11.227815
       4A    -11.227220     5A    -11.226757     6A    -11.220924
       7A    -11.219149     8A    -11.211570     9A     -1.396709
      10A     -1.097483    11A     -1.045780    12A     -1.000159
      13A     -0.939462    14A     -0.861487    15A     -0.784586
      16A     -0.734402    17A     -0.663387    18A     -0.649871
      19A     -0.628945    20A     -0.618760    21A     -0.598795
      22A     -0.589115    23A     -0.555899    24A     -0.549054
      25A     -0.532864    26A     -0.524072    27A     -0.502288
      28A     -0.488414    29A     -0.468479    30A     -0.466319
      31A     -0.463473    32A     -0.398260

  @DF-RHF Final Energy:  -348.22279419258189

   => Energetics <=

    Nuclear Repulsion Energy =            374.2914915758194638
    One-Electron Energy =               -1213.5342526201657165
    Two-Electron Energy =                 491.0199668517644227
    DFT Exchange-Correlation Energy =       0.0000000000000000
    Empirical Dispersion Energy =           0.0000000000000000
    PCM Polarization Energy =               0.0000000000000000
    EFP Energy =                            0.0000000000000000
    Total Energy =                       -348.2227941925818300
    Molecular point group: c1
  Basis Set: CC-PVTZ
  Basis Set:

  -Total Gradient:
     Atom            X                  Y                   Z
    ------   -----------------  -----------------  -----------------
       1        0.000016701255     0.000034980114     0.000051415241
       2       -0.000057165069    -0.000021275402    -0.000038469501
       3        0.000004643033     0.000015924212    -0.000003782700
       4       -0.000006154133    -0.000024955712    -0.000029987127
       5        0.000020757586    -0.000013785892    -0.000006556038
       6       -0.000006984961     0.000008621616    -0.000002941463
       7        0.000013566490    -0.000005044473    -0.000009152382
       8       -0.001900075641    -0.000493027254     0.003337082850
       9       -0.000043898138     0.000018157843     0.000025495227
      10       -0.000007055591    -0.000027022865     0.000002380474
      11        0.001275686199     0.002680190186    -0.002584710117
      12        0.001410884707     0.000007791065    -0.002448970026
      13        0.000031145841    -0.000020255327    -0.000016787295
      14       -0.000029122908    -0.000023844646     0.000018396945
      15       -0.000814576892    -0.002150438353     0.001674084234
      16        0.000026522647     0.000015993659     0.000004572921
      17        0.000012167234    -0.000000168058    -0.000029855421
      18        0.000022841469    -0.000002458828     0.000030885571
      19       -0.000001100852     0.000002507161    -0.000002666229
      20        0.000019300331     0.000001681940     0.000004931567
      21       -0.000001777080    -0.000006327665     0.000016268868
      22        0.000013694470     0.000002756678     0.000008364393

  **** Optimization is complete! (in 9 steps) ****
    Final optimized geometry and variables:
    Molecular point group: c1

    Geometry (in Angstrom), charge = 0, multiplicity = 1:

    O           -0.506023730340    -0.360379647098    -2.764562149210
    C           -1.015837747750     0.185861677075    -1.840988159796
    C           -1.051002186786    -0.462184758453    -0.471285518348
    C           -1.637656949659     1.555442321193    -1.976364634492
    C            0.244009278845    -0.185343097562     0.302980150272
    H           -1.169097932725    -1.528339637581    -0.616019994686
    H           -1.902145953427    -0.097959820891     0.094620166821
    C            0.237338642643    -0.831060472810     1.688164383329
    H            1.080302733374    -0.564566202966    -0.275008928616
    H            0.387424727805     0.886170635691     0.393594425805
    C            1.557497054230    -0.715953527891     2.454658083695
    H            0.010603050815    -1.885349296354     1.560199545826
    H           -0.566838186660    -0.402160233711     2.280288447112
    C            2.099621315229     0.700948584371     2.616309002643
    H            2.302263544224    -1.348986266682     1.980793840085
    H            1.405049680327    -1.142572641546     3.441844647932
    H            2.393360766180     1.135071095137     1.668411603497
    H            2.972320364919     0.703666774043     3.258861998532
    H            1.358388033976     1.354544248181     3.065855214603
    H           -2.713291673912     1.471070902914    -1.858719808856
    H           -1.413393286210     1.971316087231    -2.946546999155
    H           -1.281181435988     2.218131700382    -1.195838186486

  Mulliken Charges: (a.u.)
   Center  Symbol    Alpha    Beta     Spin     Total
       1     O     4.17801  4.17801  0.00000 -0.35602
       2     C     2.85801  2.85801  0.00000  0.28398
       3     C     3.09775  3.09775  0.00000 -0.19550
       4     C     3.15521  3.15521  0.00000 -0.31043
       5     C     3.10421  3.10421  0.00000 -0.20843
       6     H     0.43859  0.43859  0.00000  0.12282
       7     H     0.44940  0.44940  0.00000  0.10120
       8     C     3.09767  3.09767  0.00000 -0.19533
       9     H     0.44042  0.44042  0.00000  0.11916
      10     H     0.44936  0.44936  0.00000  0.10129
      11     C     3.08986  3.08986  0.00000 -0.17972
      12     H     0.44766  0.44766  0.00000  0.10467
      13     H     0.45180  0.45180  0.00000  0.09639
      14     C     3.15633  3.15633  0.00000 -0.31267
      15     H     0.45100  0.45100  0.00000  0.09800
      16     H     0.44871  0.44871  0.00000  0.10257
      17     H     0.45190  0.45190  0.00000  0.09620
      18     H     0.44401  0.44401  0.00000  0.11198
      19     H     0.45459  0.45459  0.00000  0.09083
      20     H     0.44835  0.44835  0.00000  0.10330
      21     H     0.43606  0.43606  0.00000  0.12788
      22     H     0.45109  0.45109  0.00000  0.09782

   Total alpha = 32.00000, Total beta = 32.00000, Total charge =  0.00000

*** Psi4 exiting successfully. Buy a developer a beer!
