  ==> Input File <==

--------------------------------------------------------------------------
set {
	reference rhf
	basis 6-31G*
}

set_num_threads( 4 )
memory 2 gb

molecule MOL {
0 1

H	 3.463771	 0.168298	 -0.756243
C	 2.752674	 -0.045734	 0.033351
C	 1.322923	 0.120767	 -0.479465
H	 2.934561	 -1.059086	 0.377456
H	 2.958358	 0.631174	 0.856809
C	 0.306652	 -0.176050	 0.621399
H	 1.144658	 -0.551717	 -1.312180
H	 1.166477	 1.131798	 -0.836680
N	 -1.068537	 -0.011044	 0.085269
H	 0.372515	 -1.192590	 0.973735
H	 0.391664	 0.520566	 1.441230
O	 -1.957537	 -0.542097	 0.676059
O	 -1.184559	 0.617890	 -0.922206

	symmetry c1
}
set optking {
	frozen_dihedral = ("
		12 9 6 3
	")
}

ee = optimize('scf')
oeprop('DIPOLE', 'QUADRUPOLE', 'MULLIKEN_CHARGES')
f=open( 'psi4out.xyz', 'w' )
f.write( "13  " )
f.write( str(ee) + "\n" )
f.write( MOL.save_string_xyz() )
f.close()
--------------------------------------------------------------------------

    Molecular point group: c1
  Charge       = 0
  Multiplicity = 1
  Basis Set: 6-31G*
  Basis Set:
  @DF-RHF Final Energy:  -321.73319075741279
    Total Energy =                       -321.7331907574126149
    Molecular point group: c1
  Basis Set: 6-31G*
  Basis Set:
  Basis Set: 6-31G*
  Basis Set:
  @DF-RHF Final Energy:  -321.73106123746516
    Total Energy =                       -321.7310612374651555
  Basis Set: 6-31G*
  Basis Set:
  Basis Set: 6-31G*
  Basis Set:
  @DF-RHF Final Energy:  -321.73159416280316
    Total Energy =                       -321.7315941628031624
  Basis Set: 6-31G*
  Basis Set:
  Basis Set: 6-31G*
  Basis Set:
  @DF-RHF Final Energy:  -321.73461959362544
    Total Energy =                       -321.7346195936254389
  Basis Set: 6-31G*
  Basis Set:
  Basis Set: 6-31G*
  Basis Set:
  @DF-RHF Final Energy:  -321.73469142418139
    Total Energy =                       -321.7346914241814488
  Basis Set: 6-31G*
  Basis Set:
  Basis Set: 6-31G*
  Basis Set:
  @DF-RHF Final Energy:  -321.73460276789035
    Total Energy =                       -321.7346027678904647
  Basis Set: 6-31G*
  Basis Set:
  Basis Set: 6-31G*
  Basis Set:
  @DF-RHF Final Energy:  -321.73507043918028
    Total Energy =                       -321.7350704391803333
  Basis Set: 6-31G*
  Basis Set:
  Charge       = 0
  Multiplicity = 1
  Basis Set: 6-31G*
  Basis Set:

    Orbital Energies (a.u.)
    -----------------------

    Doubly Occupied:

       1A    -20.603302     2A    -20.599437     3A    -15.848758
       4A    -11.301042     5A    -11.250318     6A    -11.237700
       7A     -1.631941     8A     -1.417204     9A     -1.133052
      10A     -1.027437    11A     -0.884744    12A     -0.826309
      13A     -0.760421    14A     -0.747523    15A     -0.725660
      16A     -0.658051    17A     -0.607187    18A     -0.578039
      19A     -0.552800    20A     -0.522912    21A     -0.510142
      22A     -0.484955    23A     -0.473117    24A     -0.449088

  @DF-RHF Final Energy:  -321.73507090022042

   => Energetics <=

    Nuclear Repulsion Energy =            247.0314506751962256
    One-Electron Energy =                -927.8707657065951935
    Two-Electron Energy =                 359.1042441311784046
    DFT Exchange-Correlation Energy =       0.0000000000000000
    Empirical Dispersion Energy =           0.0000000000000000
    PCM Polarization Energy =               0.0000000000000000
    EFP Energy =                            0.0000000000000000
    Total Energy =                       -321.7350709002205917
    Molecular point group: c1
  Basis Set: 6-31G*
  Basis Set:

  -Total Gradient:
     Atom            X                  Y                   Z
    ------   -----------------  -----------------  -----------------
       1       -0.000000740637     0.000020602879     0.000004574994
       2        0.000002758740     0.000078180290     0.000007012455
       3        0.000040539879    -0.000015727922     0.000025989509
       4       -0.000022456874     0.000000202318    -0.000017326541
       5        0.000010911566    -0.000006708076     0.000014208733
       6       -0.000105180475    -0.000095364059    -0.000014990431
       7        0.000025552403     0.000024994062     0.000032973329
       8        0.000007501705     0.000007954287    -0.000055032183
       9        0.000108247620    -0.000217469228    -0.000142899587
      10        0.000051741147     0.000003462635    -0.000009190760
      11        0.000049294107    -0.000057930905     0.000066049393
      12       -0.000090181735     0.000201709466     0.000131068430
      13       -0.000077987437     0.000056094252    -0.000042437345

  **** Optimization is complete! (in 8 steps) ****
    Final optimized geometry and variables:
    Molecular point group: c1

    Geometry (in Angstrom), charge = 0, multiplicity = 1:

    H            3.511620780781     0.157959404580    -0.731490621250
    C            2.775556577315    -0.050008513779     0.036499261701
    C            1.362282988037     0.132665574279    -0.518975761644
    H            2.939643722453    -1.065033680385     0.385375178509
    H            2.966240385288     0.623417360160     0.866858024887
    C            0.326542785408    -0.154294460705     0.555078079138
    H            1.203934192020    -0.534209216754    -1.359282370219
    H            1.231105024615     1.141041283162    -0.888061691659
    N           -1.079100021937    -0.015340740950     0.077269685926
    H            0.390051031860    -1.157838249156     0.946229974505
    H            0.397763601324     0.536922026346     1.385598818493
    O           -1.913631639064    -0.566919669057     0.726756870126
    O           -1.287457076447     0.652855560022    -0.887007510911

  Mulliken Charges: (a.u.)
   Center  Symbol    Alpha    Beta     Spin     Total
       1     H     0.40756  0.40756  0.00000  0.18488
       2     C     3.24999  3.24999  0.00000 -0.49997
       3     C     3.16631  3.16631  0.00000 -0.33261
       4     H     0.41618  0.41618  0.00000  0.16764
       5     H     0.41640  0.41640  0.00000  0.16719
       6     C     3.08866  3.08866  0.00000 -0.17732
       7     H     0.40492  0.40492  0.00000  0.19017
       8     H     0.39725  0.39725  0.00000  0.20550
       9     N     3.22411  3.22411  0.00000  0.55179
      10     H     0.38600  0.38600  0.00000  0.22799
      11     H     0.38539  0.38539  0.00000  0.22921
      12     O     4.22897  4.22897  0.00000 -0.45794
      13     O     4.22827  4.22827  0.00000 -0.45653

   Total alpha = 24.00000, Total beta = 24.00000, Total charge = -0.00000
