                              Psi4 1.0.54 Driver

  ==> Input File <==

--------------------------------------------------------------------------
set {
	reference rhf
	basis cc-pvtz
}

set_num_threads( 4 )
memory 2 gb

molecule MOL {
0 1

H	 3.721907	 -0.933076	 -0.066039
O	 2.824271	 -1.154299	 0.131461
C	 2.076458	 -0.067370	 -0.038225
C	 0.626018	 -0.337582	 0.258241
O	 2.538288	 0.965419	 -0.381593
C	 -0.267326	 0.883135	 0.076490
H	 0.325620	 -1.161483	 -0.378003
H	 0.574537	 -0.713685	 1.275261
C	 -1.726822	 0.642622	 0.463839
H	 -0.210803	 1.217591	 -0.953497
H	 0.129920	 1.693110	 0.675679
C	 -2.110414	 -0.822164	 0.667060
H	 -2.355104	 1.058546	 -0.318160
H	 -1.959480	 1.203472	 1.366482
C	 -3.598123	 -1.007855	 0.947629
H	 -1.837944	 -1.388206	 -0.219727
H	 -1.542430	 -1.247914	 1.488088
H	 -3.843940	 -2.054385	 1.085585
H	 -4.200627	 -0.631345	 0.127917
H	 -3.895804	 -0.477178	 1.845917

	symmetry c1
}
set optking {
	frozen_dihedral = ("
		12 9 6 10
	")
}

ee,wfn = optimize('scf', return_wfn=True)
oeprop( wfn, 'DIPOLE', 'QUADRUPOLE', 'MULLIKEN_CHARGES')
f=open( 'psi4out.xyz', 'w' )
f.write( "20  " )
f.write( str(ee) + "\n" )
f.write( MOL.save_string_xyz() )
f.close()
--------------------------------------------------------------------------

    Molecular point group: c1
  Charge       = 0
  Multiplicity = 1
  Basis Set: CC-PVTZ
  Basis Set:
  @DF-RHF Final Energy:  -384.08536064795578
    Total Energy =                       -384.0853606479555538
    Molecular point group: c1
  Basis Set: CC-PVTZ
  Basis Set:
  Basis Set: CC-PVTZ
  Basis Set:
  @DF-RHF Final Energy:  -384.08541290760616
    Total Energy =                       -384.0854129076057006
  Basis Set: CC-PVTZ
  Basis Set:
  Basis Set: CC-PVTZ
  Basis Set:
  @DF-RHF Final Energy:  -384.08728150481954
    Total Energy =                       -384.0872815048198845
  Basis Set: CC-PVTZ
  Basis Set:
  Basis Set: CC-PVTZ
  Basis Set:
  @DF-RHF Final Energy:  -384.08720309165494
    Total Energy =                       -384.0872030916551694
  Basis Set: CC-PVTZ
  Basis Set:
  @DF-RHF Final Energy:  -384.08729875936922
    Total Energy =                       -384.0872987593691050
  Basis Set: CC-PVTZ
  Basis Set:
  @DF-RHF Final Energy:  -384.08739976301541
    Total Energy =                       -384.0873997630155259
  Basis Set: CC-PVTZ
  Basis Set:
  Basis Set: CC-PVTZ
  Basis Set:
  @DF-RHF Final Energy:  -384.08739508289671
    Total Energy =                       -384.0873950828970464
  Basis Set: CC-PVTZ
  Basis Set:
  Basis Set: CC-PVTZ
  Basis Set:
  @DF-RHF Final Energy:  -384.08740298509105
    Total Energy =                       -384.0874029850911029
  Basis Set: CC-PVTZ
  Basis Set:
  Charge       = 0
  Multiplicity = 1
  Basis Set: CC-PVTZ
  Basis Set:

    Orbital Energies (a.u.)
    -----------------------

    Doubly Occupied:

       1A    -20.603633     2A    -20.540372     3A    -11.373234
       4A    -11.238899     5A    -11.220730     6A    -11.219583
       7A    -11.218346     8A    -11.210765     9A     -1.477262
      10A     -1.368785    11A     -1.094524    12A     -1.042048
      13A     -0.961238    14A     -0.871844    15A     -0.823435
      16A     -0.768989    17A     -0.703560    18A     -0.691355
      19A     -0.671116    20A     -0.639396    21A     -0.598276
      22A     -0.593958    23A     -0.582430    24A     -0.550849
      25A     -0.542038    26A     -0.520290    27A     -0.498479
      28A     -0.484091    29A     -0.471390    30A     -0.461405
      31A     -0.453230    32A     -0.446877

  @DF-RHF Final Energy:  -384.08740305011321

   => Energetics <=

    Nuclear Repulsion Energy =            377.3666739907041006
    One-Electron Energy =               -1271.0233018011858803
    Two-Electron Energy =                 509.5692247603690248
    DFT Exchange-Correlation Energy =       0.0000000000000000
    Empirical Dispersion Energy =           0.0000000000000000
    PCM Polarization Energy =               0.0000000000000000
    EFP Energy =                            0.0000000000000000
    Total Energy =                       -384.0874030501126981
    Molecular point group: c1
  Basis Set: CC-PVTZ
  Basis Set:

  -Total Gradient:
     Atom            X                  Y                   Z
    ------   -----------------  -----------------  -----------------
       1        0.000002949104     0.000005760109    -0.000002534693
       2       -0.000010401481    -0.000026772692     0.000013436341
       3       -0.000000222145    -0.000021579414    -0.000011813699
       4        0.000011285166     0.000001791754     0.000017019768
       5       -0.000002253281     0.000041791199    -0.000007017505
       6        0.000764384267    -0.005044011408    -0.000222823455
       7       -0.000002973072    -0.000003675753    -0.000000620084
       8        0.000002976655    -0.000001484817     0.000001756504
       9       -0.001149939388     0.000715878174    -0.004350417231
      10       -0.000349260324     0.004160292939     0.001374949857
      11        0.000005393360    -0.000004008490    -0.000003484696
      12        0.000732851408     0.000182673806     0.003186310545
      13       -0.000000272565    -0.000003996011    -0.000002341773
      14        0.000001990899     0.000007615990    -0.000001588404
      15        0.000000361497    -0.000002756711     0.000008961617
      16       -0.000002606652    -0.000005613696    -0.000002116112
      17        0.000001734941     0.000001183337    -0.000002838836
      18       -0.000004035221    -0.000005938848     0.000004005229
      19        0.000001574656    -0.000001228398    -0.000001193788
      20       -0.000003537827     0.000004078927     0.000002350413

  **** Optimization is complete! (in 9 steps) ****
    Final optimized geometry and variables:
    Molecular point group: c1

    Geometry (in Angstrom), charge = 0, multiplicity = 1:

    H            3.711168788303    -0.689197065693    -0.346101880390
    O            2.831213958844    -0.944305918449    -0.113069822100
    C            2.026511768298     0.097328963124    -0.307000307149
    C            0.600073724660    -0.231957233269     0.044256056250
    O            2.427978833991     1.134786154836    -0.707478805357
    C           -0.348525854851     0.940471589826    -0.169346141217
    H            0.324940941450    -1.097217656243    -0.546502643222
    H            0.603116834923    -0.565886805660     1.075843166635
    C           -1.836139415404     0.699146130508     0.187397098552
    H           -0.267370131742     1.286808392197    -1.191779550877
    H            0.015941825784     1.771986463433     0.420966869049
    C           -2.293255415596    -0.747935766860     0.377197002913
    H           -2.452955257738     1.160783657919    -0.575816107607
    H           -2.060936645790     1.231460660928     1.106710056762
    C           -3.778937786793    -0.840295120970     0.710738089359
    H           -2.097886634804    -1.324481934681    -0.522653907400
    H           -1.723952994677    -1.217272608042     1.172230004139
    H           -4.086102788907    -1.870490841736     0.848922420670
    H           -4.385478872377    -0.417464511115    -0.082998075266
    H           -4.008995377336    -0.300945793508     1.623546186567

  Mulliken Charges: (a.u.)
   Center  Symbol    Alpha    Beta     Spin     Total
       1     H     0.38250  0.38250  0.00000  0.23500
       2     O     4.15942  4.15942  0.00000 -0.31884
       3     C     2.80896  2.80896  0.00000  0.38208
       4     C     3.11428  3.11428  0.00000 -0.22855
       5     O     4.19094  4.19094  0.00000 -0.38188
       6     C     3.09102  3.09102  0.00000 -0.18204
       7     H     0.43447  0.43447  0.00000  0.13107
       8     H     0.43608  0.43608  0.00000  0.12784
       9     C     3.09402  3.09402  0.00000 -0.18804
      10     H     0.44299  0.44299  0.00000  0.11402
      11     H     0.44300  0.44300  0.00000  0.11400
      12     C     3.09127  3.09127  0.00000 -0.18253
      13     H     0.44816  0.44816  0.00000  0.10368
      14     H     0.45173  0.45173  0.00000  0.09654
      15     C     3.15096  3.15096  0.00000 -0.30192
      16     H     0.45248  0.45248  0.00000  0.09504
      17     H     0.45197  0.45197  0.00000  0.09605
      18     H     0.44745  0.44745  0.00000  0.10509
      19     H     0.45378  0.45378  0.00000  0.09243
      20     H     0.45452  0.45452  0.00000  0.09096

   Total alpha = 32.00000, Total beta = 32.00000, Total charge =  0.00000

*** Psi4 exiting successfully. Buy a developer a beer!
