  ==> Input File <==

--------------------------------------------------------------------------
set {
	reference rhf
	basis 6-31G*
}

set_num_threads( 1 )
memory 2 gb

molecule MOL {
0 1

O	 0.911092	 1.084644	 1.541223
C	 -0.143345	 1.136435	 0.995558
C	 -1.091821	 2.302895	 1.059665
O	 -0.632575	 0.154573	 0.251549
H	 -2.039840	 1.981633	 1.475596
H	 -0.665224	 3.083867	 1.671167
H	 -1.281588	 2.675823	 0.059830
C	 0.160891	 -1.019931	 0.106212
C	 1.589627	 -0.672828	 0.480843
H	 0.089836	 -1.367806	 -0.916050
H	 -0.238459	 -1.792301	 0.749618
C	 2.246377	 0.346236	 -0.452210
H	 2.163194	 -1.597435	 0.473358
H	 1.604769	 -0.303424	 1.502885
C	 3.691736	 0.652107	 -0.061850
H	 2.219579	 -0.032311	 -1.472055
H	 1.666466	 1.263317	 -0.447249
H	 4.134505	 1.377213	 -0.737283
H	 4.305508	 -0.243868	 -0.089969
H	 3.748266	 1.059562	 0.943567

	symmetry c1
}
set optking {
	frozen_dihedral = ("
		16 12 9 8,
		12 9 8 10,
		1 2 4 8
	")
}

ee = energy('scf')
oeprop('DIPOLE', 'QUADRUPOLE', 'MULLIKEN_CHARGES')
f=open( 'psi4out.xyz', 'w' )
f.write( "20  " )
f.write( str(ee) + "\n" )
f.write( MOL.save_string_xyz() )
f.close()
--------------------------------------------------------------------------

    Molecular point group: c1

    Geometry (in Angstrom), charge = 0, multiplicity = 1:

       Center              X                  Y                   Z               Mass
    ------------   -----------------  -----------------  -----------------  -----------------
           O          0.069231079229     0.577146744274     1.046300831890    15.994914619560
           C         -0.985205920771     0.628937744274     0.500635831890    12.000000000000
           C         -1.933681920771     1.795397744274     0.564742831890    12.000000000000
           O         -1.474435920771    -0.352924255726    -0.243373168110    15.994914619560
           H         -2.881700920771     1.474135744274     0.980673831890     1.007825032070
           H         -1.507084920771     2.576369744274     1.176244831890     1.007825032070
           H         -2.123448920771     2.168325744274    -0.435092168110     1.007825032070
           C         -0.680969920771    -1.527428255726    -0.388710168110    12.000000000000
           C          0.747766079229    -1.180325255726    -0.014079168110    12.000000000000
           H         -0.752024920771    -1.875303255726    -1.410972168110     1.007825032070
           H         -1.080319920771    -2.299798255726     0.254695831890     1.007825032070
           C          1.404516079229    -0.161261255726    -0.947132168110    12.000000000000
           H          1.321333079229    -2.104932255726    -0.021564168110     1.007825032070
           H          0.762908079229    -0.810921255726     1.007962831890     1.007825032070
           C          2.849875079229     0.144609744274    -0.556772168110    12.000000000000
           H          1.377718079229    -0.539808255726    -1.966977168110     1.007825032070
           H          0.824605079229     0.755819744274    -0.942171168110     1.007825032070
           H          3.292644079229     0.869715744274    -1.232205168110     1.007825032070
           H          3.463647079229    -0.751365255726    -0.584891168110     1.007825032070
           H          2.906405079229     0.552064744274     0.448644831890     1.007825032070

  Charge       = 0
  Multiplicity = 1
  Basis Set: 6-31G*
  Basis Set:

    Orbital Energies (a.u.)
    -----------------------

    Doubly Occupied:

       1A    -20.606654     2A    -20.538226     3A    -11.384884
       4A    -11.281784     5A    -11.237276     6A    -11.203228
       7A    -11.198092     8A    -11.186061     9A     -1.481123
      10A     -1.374766    11A     -1.077462    12A     -1.023381
      13A     -0.971975    14A     -0.887004    15A     -0.806256
      16A     -0.773607    17A     -0.701907    18A     -0.685361
      19A     -0.678217    20A     -0.622122    21A     -0.596703
      22A     -0.585049    23A     -0.567578    24A     -0.560942
      25A     -0.537854    26A     -0.535634    27A     -0.513079
      28A     -0.481449    29A     -0.467429    30A     -0.456943
      31A     -0.433331    32A     -0.379273

  @DF-RHF Final Energy:  -383.86585755981849

   => Energetics <=

    Nuclear Repulsion Energy =            415.3773115262789020
    One-Electron Energy =               -1346.8171754798354414
    Two-Electron Energy =                 547.5740063937374771
    DFT Exchange-Correlation Energy =       0.0000000000000000
    Empirical Dispersion Energy =           0.0000000000000000
    PCM Polarization Energy =               0.0000000000000000
    EFP Energy =                            0.0000000000000000
    Total Energy =                       -383.8658575598191192

  Mulliken Charges: (a.u.)
   Center  Symbol    Alpha    Beta     Spin     Total
       1     O     4.29111  4.29111  0.00000 -0.58223
       2     C     2.61075  2.61075  0.00000  0.77851
       3     C     3.28137  3.28137  0.00000 -0.56274
       4     O     4.31093  4.31093  0.00000 -0.62185
       5     H     0.39857  0.39857  0.00000  0.20285
       6     H     0.39671  0.39671  0.00000  0.20658
       7     H     0.39938  0.39938  0.00000  0.20124
       8     C     2.99446  2.99446  0.00000  0.01108
       9     C     3.20677  3.20677  0.00000 -0.41354
      10     H     0.41132  0.41132  0.00000  0.17736
      11     H     0.41240  0.41240  0.00000  0.17520
      12     C     3.14285  3.14285  0.00000 -0.28570
      13     H     0.43170  0.43170  0.00000  0.13661
      14     H     0.36028  0.36028  0.00000  0.27943
      15     C     3.23792  3.23792  0.00000 -0.47585
      16     H     0.43012  0.43012  0.00000  0.13975
      17     H     0.42147  0.42147  0.00000  0.15706
      18     H     0.42297  0.42297  0.00000  0.15406
      19     H     0.42384  0.42384  0.00000  0.15232
      20     H     0.41507  0.41507  0.00000  0.16985

   Total alpha = 32.00000, Total beta = 32.00000, Total charge = -0.00000
