  ==> Input File <==

--------------------------------------------------------------------------
set {
	reference rhf
	basis 6-31G*
}

set_num_threads( 4 )
memory 2 gb

molecule MOL {
0 1

H	 -2.798360	 -0.862255	 -0.071053
N	 -1.863561	 -0.715187	 0.256814
C	 -1.344686	 0.554728	 -0.219830
H	 -1.300452	 -1.461917	 -0.101532
C	 0.081427	 0.741154	 0.254071
H	 -1.362155	 0.656231	 -1.305829
H	 -1.952773	 1.354456	 0.191809
O	 0.874168	 -0.245412	 -0.342030
H	 0.444037	 1.730782	 -0.023037
H	 0.121165	 0.653424	 1.337565
C	 1.970877	 -0.638680	 0.419638
H	 2.503404	 -1.396438	 -0.138856
H	 2.643673	 0.195838	 0.609129
H	 1.661786	 -1.056649	 1.375449

	symmetry c1
}
set optking {
	frozen_dihedral = ("
		11 8 5 3
	")
}

ee = optimize('scf')
oeprop('DIPOLE', 'QUADRUPOLE', 'MULLIKEN_CHARGES')
f=open( 'psi4out.xyz', 'w' )
f.write( "14  " )
f.write( str(ee) + "\n" )
f.write( MOL.save_string_xyz() )
f.close()
--------------------------------------------------------------------------

    Molecular point group: c1
  Charge       = 0
  Multiplicity = 1
  Basis Set: 6-31G*
  Basis Set:
  @DF-RHF Final Energy:  -248.12374770905086
    Total Energy =                       -248.1237477090504626
    Molecular point group: c1
  Basis Set: 6-31G*
  Basis Set:
  Basis Set: 6-31G*
  Basis Set:
  @DF-RHF Final Energy:  -248.12383148431601
    Total Energy =                       -248.1238314843159287
  Basis Set: 6-31G*
  Basis Set:
  Basis Set: 6-31G*
  Basis Set:
  @DF-RHF Final Energy:  -248.12385447553930
    Total Energy =                       -248.1238544755394173
  Basis Set: 6-31G*
  Basis Set:
  Basis Set: 6-31G*
  Basis Set:
  @DF-RHF Final Energy:  -248.12385551474330
    Total Energy =                       -248.1238555147433544
  Basis Set: 6-31G*
  Basis Set:
  Charge       = 0
  Multiplicity = 1
  Basis Set: 6-31G*
  Basis Set:

    Orbital Energies (a.u.)
    -----------------------

    Doubly Occupied:

       1A    -20.555613     2A    -15.529606     3A    -11.265384
       4A    -11.264978     5A    -11.240634     6A     -1.378560
       7A     -1.174392     8A     -0.998818     9A     -0.906748
      10A     -0.814731    11A     -0.684734    12A     -0.670740
      13A     -0.644700    14A     -0.612874    15A     -0.602476
      16A     -0.539829    17A     -0.530244    18A     -0.498191
      19A     -0.471697    20A     -0.415780    21A     -0.380649

  @DF-RHF Final Energy:  -248.12385575874418

   => Energetics <=

    Nuclear Repulsion Energy =            195.2928568433468968
    One-Electron Energy =                -724.4706681345380730
    Two-Electron Energy =                 281.0539555324470484
    DFT Exchange-Correlation Energy =       0.0000000000000000
    Empirical Dispersion Energy =           0.0000000000000000
    PCM Polarization Energy =               0.0000000000000000
    EFP Energy =                            0.0000000000000000
    Total Energy =                       -248.1238557587440710
    Molecular point group: c1
  Basis Set: 6-31G*
  Basis Set:

  -Total Gradient:
     Atom            X                  Y                   Z
    ------   -----------------  -----------------  -----------------
       1       -0.000007420280     0.000000632655     0.000000108289
       2       -0.000000681387     0.000012931991    -0.000003681139
       3       -0.000330378663    -0.001134979643     0.001459289117
       4        0.000005389946     0.000006730411     0.000003756301
       5       -0.000034277093     0.000854704471    -0.001587727318
       6       -0.000002821433    -0.000000469440     0.000008237742
       7       -0.000019658992    -0.000002232396     0.000000989225
       8        0.001581167123     0.001790126198    -0.000824231199
       9       -0.000004277991     0.000003216161    -0.000003118317
      10        0.000004679265    -0.000004045165     0.000009898708
      11       -0.001195565031    -0.001534261103     0.000926082396
      12        0.000009255770    -0.000004336766     0.000009744575
      13       -0.000005471898     0.000005919190     0.000001698999
      14        0.000000060660     0.000006063436    -0.000001047379

  **** Optimization is complete! (in 5 steps) ****
    Final optimized geometry and variables:
    Molecular point group: c1

    Geometry (in Angstrom), charge = 0, multiplicity = 1:

    H           -2.755938490906    -0.775250606176    -0.122578963948
    N           -1.810948687626    -0.636136377374     0.178482084160
    C           -1.301948719852     0.638707111574    -0.295753046645
    H           -1.262565544152    -1.377692959601    -0.211920375137
    C            0.124736682077     0.828808613527     0.177856023593
    H           -1.326547086842     0.742716561586    -1.381504513181
    H           -1.912913541782     1.434213948122     0.119962093391
    O            0.925417155742    -0.162390762991    -0.406516717329
    H            0.494842969815     1.814936754328    -0.096586089477
    H            0.148372999719     0.743795746131     1.260836771012
    C            2.026426765980    -0.556458977206     0.350746256771
    H            2.548476822186    -1.321587529635    -0.207894103178
    H            2.709323513584     0.272245217376     0.528363521786
    H            1.720407637510    -0.965212852034     1.310648435680

  Mulliken Charges: (a.u.)
   Center  Symbol    Alpha    Beta     Spin     Total
       1     H     0.33243  0.33243  0.00000  0.33514
       2     N     3.92561  3.92561  0.00000 -0.85123
       3     C     3.06944  3.06944  0.00000 -0.13887
       4     H     0.32501  0.32501  0.00000  0.34997
       5     C     2.98987  2.98987  0.00000  0.02025
       6     H     0.42625  0.42625  0.00000  0.14749
       7     H     0.42093  0.42093  0.00000  0.15814
       8     O     4.31121  4.31121  0.00000 -0.62243
       9     H     0.42764  0.42764  0.00000  0.14472
      10     H     0.42296  0.42296  0.00000  0.15408
      11     C     3.08013  3.08013  0.00000 -0.16026
      12     H     0.41360  0.41360  0.00000  0.17280
      13     H     0.42972  0.42972  0.00000  0.14057
      14     H     0.42519  0.42519  0.00000  0.14961

   Total alpha = 21.00000, Total beta = 21.00000, Total charge =  0.00000
