  ==> Input File <==

--------------------------------------------------------------------------
set {
	reference rhf
	basis 6-31G*
}

set_num_threads( 1 )
memory 2 gb

molecule MOL {
0 1

H	 -3.787727	 -0.291914	 1.659800
C	 -2.772604	 -0.167920	 1.326730
C	 -2.320684	 1.084200	 0.938000
C	 -1.920548	 -1.260348	 1.287531
H	 -2.982523	 1.930594	 0.968881
C	 -1.015307	 1.242843	 0.509857
H	 -2.272640	 -2.230195	 1.589248
C	 -0.613443	 -1.103914	 0.859305
H	 -0.648410	 2.204263	 0.205338
C	 -0.157466	 0.149699	 0.469045
H	 0.049365	 -1.946521	 0.827368
C	 1.239129	 0.373821	 0.000060
O	 1.970282	 -0.730723	 0.000018
O	 1.664576	 1.432587	 -0.341800
C	 3.377318	 -0.566646	 -0.000065
H	 3.695437	 -0.028981	 -0.881264
H	 3.789299	 -1.563704	 0.000236
H	 3.695516	 -0.028316	 0.880770

	symmetry c1
}
set optking {
	frozen_dihedral = ("
		12 13 15 16,
		13 12 10 6
	")
}

ee = energy('scf')
oeprop('DIPOLE', 'QUADRUPOLE', 'MULLIKEN_CHARGES')
f=open( 'psi4out.xyz', 'w' )
f.write( "18  " )
f.write( str(ee) + "\n" )
f.write( MOL.save_string_xyz() )
f.close()
--------------------------------------------------------------------------

    Molecular point group: c1

    Geometry (in Angstrom), charge = 0, multiplicity = 1:

       Center              X                  Y                   Z               Mass
    ------------   -----------------  -----------------  -----------------  -----------------
           H         -3.857452603425    -0.338050659291     1.185642767387     1.007825032070
           C         -2.842329603425    -0.214056659291     0.852572767387    12.000000000000
           C         -2.390409603425     1.038063340709     0.463842767387    12.000000000000
           C         -1.990273603425    -1.306484659291     0.813373767387    12.000000000000
           H         -3.052248603425     1.884457340709     0.494723767387     1.007825032070
           C         -1.085032603425     1.196706340709     0.035699767387    12.000000000000
           H         -2.342365603425    -2.276331659291     1.115090767387     1.007825032070
           C         -0.683168603425    -1.150050659291     0.385147767387    12.000000000000
           H         -0.718135603425     2.158126340709    -0.268819232613     1.007825032070
           C         -0.227191603425     0.103562340709    -0.005112232613    12.000000000000
           H         -0.020360603425    -1.992657659291     0.353210767387     1.007825032070
           C          1.169403396575     0.327684340709    -0.474097232613    12.000000000000
           O          1.900556396575    -0.776859659291    -0.474139232613    15.994914619560
           O          1.594850396575     1.386450340709    -0.815957232613    15.994914619560
           C          3.307592396575    -0.612782659291    -0.474222232613    12.000000000000
           H          3.625711396575    -0.075117659291    -1.355421232613     1.007825032070
           H          3.719573396575    -1.609840659291    -0.473921232613     1.007825032070
           H          3.625790396575    -0.074452659291     0.406612767387     1.007825032070

  Charge       = 0
  Multiplicity = 1
  Basis Set: 6-31G*
  Basis Set:

    Orbital Energies (a.u.)
    -----------------------

    Doubly Occupied:

       1A    -20.605263     2A    -20.545050     3A    -11.377953
       4A    -11.283703     5A    -11.245589     6A    -11.245546
       7A    -11.244279     8A    -11.241862     9A    -11.237667
      10A    -11.236899    11A     -1.471918    12A     -1.363956
      13A     -1.165436    14A     -1.047857    15A     -1.024986
      16A     -0.978190    17A     -0.860939    18A     -0.834543
      19A     -0.777842    20A     -0.739795    21A     -0.683205
      22A     -0.676619    23A     -0.671525    24A     -0.631513
      25A     -0.624109    26A     -0.598127    27A     -0.587024
      28A     -0.561188    29A     -0.528722    30A     -0.516843
      31A     -0.503104    32A     -0.498988    33A     -0.458672
      34A     -0.443650    35A     -0.345121    36A     -0.341158

  @DF-RHF Final Energy:  -457.34828757141742

   => Energetics <=

    Nuclear Repulsion Energy =            493.1775976643745594
    One-Electron Energy =               -1600.6538695968642969
    Two-Electron Energy =                 650.1279843610720945
    DFT Exchange-Correlation Energy =       0.0000000000000000
    Empirical Dispersion Energy =           0.0000000000000000
    PCM Polarization Energy =               0.0000000000000000
    EFP Energy =                            0.0000000000000000
    Total Energy =                       -457.3482875714175862

  Mulliken Charges: (a.u.)
   Center  Symbol    Alpha    Beta     Spin     Total
       1     H     0.39532  0.39532  0.00000  0.20936
       2     C     3.08991  3.08991  0.00000 -0.17983
       3     C     3.10708  3.10708  0.00000 -0.21415
       4     C     3.10711  3.10711  0.00000 -0.21422
       5     H     0.39533  0.39533  0.00000  0.20935
       6     C     3.08640  3.08640  0.00000 -0.17280
       7     H     0.39624  0.39624  0.00000  0.20753
       8     C     3.08717  3.08717  0.00000 -0.17433
       9     H     0.37596  0.37596  0.00000  0.24809
      10     C     3.07797  3.07797  0.00000 -0.15595
      11     H     0.38066  0.38066  0.00000  0.23868
      12     C     2.57976  2.57976  0.00000  0.84047
      13     O     4.31524  4.31524  0.00000 -0.63048
      14     O     4.28954  4.28954  0.00000 -0.57908
      15     C     3.09393  3.09393  0.00000 -0.18787
      16     H     0.40336  0.40336  0.00000  0.19329
      17     H     0.40765  0.40765  0.00000  0.18470
      18     H     0.41138  0.41138  0.00000  0.17724

   Total alpha = 36.00000, Total beta = 36.00000, Total charge = -0.00000
