                              Psi4 1.0.54 Driver

  ==> Input File <==

--------------------------------------------------------------------------
set {
	reference rhf
	basis cc-pvtz
}

set_num_threads( 4 )
memory 2 gb

molecule MOL {
0 1

H	 -3.436473	 1.252944	 -1.023892
O	 -3.458596	 0.315260	 -0.960865
C	 -3.176635	 -0.080824	 0.355601
C	 -1.763371	 0.265266	 0.799691
H	 -3.321825	 -1.153438	 0.379502
H	 -3.895468	 0.357385	 1.043382
C	 -0.673390	 -0.426948	 -0.013392
H	 -1.631049	 1.344913	 0.747560
H	 -1.664587	 -0.001624	 1.849167
C	 0.737842	 -0.043159	 0.423759
H	 -0.806103	 -0.190518	 -1.063345
H	 -0.797221	 -1.503753	 0.074146
C	 1.824000	 -0.743224	 -0.390623
H	 0.850588	 1.033777	 0.343840
H	 0.868587	 -0.286314	 1.476203
C	 3.255957	 -0.453067	 0.062319
H	 1.718250	 -0.470599	 -1.438164
H	 1.658105	 -1.815850	 -0.339904
C	 4.080432	 0.376004	 -0.919529
H	 3.761713	 -1.399496	 0.227422
H	 3.232280	 0.048868	 1.026124
H	 4.116840	 -0.098813	 -1.894875
H	 5.100248	 0.485459	 -0.568479
H	 3.673968	 1.371477	 -1.051535

	symmetry c1
}
set optking {
	frozen_dihedral = ("
		20 16 13 17
	")
}

ee,wfn = optimize('scf', return_wfn=True)
oeprop( wfn, 'DIPOLE', 'QUADRUPOLE', 'MULLIKEN_CHARGES')
f=open( 'psi4out.xyz', 'w' )
f.write( "24  " )
f.write( str(ee) + "\n" )
f.write( MOL.save_string_xyz() )
f.close()
--------------------------------------------------------------------------

    Molecular point group: c1
  Charge       = 0
  Multiplicity = 1
  Basis Set: CC-PVTZ
  Basis Set:
  @DF-RHF Final Energy:  -349.37624049229947
    Total Energy =                       -349.3762404922993596
    Molecular point group: c1
  Basis Set: CC-PVTZ
  Basis Set:
  Basis Set: CC-PVTZ
  Basis Set:
  @DF-RHF Final Energy:  -349.32900622426797
    Total Energy =                       -349.3290062242680278
  Basis Set: CC-PVTZ
  Basis Set:
  Basis Set: CC-PVTZ
  Basis Set:
  @DF-RHF Final Energy:  -349.37465076398308
    Total Energy =                       -349.3746507639837660
  Basis Set: CC-PVTZ
  Basis Set:
  Basis Set: CC-PVTZ
  Basis Set:
  @DF-RHF Final Energy:  -349.37689027843135
    Total Energy =                       -349.3768902784307215
  Basis Set: CC-PVTZ
  Basis Set:
  Basis Set: CC-PVTZ
  Basis Set:
  @DF-RHF Final Energy:  -349.37689922406713
    Total Energy =                       -349.3768992240667899
  Basis Set: CC-PVTZ
  Basis Set:
  Basis Set: CC-PVTZ
  Basis Set:
  @DF-RHF Final Energy:  -349.37693044211250
    Total Energy =                       -349.3769304421126662
  Basis Set: CC-PVTZ
  Basis Set:
  Basis Set: CC-PVTZ
  Basis Set:
  @DF-RHF Final Energy:  -349.37693184381135
    Total Energy =                       -349.3769318438114055
  Basis Set: CC-PVTZ
  Basis Set:
  Charge       = 0
  Multiplicity = 1
  Basis Set: CC-PVTZ
  Basis Set:

    Orbital Energies (a.u.)
    -----------------------

    Doubly Occupied:

       1A    -20.546339     2A    -11.265557     3A    -11.215268
       4A    -11.211399     5A    -11.210922     6A    -11.209007
       7A    -11.208829     8A    -11.206028     9A     -1.364191
      10A     -1.089031    11A     -1.048794    12A     -0.988344
      13A     -0.914657    14A     -0.845180    15A     -0.799657
      16A     -0.786178    17A     -0.681840    18A     -0.655008
      19A     -0.626308    20A     -0.618271    21A     -0.598863
      22A     -0.584632    23A     -0.557001    24A     -0.537520
      25A     -0.526057    26A     -0.508471    27A     -0.494245
      28A     -0.473257    29A     -0.468346    30A     -0.459891
      31A     -0.456825    32A     -0.452186    33A     -0.420267

  @DF-RHF Final Energy:  -349.37693219958197

   => Energetics <=

    Nuclear Repulsion Energy =            382.7713558887559770
    One-Electron Energy =               -1232.2398416120504407
    Two-Electron Energy =                 500.0915535237128324
    DFT Exchange-Correlation Energy =       0.0000000000000000
    Empirical Dispersion Energy =           0.0000000000000000
    PCM Polarization Energy =               0.0000000000000000
    EFP Energy =                            0.0000000000000000
    Total Energy =                       -349.3769321995815744
    Molecular point group: c1
  Basis Set: CC-PVTZ
  Basis Set:

  -Total Gradient:
     Atom            X                  Y                   Z
    ------   -----------------  -----------------  -----------------
       1       -0.000007280242    -0.000019515137     0.000000097507
       2        0.000009665558     0.000019189137    -0.000008806582
       3        0.000008918570    -0.000012941820     0.000004112763
       4        0.000006012788     0.000004616286    -0.000001807405
       5        0.000009904503     0.000008505612    -0.000001034902
       6        0.000011768383    -0.000006476461     0.000004250612
       7       -0.000014792060    -0.000004529578    -0.000003764042
       8       -0.000008692917    -0.000009142795    -0.000000280301
       9       -0.000001091889     0.000003080858     0.000005024010
      10       -0.000020895744     0.000007641860    -0.000044301311
      11        0.000000700520    -0.000001929431    -0.000004885877
      12        0.000007195902     0.000011833328    -0.000000441464
      13       -0.000192630728    -0.002490231667    -0.000174672156
      14        0.000000181526    -0.000011910903    -0.000002269127
      15        0.000010380894    -0.000018310729    -0.000011030055
      16        0.000717801851     0.000244622732    -0.002415843388
      17       -0.000017920341     0.002057251975     0.000590989151
      18       -0.000024543934     0.000021459747    -0.000009588222
      19        0.000023823075     0.000004310349     0.000046720682
      20       -0.000528417564     0.000201088713     0.002053637629
      21        0.000023080171     0.000006447031    -0.000023687285
      22       -0.000011070475    -0.000005476050    -0.000000263635
      23       -0.000000247899    -0.000004893622    -0.000015286606
      24       -0.000001849949    -0.000004689436     0.000013130001

  **** Optimization is complete! (in 8 steps) ****
    Final optimized geometry and variables:
    Molecular point group: c1

    Geometry (in Angstrom), charge = 0, multiplicity = 1:

    H           -2.764113602520     2.478049962599    -0.855774023706
    O           -3.121103660276     1.608957319416    -0.826078042096
    C           -3.015403871710     1.094585262762     0.475271370715
    C           -1.577335473232     0.895589228672     0.929776407320
    H           -3.535786933454     0.145308723183     0.461114722719
    H           -3.537429881471     1.738195762434     1.178857914380
    C           -0.798023396395    -0.112531966165     0.090235951295
    H           -1.066377086342     1.857160050686     0.916939139607
    H           -1.593069793087     0.574910562571     1.968638402193
    C            0.650869125822    -0.275849347208     0.538740922861
    H           -0.825548517418     0.191431663832    -0.950312619227
    H           -1.300044844089    -1.076092245302     0.139050152498
    C            1.429708825371    -1.298338241724    -0.287717942578
    H            1.155263177228     0.686625106903     0.483436503688
    H            0.675463241344    -0.570310463540     1.585370506720
    C            2.909982528840    -1.420097131092     0.125191812432
    H            1.368536548536    -1.005997764666    -1.332031048682
    H            0.937572887669    -2.262016000202    -0.209068899658
    C            3.879090856641    -0.809882288700    -0.882520124037
    H            3.165333872746    -2.461449034012     0.289147229912
    H            3.053350488974    -0.935604694404     1.086496190687
    H            3.813070768992    -1.313095398701    -1.841221230513
    H            4.904623094040    -0.884089079069    -0.538531318909
    H            3.660806082225     0.240449576423    -1.047249980541

  Mulliken Charges: (a.u.)
   Center  Symbol    Alpha    Beta     Spin     Total
       1     H     0.39531  0.39531  0.00000  0.20938
       2     O     4.20364  4.20364  0.00000 -0.40727
       3     C     2.97779  2.97779  0.00000  0.04443
       4     C     3.10196  3.10196  0.00000 -0.20392
       5     H     0.45889  0.45889  0.00000  0.08222
       6     H     0.46021  0.46021  0.00000  0.07958
       7     C     3.08914  3.08914  0.00000 -0.17829
       8     H     0.45912  0.45912  0.00000  0.08176
       9     H     0.45333  0.45333  0.00000  0.09334
      10     C     3.08908  3.08908  0.00000 -0.17816
      11     H     0.44600  0.44600  0.00000  0.10799
      12     H     0.45543  0.45543  0.00000  0.08913
      13     C     3.09497  3.09497  0.00000 -0.18993
      14     H     0.45497  0.45497  0.00000  0.09006
      15     H     0.45529  0.45529  0.00000  0.08942
      16     C     3.09062  3.09062  0.00000 -0.18125
      17     H     0.45478  0.45478  0.00000  0.09045
      18     H     0.44812  0.44812  0.00000  0.10376
      19     C     3.14704  3.14704  0.00000 -0.29408
      20     H     0.44885  0.44885  0.00000  0.10230
      21     H     0.45559  0.45559  0.00000  0.08881
      22     H     0.45445  0.45445  0.00000  0.09110
      23     H     0.44973  0.44973  0.00000  0.10054
      24     H     0.45570  0.45570  0.00000  0.08861

   Total alpha = 33.00000, Total beta = 33.00000, Total charge =  0.00000

*** Psi4 exiting successfully. Buy a developer a beer!
