  ==> Input File <==

--------------------------------------------------------------------------
set {
	reference rhf
	basis 6-31G*
}

set_num_threads( 1 )
memory 2 gb

molecule MOL {
0 1

O	 -2.552204	 0.865636	 -0.228441
C	 -2.134242	 -0.156921	 0.223357
C	 -0.911499	 -0.830098	 -0.375005
C	 -2.774676	 -0.814151	 1.425550
C	 0.379448	 -0.143569	 0.099626
H	 -0.987629	 -0.751170	 -1.454023
H	 -0.889182	 -1.884237	 -0.113623
C	 1.631333	 -0.777471	 -0.511575
H	 0.318380	 0.907419	 -0.159371
H	 0.444763	 -0.196540	 1.185294
C	 2.915987	 -0.544314	 0.291766
H	 1.766672	 -0.399098	 -1.523130
H	 1.471257	 -1.849544	 -0.605828
C	 3.373361	 0.914346	 0.347591
H	 3.708709	 -1.142521	 -0.150311
H	 2.780642	 -0.921148	 1.303579
H	 3.506512	 1.320010	 -0.651625
H	 4.322697	 0.999599	 0.867103
H	 2.660624	 1.545032	 0.868198
H	 -3.214530	 -1.763596	 1.131703
H	 -3.544061	 -0.172677	 1.832172
H	 -2.031409	 -1.028162	 2.188149

	symmetry c1
}
set optking {
	frozen_dihedral = ("
		6 3 2 1,
		6 3 5 8,
		12 8 11 15
	")
}

ee = energy('scf')
oeprop('DIPOLE', 'QUADRUPOLE', 'MULLIKEN_CHARGES')
f=open( 'psi4out.xyz', 'w' )
f.write( "22  " )
f.write( str(ee) + "\n" )
f.write( MOL.save_string_xyz() )
f.close()
--------------------------------------------------------------------------

    Molecular point group: c1

    Geometry (in Angstrom), charge = 0, multiplicity = 1:

       Center              X                  Y                   Z               Mass
    ------------   -----------------  -----------------  -----------------  -----------------
           O         -2.546318226526     1.038799726773    -0.395980749168    15.994914619560
           C         -2.128356226526     0.016242726773     0.055817250832    12.000000000000
           C         -0.905613226526    -0.656934273227    -0.542544749168    12.000000000000
           C         -2.768790226526    -0.640987273227     1.258010250832    12.000000000000
           C          0.385333773474     0.029594726773    -0.067913749168    12.000000000000
           H         -0.981743226526    -0.578006273227    -1.621562749168     1.007825032070
           H         -0.883296226526    -1.711073273227    -0.281162749168     1.007825032070
           C          1.637218773474    -0.604307273227    -0.679114749168    12.000000000000
           H          0.324265773474     1.080582726773    -0.326910749168     1.007825032070
           H          0.450648773474    -0.023376273227     1.017754250832     1.007825032070
           C          2.921872773474    -0.371150273227     0.124226250832    12.000000000000
           H          1.772557773474    -0.225934273227    -1.690669749168     1.007825032070
           H          1.477142773474    -1.676380273227    -0.773367749168     1.007825032070
           C          3.379246773474     1.087509726773     0.180051250832    12.000000000000
           H          3.714594773474    -0.969357273227    -0.317850749168     1.007825032070
           H          2.786527773474    -0.747984273227     1.136039250832     1.007825032070
           H          3.512397773474     1.493173726773    -0.819164749168     1.007825032070
           H          4.328582773474     1.172762726773     0.699563250832     1.007825032070
           H          2.666509773474     1.718195726773     0.700658250832     1.007825032070
           H         -3.208644226526    -1.590432273227     0.964163250832     1.007825032070
           H         -3.538175226526     0.000486726773     1.664632250832     1.007825032070
           H         -2.025523226526    -0.854998273227     2.020609250832     1.007825032070

  Charge       = 0
  Multiplicity = 1
  Basis Set: 6-31G*
  Basis Set:

    Orbital Energies (a.u.)
    -----------------------

    Doubly Occupied:

       1A    -20.547259     2A    -11.324350     3A    -11.229574
       4A    -11.228906     5A    -11.228239     6A    -11.221969
       7A    -11.221035     8A    -11.211823     9A     -1.393013
      10A     -1.095827    11A     -1.044410    12A     -0.999649
      13A     -0.937713    14A     -0.857988    15A     -0.786580
      16A     -0.733460    17A     -0.663301    18A     -0.643199
      19A     -0.626265    20A     -0.618874    21A     -0.594929
      22A     -0.588000    23A     -0.560811    24A     -0.538958
      25A     -0.536158    26A     -0.522512    27A     -0.496081
      28A     -0.489340    29A     -0.470161    30A     -0.464945
      31A     -0.458821    32A     -0.396117

  @DF-RHF Final Energy:  -348.09694215993403

   => Energetics <=

    Nuclear Repulsion Energy =            372.8517927075345710
    One-Electron Energy =               -1210.4372901466197163
    Two-Electron Energy =                 489.4885552791507166
    DFT Exchange-Correlation Energy =       0.0000000000000000
    Empirical Dispersion Energy =           0.0000000000000000
    PCM Polarization Energy =               0.0000000000000000
    EFP Energy =                            0.0000000000000000
    Total Energy =                       -348.0969421599344855

  Mulliken Charges: (a.u.)
   Center  Symbol    Alpha    Beta     Spin     Total
       1     O     4.26241  4.26241  0.00000 -0.52483
       2     C     2.73731  2.73731  0.00000  0.52539
       3     C     3.20081  3.20081  0.00000 -0.40161
       4     C     3.28962  3.28962  0.00000 -0.57923
       5     C     3.16384  3.16384  0.00000 -0.32769
       6     H     0.40104  0.40104  0.00000  0.19792
       7     H     0.41682  0.41682  0.00000  0.16636
       8     C     3.15318  3.15318  0.00000 -0.30636
       9     H     0.40344  0.40344  0.00000  0.19311
      10     H     0.42111  0.42111  0.00000  0.15777
      11     C     3.15397  3.15397  0.00000 -0.30793
      12     H     0.41880  0.41880  0.00000  0.16240
      13     H     0.42144  0.42144  0.00000  0.15712
      14     C     3.24174  3.24174  0.00000 -0.48347
      15     H     0.41984  0.41984  0.00000  0.16032
      16     H     0.42332  0.42332  0.00000  0.15335
      17     H     0.42062  0.42062  0.00000  0.15876
      18     H     0.41837  0.41837  0.00000  0.16326
      19     H     0.41865  0.41865  0.00000  0.16270
      20     H     0.40695  0.40695  0.00000  0.18610
      21     H     0.39704  0.39704  0.00000  0.20593
      22     H     0.40968  0.40968  0.00000  0.18065

   Total alpha = 32.00000, Total beta = 32.00000, Total charge = -0.00000
