                              Psi4 1.0.54 Driver

  ==> Input File <==

--------------------------------------------------------------------------
set {
	reference rhf
	basis cc-pvtz
}

set_num_threads( 4 )
memory 2 gb

molecule MOL {
0 1

H	 -4.340537	 -0.784487	 0.000000
O	 -3.958786	 0.074640	 0.000000
C	 -2.613554	 0.009900	 0.000000
C	 -1.963186	 0.192051	 -1.209140
C	 -1.879659	 -0.227761	 1.146212
H	 -2.542515	 0.375788	 -2.092021
C	 -0.588320	 0.136023	 -1.266569
H	 -2.377093	 -0.370069	 2.087952
C	 -0.499059	 -0.283713	 1.086788
H	 -0.087056	 0.277178	 -2.202826
C	 0.141072	 -0.101972	 -0.117237
H	 0.065906	 -0.468249	 1.978115
Br	 2.036044	 -0.178253	 -0.201731

	symmetry c1
}
set optking {
	frozen_dihedral = ("
		4 3 2 1
	")
}

ee,wfn = optimize('scf', return_wfn=True)
oeprop( wfn, 'DIPOLE', 'QUADRUPOLE', 'MULLIKEN_CHARGES')
f=open( 'psi4out.xyz', 'w' )
f.write( "13  " )
f.write( str(ee) + "\n" )
f.write( MOL.save_string_xyz() )
f.close()
--------------------------------------------------------------------------

    Molecular point group: c1
  Charge       = 0
  Multiplicity = 1
  Basis Set: CC-PVTZ
  Basis Set:
  @DF-RHF Final Energy: -2877.54210352118162
    Total Energy =                      -2877.5421035211811613
    Molecular point group: c1
  Basis Set: CC-PVTZ
  Basis Set:
  Basis Set: CC-PVTZ
  Basis Set:
  @DF-RHF Final Energy: -2877.54279377541934
    Total Energy =                      -2877.5427937754193408
  Basis Set: CC-PVTZ
  Basis Set:
  Basis Set: CC-PVTZ
  Basis Set:
  @DF-RHF Final Energy: -2877.54284709841795
    Total Energy =                      -2877.5428470984161322
  Basis Set: CC-PVTZ
  Basis Set:
  Basis Set: CC-PVTZ
  Basis Set:
  @DF-RHF Final Energy: -2877.54285299270578
    Total Energy =                      -2877.5428529927048658
  Basis Set: CC-PVTZ
  Basis Set:
  Charge       = 0
  Multiplicity = 1
  Basis Set: CC-PVTZ
  Basis Set:

    Orbital Energies (a.u.)
    -----------------------

    Doubly Occupied:

       1A   -490.021002     2A    -65.161336     3A    -58.516560
       4A    -58.515195     5A    -58.515180     6A    -20.582563
       7A    -11.302937     8A    -11.294139     9A    -11.252086
      10A    -11.251765    11A    -11.242499    12A    -11.241669
      13A     -9.835140    14A     -7.446764    15A     -7.439975
      16A     -7.439956    17A     -3.190456    18A     -3.186913
      19A     -3.186766    20A     -3.178130    21A     -3.178126
      22A     -1.410301    23A     -1.180835    24A     -1.067787
      25A     -1.041865    26A     -0.970626    27A     -0.862364
      28A     -0.826384    29A     -0.752779    30A     -0.677625
      31A     -0.664523    32A     -0.646493    33A     -0.610498
      34A     -0.599904    35A     -0.547707    36A     -0.532589
      37A     -0.502657    38A     -0.487305    39A     -0.435386
      40A     -0.415774    41A     -0.358986    42A     -0.329579

  @DF-RHF Final Energy: -2877.54285411542196

   => Energetics <=

    Nuclear Repulsion Energy =            525.1303117314834026
    One-Electron Energy =               -5041.5440819465175082
    Two-Electron Energy =                1638.8709160996104401
    DFT Exchange-Correlation Energy =       0.0000000000000000
    Empirical Dispersion Energy =           0.0000000000000000
    PCM Polarization Energy =               0.0000000000000000
    EFP Energy =                            0.0000000000000000
    Total Energy =                      -2877.5428541154233244
    Molecular point group: c1
  Basis Set: CC-PVTZ
  Basis Set:

  -Total Gradient:
     Atom            X                  Y                   Z
    ------   -----------------  -----------------  -----------------
       1       -0.000042034176     0.000000522315    -0.000706573557
       2       -0.000169103428    -0.000270798079     0.000803500405
       3        0.000319215035     0.000778287814     0.000174862146
       4       -0.000031395077    -0.000483200638    -0.000203315572
       5       -0.000158562803    -0.000036012383    -0.000045702432
       6        0.000020729359     0.000002816811     0.000023526853
       7       -0.000083492487    -0.000041756267    -0.000059759129
       8       -0.000023153805     0.000014471811    -0.000003713787
       9        0.000146373055     0.000019735240    -0.000095655479
      10        0.000039389223     0.000004468850     0.000012383646
      11        0.000022376173     0.000010335854     0.000137362233
      12       -0.000011895967     0.000000501586    -0.000009877727
      13       -0.000028445921     0.000000627061    -0.000027037642

  **** Optimization is complete! (in 5 steps) ****
    Final optimized geometry and variables:
    Molecular point group: c1

    Geometry (in Angstrom), charge = 0, multiplicity = 1:

    H           -4.353682682278    -0.677378027438     0.148967514325
    O           -3.965225214985     0.180050031788     0.151555746919
    C           -2.603851134005     0.093659048668     0.101082571640
    C           -1.952636649771     0.281254844667    -1.101900253482
    C           -1.876305866445    -0.137307866838     1.251895919090
    H           -2.528109867451     0.471609517557    -1.986374068492
    C           -0.573164913482     0.233831687213    -1.157886494188
    H           -2.390493136298    -0.265390823731     2.184526040743
    C           -0.496657167439    -0.189761676211     1.200892148002
    H           -0.066490881910     0.380949682210    -2.090119329557
    C            0.145458778708    -0.004371448750    -0.005185031395
    H            0.068665846471    -0.368648038711     2.092953297455
    BR           2.040742085681    -0.072797931336    -0.079114685256

  Mulliken Charges: (a.u.)
   Center  Symbol    Alpha    Beta     Spin     Total
       1     H     0.38700  0.38700  0.00000  0.22601
       2     O     4.18868  4.18868  0.00000 -0.37736
       3     C     2.88125  2.88125  0.00000  0.23750
       4     C     3.09109  3.09109  0.00000 -0.18217
       5     C     3.09578  3.09578  0.00000 -0.19156
       6     H     0.41314  0.41314  0.00000  0.17372
       7     C     3.08861  3.08861  0.00000 -0.17722
       8     H     0.41444  0.41444  0.00000  0.17111
       9     C     3.08920  3.08920  0.00000 -0.17841
      10     H     0.41003  0.41003  0.00000  0.17994
      11     C     2.96668  2.96668  0.00000  0.06664
      12     H     0.41008  0.41008  0.00000  0.17984
      13    BR    17.56402 17.56402  0.00000 -0.12804

   Total alpha = 42.00000, Total beta = 42.00000, Total charge = -0.00000

*** Psi4 exiting successfully. Buy a developer a beer!
