  ==> Input File <==

--------------------------------------------------------------------------
set {
	reference rhf
	basis cc-pvtz
}

set_num_threads( 4 )
memory 2 gb

molecule MOL {
0 1

H	 -1.835082	 1.385983	 0.000069
C	 -1.300516	 0.441153	 -0.000028
O	 -0.006604	 0.654344	 -0.000106
O	 -1.828920	 -0.612308	 0.000113
C	 0.852093	 -0.482521	 -0.000161
C	 1.354489	 -0.680825	 -1.410471
H	 0.295721	 -1.340441	 0.349667
H	 1.663633	 -0.307279	 0.691689
H	 0.531287	 -0.851295	 -2.092562
H	 2.012657	 -1.540748	 -1.445136
H	 1.906056	 0.187077	 -1.748834

	symmetry c1
}
set optking {
	frozen_dihedral = ("
		7 5 3 2
	")
}

ee = optimize('scf')
oeprop('DIPOLE', 'QUADRUPOLE', 'MULLIKEN_CHARGES')
f=open( 'psi4out.xyz', 'w' )
f.write( "11  " )
f.write( str(ee) + "\n" )
f.write( MOL.save_string_xyz() )
f.close()
--------------------------------------------------------------------------

    Molecular point group: c1
  Charge       = 0
  Multiplicity = 1
  Basis Set: CC-PVTZ
  Basis Set:
  @DF-RHF Final Energy:  -266.92932457896336
    Total Energy =                       -266.9293245789631897
    Molecular point group: c1
  Basis Set: CC-PVTZ
  Basis Set:
  Basis Set: CC-PVTZ
  Basis Set:
  @DF-RHF Final Energy:  -266.92956587996480
    Total Energy =                       -266.9295658799649118
  Basis Set: CC-PVTZ
  Basis Set:
  Basis Set: CC-PVTZ
  Basis Set:
  @DF-RHF Final Energy:  -266.92341807875647
    Total Energy =                       -266.9234180787566970
  Basis Set: CC-PVTZ
  Basis Set:
  Basis Set: CC-PVTZ
  Basis Set:
  @DF-RHF Final Energy:  -266.93019584239642
    Total Energy =                       -266.9301958423963015
  Basis Set: CC-PVTZ
  Basis Set:
  Basis Set: CC-PVTZ
  Basis Set:
  @DF-RHF Final Energy:  -266.93037767376882
    Total Energy =                       -266.9303776737687599
  Basis Set: CC-PVTZ
  Basis Set:
  Basis Set: CC-PVTZ
  Basis Set:
  @DF-RHF Final Energy:  -266.93038627668375
    Total Energy =                       -266.9303862766837483
  Basis Set: CC-PVTZ
  Basis Set:
  Charge       = 0
  Multiplicity = 1
  Basis Set: CC-PVTZ
  Basis Set:

    Orbital Energies (a.u.)
    -----------------------

    Doubly Occupied:

       1A    -20.604712     2A    -20.545097     3A    -11.371303
       4A    -11.288909     5A    -11.223585     6A     -1.477558
       7A     -1.377515     8A     -1.051075     9A     -0.910978
      10A     -0.798412    11A     -0.749280    12A     -0.687645
      13A     -0.660544    14A     -0.622209    15A     -0.574703
      16A     -0.546329    17A     -0.538806    18A     -0.502552
      19A     -0.460075    20A     -0.457911

  @DF-RHF Final Energy:  -266.93038704936686

   => Energetics <=

    Nuclear Repulsion Energy =            181.1351648778809817
    One-Electron Energy =                -723.2327070669482509
    Two-Electron Energy =                 275.1671551397005260
    DFT Exchange-Correlation Energy =       0.0000000000000000
    Empirical Dispersion Energy =           0.0000000000000000
    PCM Polarization Energy =               0.0000000000000000
    EFP Energy =                            0.0000000000000000
    Total Energy =                       -266.9303870493668001
    Molecular point group: c1
  Basis Set: CC-PVTZ
  Basis Set:

  -Total Gradient:
     Atom            X                  Y                   Z
    ------   -----------------  -----------------  -----------------
       1       -0.000033061194     0.000005959418    -0.000013952734
       2        0.000001277287    -0.000008284557     0.001061333680
       3       -0.000098775066    -0.000070706528    -0.001746837732
       4        0.000039357375     0.000019583142    -0.000009591073
       5        0.000401519604     0.000267846597     0.001791217386
       6        0.000022417520     0.000000382014     0.000000769290
       7       -0.000344074055    -0.000205788722    -0.001065928111
       8       -0.000005307542    -0.000003518326    -0.000002985753
       9        0.000004618247     0.000002663218     0.000013455706
      10        0.000008562465    -0.000006802453    -0.000015512336
      11        0.000003465360    -0.000001333803    -0.000011968324

  **** Optimization is complete! (in 7 steps) ****
    Final optimized geometry and variables:
    Molecular point group: c1

    Geometry (in Angstrom), charge = 0, multiplicity = 1:

    H           -1.624106189254     1.557162411241     0.364085121828
    C           -1.119572553675     0.597260987500     0.313642226570
    O            0.179855111526     0.779137472513     0.299812029406
    O           -1.685209237287    -0.436038335909     0.275645265190
    C            1.044976972696    -0.354671903390     0.264685668704
    C            1.586168439718    -0.561029521166    -1.133987942720
    H            0.505596293178    -1.224160628559     0.601955032445
    H            1.838790307019    -0.131597370048     0.961637987652
    H            0.785312963442    -0.792657246055    -1.824793200065
    H            2.287031316234    -1.387929690823    -1.136597088240
    H            2.100398621845     0.325565975437    -1.483063726609

  Mulliken Charges: (a.u.)
   Center  Symbol    Alpha    Beta     Spin     Total
       1     H     0.44896  0.44896  0.00000  0.10207
       2     C     2.84053  2.84053  0.00000  0.31894
       3     O     4.14968  4.14968  0.00000 -0.29936
       4     O     4.19695  4.19695  0.00000 -0.39390
       5     C     2.98116  2.98116  0.00000  0.03767
       6     C     3.13949  3.13949  0.00000 -0.27899
       7     H     0.44580  0.44580  0.00000  0.10840
       8     H     0.44661  0.44661  0.00000  0.10679
       9     H     0.44730  0.44730  0.00000  0.10541
      10     H     0.45263  0.45263  0.00000  0.09474
      11     H     0.45088  0.45088  0.00000  0.09824

   Total alpha = 20.00000, Total beta = 20.00000, Total charge = -0.00000
