  ==> Input File <==

--------------------------------------------------------------------------
set {
	reference rhf
	basis 6-31G*
}

set_num_threads( 4 )
memory 2 gb

molecule MOL {
0 1

H	 -0.291579	 -1.110831	 -0.823855
N	 -0.626943	 -0.667432	 -0.000092
C	 -1.979713	 -0.158776	 0.000050
C	 0.205700	 -0.572214	 1.064711
H	 -2.520245	 -0.492427	 -0.879443
H	 -1.934741	 0.918111	 -0.004428
H	 -2.517790	 -0.485056	 0.883818
C	 1.579666	 -1.173021	 0.845091
O	 -0.108932	 -0.055838	 2.101329
H	 2.085533	 -0.680272	 0.020681
H	 2.162318	 -1.050747	 1.745792
H	 1.502585	 -2.229492	 0.607889

	symmetry c1
}
set optking {
	frozen_dihedral = ("
		4 2 3 5
	")
}

ee = optimize('scf')
oeprop('DIPOLE', 'QUADRUPOLE', 'MULLIKEN_CHARGES')
f=open( 'psi4out.xyz', 'w' )
f.write( "12  " )
f.write( str(ee) + "\n" )
f.write( MOL.save_string_xyz() )
f.close()
--------------------------------------------------------------------------

    Molecular point group: c1
  Charge       = 0
  Multiplicity = 1
  Basis Set: 6-31G*
  Basis Set:
  @DF-RHF Final Energy:  -247.00480362744946
    Total Energy =                       -247.0048036274493484
    Molecular point group: c1
  Basis Set: 6-31G*
  Basis Set:
  Basis Set: 6-31G*
  Basis Set:
  @DF-RHF Final Energy:  -247.00552521431723
    Total Energy =                       -247.0055252143173448
  Basis Set: 6-31G*
  Basis Set:
  Basis Set: 6-31G*
  Basis Set:
  @DF-RHF Final Energy:  -247.00564117595223
    Total Energy =                       -247.0056411759520074
  Basis Set: 6-31G*
  Basis Set:
  Basis Set: 6-31G*
  Basis Set:
  @DF-RHF Final Energy:  -247.00553116499188
    Total Energy =                       -247.0055311649920213
  Basis Set: 6-31G*
  Basis Set:
  @DF-RHF Final Energy:  -247.00566381924054
    Total Energy =                       -247.0056638192405671
  @DF-RHF Final Energy:  -247.00567013495666
    Total Energy =                       -247.0056701349565174
  @DF-RHF Final Energy:  -247.00570068804288
    Total Energy =                       -247.0057006880426229
  @DF-RHF Final Energy:  -247.00570548998283
    Total Energy =                       -247.0057054899828017
  @DF-RHF Final Energy:  -247.00570873595865
    Total Energy =                       -247.0057087359587058
  @DF-RHF Final Energy:  -247.00571420974083
    Total Energy =                       -247.0057142097408587
  @DF-RHF Final Energy:  -247.00571955611130
    Total Energy =                       -247.0057195561113303
  @DF-RHF Final Energy:  -247.00572484764788
    Total Energy =                       -247.0057248476479117
  @DF-RHF Final Energy:  -247.00573271446731
    Total Energy =                       -247.0057327144673991
  @DF-RHF Final Energy:  -247.00574079376540
    Total Energy =                       -247.0057407937655398
  @DF-RHF Final Energy:  -247.00574336192304
    Total Energy =                       -247.0057433619230096
  @DF-RHF Final Energy:  -247.00574930114175
    Total Energy =                       -247.0057493011419183
  @DF-RHF Final Energy:  -247.00576623427921
    Total Energy =                       -247.0057662342790081
  @DF-RHF Final Energy:  -247.00578280935477
    Total Energy =                       -247.0057828093546846
  @DF-RHF Final Energy:  -247.00579811673848
    Total Energy =                       -247.0057981167384469
  @DF-RHF Final Energy:  -247.00580980717385
    Total Energy =                       -247.0058098071737049
  @DF-RHF Final Energy:  -247.00581376865878
    Total Energy =                       -247.0058137686589248
  @DF-RHF Final Energy:  -247.00581647363026
    Total Energy =                       -247.0058164736300910
  @DF-RHF Final Energy:  -247.00581890796710
    Total Energy =                       -247.0058189079670683
  @DF-RHF Final Energy:  -247.00582114806124
    Total Energy =                       -247.0058211480611021
  @DF-RHF Final Energy:  -247.00582318912390
    Total Energy =                       -247.0058231891240439
  @DF-RHF Final Energy:  -247.00582503131875
    Total Energy =                       -247.0058250313188637
  @DF-RHF Final Energy:  -247.00582667495141
    Total Energy =                       -247.0058266749513223
  Basis Set: 6-31G*
  Basis Set:
  @DF-RHF Final Energy:  -247.00582812106816
    Total Energy =                       -247.0058281210681344
  Basis Set: 6-31G*
  Basis Set:
  Basis Set: 6-31G*
  Basis Set:
  @DF-RHF Final Energy:  -247.00582937174431
    Total Energy =                       -247.0058293717443121
  Basis Set: 6-31G*
  Basis Set:
  Basis Set: 6-31G*
  Basis Set:
  @DF-RHF Final Energy:  -247.00583042956509
    Total Energy =                       -247.0058304295652647
  Basis Set: 6-31G*
  Basis Set:
  Charge       = 0
  Multiplicity = 1
  Basis Set: 6-31G*
  Basis Set:

    Orbital Energies (a.u.)
    -----------------------

    Doubly Occupied:

       1A    -20.514486     2A    -15.582288     3A    -11.341497
       4A    -11.255178     5A    -11.230092     6A     -1.383759
       7A     -1.228153     8A     -1.015075     9A     -0.932407
      10A     -0.787939    11A     -0.688950    12A     -0.647835
      13A     -0.632912    14A     -0.584318    15A     -0.579437
      16A     -0.555765    17A     -0.546732    18A     -0.502331
      19A     -0.412475    20A     -0.385716

  @DF-RHF Final Energy:  -247.00583129854070

   => Energetics <=

    Nuclear Repulsion Energy =            181.5274905028683463
    One-Electron Energy =                -695.4519530870486506
    Two-Electron Energy =                 266.9186312856395489
    DFT Exchange-Correlation Energy =       0.0000000000000000
    Empirical Dispersion Energy =           0.0000000000000000
    PCM Polarization Energy =               0.0000000000000000
    EFP Energy =                            0.0000000000000000
    Total Energy =                       -247.0058312985407838
    Molecular point group: c1
  Basis Set: 6-31G*
  Basis Set:

  -Total Gradient:
     Atom            X                  Y                   Z
    ------   -----------------  -----------------  -----------------
       1        0.000000761735     0.000001395358    -0.000000680307
       2       -0.000011056402    -0.000021985440     0.000015117094
       3       -0.000008056171    -0.000015958401     0.000020104653
       4        0.000010209570     0.000019671356    -0.000016802670
       5        0.000011601892     0.000023713114    -0.000023318897
       6       -0.000000219839    -0.000000110198    -0.000000427043
       7        0.000000531184     0.000000214571     0.000000247158
       8       -0.000001686409    -0.000002739752     0.000001498957
       9       -0.000003495858    -0.000008198820     0.000006808016
      10       -0.000001745505    -0.000001529174    -0.000009091767
      11        0.000003759415     0.000010058798    -0.000000189773
      12       -0.000000603610    -0.000004531414     0.000006734580

  **** Optimization is complete! (in 31 steps) ****
    Final optimized geometry and variables:
    Molecular point group: c1

    Geometry (in Angstrom), charge = 0, multiplicity = 1:

    H           -0.182902193338    -0.778570498648    -1.546993618876
    N           -0.482744406489    -0.286200552132    -0.738806442869
    C           -1.789351138086     0.334533851777    -0.748874471961
    C            0.407430492232    -0.041928234539     0.249340481158
    H           -2.390078215566    -0.131823427871    -1.518670706730
    H           -1.728454351750     1.399348646122    -0.946002372823
    H           -2.271768433901     0.193405874479     0.207610521546
    C            1.776270755485    -0.664508653875     0.069982455724
    O            0.139532691054     0.637772892751     1.202202886931
    H            2.440672348733     0.070909709734    -0.372640183070
    H            2.168346047528    -0.927936839814     1.042288140001
    H            1.761660411958    -1.542495629861    -0.565591976048

  Mulliken Charges: (a.u.)
   Center  Symbol    Alpha    Beta     Spin     Total
       1     H     0.30942  0.30942  0.00000  0.38116
       2     N     3.89274  3.89274  0.00000 -0.78548
       3     C     3.13493  3.13493  0.00000 -0.26985
       4     C     2.63040  2.63040  0.00000  0.73921
       5     H     0.41781  0.41781  0.00000  0.16438
       6     H     0.41116  0.41116  0.00000  0.17767
       7     H     0.39904  0.39904  0.00000  0.20193
       8     C     3.29120  3.29120  0.00000 -0.58240
       9     O     4.30287  4.30287  0.00000 -0.60574
      10     H     0.40034  0.40034  0.00000  0.19932
      11     H     0.39388  0.39388  0.00000  0.21224
      12     H     0.41621  0.41621  0.00000  0.16758

   Total alpha = 20.00000, Total beta = 20.00000, Total charge = -0.00000
