  ==> Input File <==

--------------------------------------------------------------------------
set {
	reference rhf
	basis 6-31G*
}

set_num_threads( 4 )
memory 2 gb

molecule MOL {
0 1

H	 4.529490	 0.167147	 -0.893803
C	 3.703481	 -0.412796	 -0.494898
C	 2.405274	 0.392945	 -0.514964
H	 3.614826	 -1.314910	 -1.093694
H	 3.967988	 -0.711774	 0.515496
C	 1.217350	 -0.386724	 0.039429
H	 2.172336	 0.703279	 -1.528780
H	 2.538439	 1.304494	 0.065327
N	 0.000003	 0.397874	 -0.023260
H	 1.067988	 -1.283591	 -0.555789
H	 1.443431	 -0.724638	 1.056326
C	 -1.217365	 -0.386708	 0.039277
H	 -0.000031	 1.072115	 0.718656
C	 -2.452633	 0.504241	 -0.042481
H	 -1.215291	 -1.074557	 -0.802042
H	 -1.269739	 -1.003477	 0.942735
C	 -3.758029	 -0.289423	 -0.010781
H	 -2.394220	 1.093569	 -0.952170
H	 -2.440793	 1.210787	 0.785871
H	 -3.816659	 -0.981993	 -0.845726
H	 -4.617837	 0.370165	 -0.069296
H	 -3.847478	 -0.867502	 0.904682

	symmetry c1
}
set optking {
	frozen_dihedral = ("
		10 6 9 12
	")
}

ee = optimize('scf')
oeprop('DIPOLE', 'QUADRUPOLE', 'MULLIKEN_CHARGES')
f=open( 'psi4out.xyz', 'w' )
f.write( "22  " )
f.write( str(ee) + "\n" )
f.write( MOL.save_string_xyz() )
f.close()
--------------------------------------------------------------------------

    Molecular point group: c1
  Charge       = 0
  Multiplicity = 1
  Basis Set: 6-31G*
  Basis Set:
  @DF-RHF Final Energy:  -290.38197717513589
    Total Energy =                       -290.3819771751359440
    Molecular point group: c1
  Basis Set: 6-31G*
  Basis Set:
  Basis Set: 6-31G*
  Basis Set:
  @DF-RHF Final Energy:  -290.38211064694673
    Total Energy =                       -290.3821106469468987
  Basis Set: 6-31G*
  Basis Set:
  Basis Set: 6-31G*
  Basis Set:
  @DF-RHF Final Energy:  -290.38213719424539
    Total Energy =                       -290.3821371942450469
  Basis Set: 6-31G*
  Basis Set:
  Basis Set: 6-31G*
  Basis Set:
  @DF-RHF Final Energy:  -290.38213952976315
    Total Energy =                       -290.3821395297632080
  Basis Set: 6-31G*
  Basis Set:
  Charge       = 0
  Multiplicity = 1
  Basis Set: 6-31G*
  Basis Set:

    Orbital Energies (a.u.)
    -----------------------

    Doubly Occupied:

       1A    -15.532554     2A    -11.238471     3A    -11.238005
       4A    -11.213673     5A    -11.210380     6A    -11.209855
       7A    -11.208044     8A     -1.203910     9A     -1.058362
      10A     -1.025231    11A     -0.927941    12A     -0.868818
      13A     -0.809390    14A     -0.793656    15A     -0.669581
      16A     -0.627044    17A     -0.614665    18A     -0.607854
      19A     -0.575343    20A     -0.562288    21A     -0.532021
      22A     -0.522093    23A     -0.516713    24A     -0.484840
      25A     -0.484273    26A     -0.473638    27A     -0.465080
      28A     -0.451604    29A     -0.355190

  @DF-RHF Final Energy:  -290.38214024499860

   => Energetics <=

    Nuclear Repulsion Energy =            313.0794895409634364
    One-Electron Energy =               -1011.9622286345911562
    Two-Electron Energy =                 408.5005988486291244
    DFT Exchange-Correlation Energy =       0.0000000000000000
    Empirical Dispersion Energy =           0.0000000000000000
    PCM Polarization Energy =               0.0000000000000000
    EFP Energy =                            0.0000000000000000
    Total Energy =                       -290.3821402449985953
    Molecular point group: c1
  Basis Set: 6-31G*
  Basis Set:

  -Total Gradient:
     Atom            X                  Y                   Z
    ------   -----------------  -----------------  -----------------
       1        0.000015236632    -0.000010253182    -0.000003967017
       2        0.000014228106     0.000012172163    -0.000012949712
       3       -0.000053101672    -0.000036532704     0.000033009348
       4       -0.000009499552     0.000010081199     0.000007916043
       5       -0.000001716460     0.000008523579    -0.000003061548
       6        0.001209916005     0.001676927600    -0.003984650455
       7       -0.000000222044    -0.000011939979     0.000007894420
       8        0.000002770135     0.000002343981     0.000011011174
       9       -0.000181503478    -0.000052594587     0.003864907673
      10       -0.001001210339    -0.001445617145     0.002373148485
      11        0.000017848962     0.000021790909     0.000024907565
      12        0.000002789152    -0.000170458227    -0.002302791617
      13       -0.000015387207    -0.000010878176     0.000003348414
      14       -0.000002490989    -0.000003226547    -0.000006964470
      15        0.000008129783     0.000009137143     0.000000262932
      16        0.000010096245     0.000010699407    -0.000011703519
      17       -0.000016362131     0.000007317218    -0.000001035667
      18        0.000000646844    -0.000006590213     0.000000679385
      19        0.000006405184    -0.000008851103    -0.000000475091
      20       -0.000000761423     0.000001011757    -0.000000265779
      21       -0.000007612458    -0.000003559871     0.000001603448
      22        0.000001800706     0.000000496777    -0.000000824011

  **** Optimization is complete! (in 5 steps) ****
    Final optimized geometry and variables:
    Molecular point group: c1

    Geometry (in Angstrom), charge = 0, multiplicity = 1:

    H            4.556844388128     0.228375636729    -0.725988292713
    C            3.732322818608    -0.359207383558    -0.335063286330
    C            2.422935011407     0.426976409678    -0.384802687984
    H            3.667303464846    -1.268830779441    -0.925868811873
    H            3.984541795668    -0.644669780509     0.682512094537
    C            1.235802590322    -0.365435954404     0.151309949530
    H            2.203368559309     0.729278601619    -1.403819461549
    H            2.528097326970     1.343847351202     0.192076066212
    N            0.011337745857     0.411129851634     0.100017906341
    H            1.089047256585    -1.264523219164    -0.440158332806
    H            1.458698475233    -0.716595914325     1.164164546816
    C           -1.211478601389    -0.362747036039     0.174860525426
    H            0.020669884230     1.112511112667     0.814891853649
    C           -2.438010716696     0.541368214960     0.106283975343
    H           -1.224227973340    -1.047685446719    -0.668187902514
    H           -1.265533153833    -0.980679814526     1.077697194133
    C           -3.751288126438    -0.239045082376     0.141019887274
    H           -2.378718145059     1.135533196606    -0.800322977045
    H           -2.414111663573     1.242507942636     0.938933108387
    H           -3.821895924607    -0.926089695202    -0.697521431358
    H           -4.604526333134     0.429748550807     0.091276569369
    H           -3.841389627299    -0.821383720047     1.053692092350

  Mulliken Charges: (a.u.)
   Center  Symbol    Alpha    Beta     Spin     Total
       1     H     0.41792  0.41792  0.00000  0.16416
       2     C     3.24448  3.24448  0.00000 -0.48896
       3     C     3.14860  3.14860  0.00000 -0.29720
       4     H     0.42165  0.42165  0.00000  0.15670
       5     H     0.42226  0.42226  0.00000  0.15547
       6     C     3.05000  3.05000  0.00000 -0.10000
       7     H     0.41466  0.41466  0.00000  0.17068
       8     H     0.42591  0.42591  0.00000  0.14818
       9     N     3.86081  3.86081  0.00000 -0.72161
      10     H     0.42218  0.42218  0.00000  0.15564
      11     H     0.43501  0.43501  0.00000  0.12998
      12     C     3.04456  3.04456  0.00000 -0.08912
      13     H     0.33415  0.33415  0.00000  0.33170
      14     C     3.15656  3.15656  0.00000 -0.31312
      15     H     0.42152  0.42152  0.00000  0.15695
      16     H     0.43681  0.43681  0.00000  0.12639
      17     C     3.24323  3.24323  0.00000 -0.48646
      18     H     0.41305  0.41305  0.00000  0.17391
      19     H     0.42667  0.42667  0.00000  0.14665
      20     H     0.42070  0.42070  0.00000  0.15861
      21     H     0.41771  0.41771  0.00000  0.16457
      22     H     0.42157  0.42157  0.00000  0.15686

   Total alpha = 29.00000, Total beta = 29.00000, Total charge =  0.00000
