                              Psi4 1.0.54 Driver

  ==> Input File <==

--------------------------------------------------------------------------
set {
	reference rhf
	basis cc-pvtz
}

set_num_threads( 4 )
memory 2 gb

molecule MOL {
0 1

H	 -4.340537	 -0.784487	 0.000000
O	 -3.958786	 0.074640	 0.000000
C	 -2.613554	 0.009900	 0.000000
C	 -2.024548	 -1.082977	 0.613896
C	 -1.821491	 0.980910	 -0.581947
H	 -2.648681	 -1.830232	 1.062147
C	 -0.652596	 -1.199563	 0.643054
H	 -2.271134	 1.831660	 -1.060081
C	 -0.443907	 0.862296	 -0.551777
H	 -0.198845	 -2.045684	 1.118404
C	 0.135122	 -0.225598	 0.059523
H	 0.166291	 1.617657	 -1.004315
Br	 2.025806	 -0.390976	 0.102421

	symmetry c1
}
set optking {
	frozen_dihedral = ("
		4 3 2 1
	")
}

ee,wfn = optimize('scf', return_wfn=True)
oeprop( wfn, 'DIPOLE', 'QUADRUPOLE', 'MULLIKEN_CHARGES')
f=open( 'psi4out.xyz', 'w' )
f.write( "13  " )
f.write( str(ee) + "\n" )
f.write( MOL.save_string_xyz() )
f.close()
--------------------------------------------------------------------------

    Molecular point group: c1
  Charge       = 0
  Multiplicity = 1
  Basis Set: CC-PVTZ
  Basis Set:
  @DF-RHF Final Energy: -2877.54401132576777
    Total Energy =                      -2877.5440113257695884
    Molecular point group: c1
  Basis Set: CC-PVTZ
  Basis Set:
  Basis Set: CC-PVTZ
  Basis Set:
  @DF-RHF Final Energy: -2877.54578736274971
    Total Energy =                      -2877.5457873627510708
  Basis Set: CC-PVTZ
  Basis Set:
  Basis Set: CC-PVTZ
  Basis Set:
  @DF-RHF Final Energy: -2877.54592461417906
    Total Energy =                      -2877.5459246141781477
  Basis Set: CC-PVTZ
  Basis Set:
  Basis Set: CC-PVTZ
  Basis Set:
  @DF-RHF Final Energy: -2877.54594282541984
    Total Energy =                      -2877.5459428254198428
  Basis Set: CC-PVTZ
  Basis Set:
  Basis Set: CC-PVTZ
  Basis Set:
  @DF-RHF Final Energy: -2877.54594730359258
    Total Energy =                      -2877.5459473035948577
  Basis Set: CC-PVTZ
  Basis Set:
  Charge       = 0
  Multiplicity = 1
  Basis Set: CC-PVTZ
  Basis Set:

    Orbital Energies (a.u.)
    -----------------------

    Doubly Occupied:

       1A   -490.018958     2A    -65.159282     3A    -58.514508
       4A    -58.513140     5A    -58.513134     6A    -20.593533
       7A    -11.309935     8A    -11.289074     9A    -11.253674
      10A    -11.252079    11A    -11.242861    12A    -11.238052
      13A     -9.833079    14A     -7.444699    15A     -7.437942
      16A     -7.437881    17A     -3.188389    18A     -3.184835
      19A     -3.184730    20A     -3.176080    21A     -3.176076
      22A     -1.424206    23A     -1.180060    24A     -1.066947
      25A     -1.042069    26A     -0.970541    27A     -0.867933
      28A     -0.827828    29A     -0.757293    30A     -0.687844
      31A     -0.654574    32A     -0.635523    33A     -0.610210
      34A     -0.605898    35A     -0.571102    36A     -0.525431
      37A     -0.508392    38A     -0.501486    39A     -0.428969
      40A     -0.414050    41A     -0.360023    42A     -0.319800

  @DF-RHF Final Energy: -2877.54594772595783

   => Energetics <=

    Nuclear Repulsion Energy =            525.4280572685923971
    One-Electron Energy =               -5042.1037754990629765
    Two-Electron Energy =                1639.1297705045135444
    DFT Exchange-Correlation Energy =       0.0000000000000000
    Empirical Dispersion Energy =           0.0000000000000000
    PCM Polarization Energy =               0.0000000000000000
    EFP Energy =                            0.0000000000000000
    Total Energy =                      -2877.5459477259573760
    Molecular point group: c1
  Basis Set: CC-PVTZ
  Basis Set:

  -Total Gradient:
     Atom            X                  Y                   Z
    ------   -----------------  -----------------  -----------------
       1        0.000062234375    -0.000018687633    -0.002263875690
       2       -0.000039265515     0.000486138051     0.003648435036
       3       -0.000125012441    -0.001328155197    -0.002884975280
       4        0.000054834337     0.000832629032     0.001482567913
       5        0.000075337067     0.000018317219     0.000022325837
       6        0.000002104321    -0.000001470438    -0.000000330835
       7       -0.000016332303    -0.000014370770     0.000034074454
       8       -0.000013404567    -0.000006351230     0.000000345870
       9       -0.000004261218    -0.000012808248     0.000003272232
      10        0.000006026000     0.000003102059    -0.000009013859
      11        0.000000111508     0.000047013589    -0.000028568848
      12        0.000001395709     0.000001770356    -0.000006489371
      13       -0.000003768126    -0.000007126648     0.000002232579

  **** Optimization is complete! (in 6 steps) ****
    Final optimized geometry and variables:
    Molecular point group: c1

    Geometry (in Angstrom), charge = 0, multiplicity = 1:

    H           -4.382690327798    -0.508218695647    -0.142064533862
    O           -3.946615050550     0.324873427616    -0.136460292389
    C           -2.604774083501     0.172138353645    -0.096340938996
    C           -2.004635099747    -0.912426356795     0.515122364453
    C           -1.823241370141     1.172340643395    -0.646031439809
    H           -2.607699835038    -1.681011014392     0.961562434180
    C           -0.626554447157    -1.008947190341     0.558486700100
    H           -2.299856936119     2.012548719603    -1.110611080525
    C           -0.448492084854     1.081676631789    -0.592780725757
    H           -0.164447625706    -1.853562209433     1.028304034311
    C            0.145351069481    -0.011511257414     0.005878272350
    H            0.155228166983     1.856660366382    -1.020141238708
    BR           2.038134153350    -0.138632311670     0.070146237521

  Mulliken Charges: (a.u.)
   Center  Symbol    Alpha    Beta     Spin     Total
       1     H     0.38526  0.38526  0.00000  0.22948
       2     O     4.17560  4.17560  0.00000 -0.35119
       3     C     2.86637  2.86637  0.00000  0.26726
       4     C     3.11352  3.11352  0.00000 -0.22704
       5     C     3.09280  3.09280  0.00000 -0.18560
       6     H     0.42646  0.42646  0.00000  0.14709
       7     C     3.08514  3.08514  0.00000 -0.17029
       8     H     0.41494  0.41494  0.00000  0.17013
       9     C     3.07870  3.07870  0.00000 -0.15740
      10     H     0.41057  0.41057  0.00000  0.17887
      11     C     2.97372  2.97372  0.00000  0.05255
      12     H     0.41058  0.41058  0.00000  0.17883
      13    BR    17.56634 17.56634  0.00000 -0.13267

   Total alpha = 42.00000, Total beta = 42.00000, Total charge = -0.00000

*** Psi4 exiting successfully. Buy a developer a beer!
