  ==> Input File <==

--------------------------------------------------------------------------
set {
	reference rhf
	basis 6-31G*
}

set_num_threads( 4 )
memory 2 gb

molecule MOL {
0 1

H	 -2.798360	 -0.862255	 -0.071053
N	 -1.863561	 -0.715187	 0.256814
C	 -1.344686	 0.554728	 -0.219830
H	 -1.300452	 -1.461917	 -0.101532
C	 0.081427	 0.741154	 0.254071
H	 -1.362155	 0.656231	 -1.305829
H	 -1.952773	 1.354456	 0.191809
O	 0.874168	 -0.245412	 -0.342030
H	 0.444037	 1.730782	 -0.023037
H	 0.121165	 0.653424	 1.337565
C	 1.337447	 -1.219235	 0.538090
H	 1.933409	 -1.919356	 -0.031433
H	 1.957329	 -0.785734	 1.320909
H	 0.514781	 -1.755446	 1.006606

	symmetry c1
}
set optking {
	frozen_dihedral = ("
		11 8 5 3
	")
}

ee = optimize('scf')
oeprop('DIPOLE', 'QUADRUPOLE', 'MULLIKEN_CHARGES')
f=open( 'psi4out.xyz', 'w' )
f.write( "14  " )
f.write( str(ee) + "\n" )
f.write( MOL.save_string_xyz() )
f.close()
--------------------------------------------------------------------------

    Molecular point group: c1
  Charge       = 0
  Multiplicity = 1
  Basis Set: 6-31G*
  Basis Set:
  @DF-RHF Final Energy:  -248.11928559480737
    Total Energy =                       -248.1192855948073657
    Molecular point group: c1
  Basis Set: 6-31G*
  Basis Set:
  Basis Set: 6-31G*
  Basis Set:
  @DF-RHF Final Energy:  -248.12096887835563
    Total Energy =                       -248.1209688783555976
  Basis Set: 6-31G*
  Basis Set:
  Basis Set: 6-31G*
  Basis Set:
  @DF-RHF Final Energy:  -248.12113833732434
    Total Energy =                       -248.1211383373243393
  Basis Set: 6-31G*
  Basis Set:
  Basis Set: 6-31G*
  Basis Set:
  @DF-RHF Final Energy:  -248.12115026226726
    Total Energy =                       -248.1211502622671787
  Basis Set: 6-31G*
  Basis Set:
  Charge       = 0
  Multiplicity = 1
  Basis Set: 6-31G*
  Basis Set:

    Orbital Energies (a.u.)
    -----------------------

    Doubly Occupied:

       1A    -20.550874     2A    -15.535515     3A    -11.263668
       4A    -11.260572     5A    -11.241701     6A     -1.372145
       7A     -1.177786     8A     -0.998272     9A     -0.906823
      10A     -0.812633    11A     -0.686664    12A     -0.667488
      13A     -0.639771    14A     -0.615027    15A     -0.598483
      16A     -0.538398    17A     -0.531076    18A     -0.507442
      19A     -0.465833    20A     -0.414212    21A     -0.380638

  @DF-RHF Final Energy:  -248.12115087997839

   => Energetics <=

    Nuclear Repulsion Energy =            196.8222668597362315
    One-Electron Energy =                -727.5567932725865603
    Two-Electron Energy =                 282.6133755328718280
    DFT Exchange-Correlation Energy =       0.0000000000000000
    Empirical Dispersion Energy =           0.0000000000000000
    PCM Polarization Energy =               0.0000000000000000
    EFP Energy =                            0.0000000000000000
    Total Energy =                       -248.1211508799784724
    Molecular point group: c1
  Basis Set: 6-31G*
  Basis Set:

  -Total Gradient:
     Atom            X                  Y                   Z
    ------   -----------------  -----------------  -----------------
       1        0.000019521440    -0.000016514572     0.000010270808
       2       -0.000076922770     0.000030532702    -0.000016946729
       3       -0.000165835834    -0.000798254555     0.000929015005
       4        0.000003734458     0.000042863670     0.000007662535
       5       -0.000127267701     0.000627062096    -0.001417271500
       6       -0.000002562649    -0.000004059247     0.000011227929
       7       -0.000007135722    -0.000008338021     0.000015948997
       8        0.001449489992     0.000884855960     0.000719248405
       9        0.000018292070     0.000018132330    -0.000013321883
      10       -0.000003435877    -0.000018903125    -0.000014270801
      11       -0.001117070032    -0.000735027811    -0.000250410870
      12       -0.000001589766     0.000001292248     0.000007709306
      13        0.000009172133    -0.000008948443     0.000005712748
      14        0.000001610256    -0.000014693232     0.000005426052

  **** Optimization is complete! (in 5 steps) ****
    Final optimized geometry and variables:
    Molecular point group: c1

    Geometry (in Angstrom), charge = 0, multiplicity = 1:

    H           -2.682898787227    -0.594566757520    -0.099022990303
    N           -1.702053632082    -0.528560142531     0.092633922929
    C           -1.187149625581     0.769184561102    -0.314159423488
    H           -1.254005723417    -1.247967293721    -0.441232023701
    C            0.249955847413     0.943067205467     0.144932775407
    H           -1.233040986125     0.929730639840    -1.392064299348
    H           -1.790771147711     1.542062681558     0.152601449333
    O            1.078481404140    -0.046549955606    -0.407667591093
    H            0.622633743136     1.910171070098    -0.178055854533
    H            0.288853123495     0.910404864440     1.229415641374
    C            1.564187673340    -1.004405520757     0.486115840911
    H            2.129371384283    -1.723582914496    -0.092017253452
    H            2.226029126322    -0.556089860066     1.224057835565
    H            0.760967192983    -1.515585079272     1.006064500165

  Mulliken Charges: (a.u.)
   Center  Symbol    Alpha    Beta     Spin     Total
       1     H     0.33070  0.33070  0.00000  0.33861
       2     N     3.92616  3.92616  0.00000 -0.85231
       3     C     3.07057  3.07057  0.00000 -0.14114
       4     H     0.32727  0.32727  0.00000  0.34545
       5     C     2.98974  2.98974  0.00000  0.02052
       6     H     0.42661  0.42661  0.00000  0.14678
       7     H     0.42234  0.42234  0.00000  0.15532
       8     O     4.31367  4.31367  0.00000 -0.62734
       9     H     0.42124  0.42124  0.00000  0.15752
      10     H     0.42356  0.42356  0.00000  0.15287
      11     C     3.08459  3.08459  0.00000 -0.16918
      12     H     0.41565  0.41565  0.00000  0.16869
      13     H     0.42868  0.42868  0.00000  0.14265
      14     H     0.41922  0.41922  0.00000  0.16157

   Total alpha = 21.00000, Total beta = 21.00000, Total charge =  0.00000
