  ==> Input File <==

--------------------------------------------------------------------------
set {
	reference rhf
	basis cc-pvtz
}

set_num_threads( 4 )
memory 2 gb

molecule MOL {
0 1

H	 -1.966284	 0.042381	 0.396347
N	 -1.173824	 -0.310545	 -0.096857
C	 -0.022588	 0.563366	 0.065815
H	 -0.982973	 -1.221773	 0.264878
C	 1.270420	 -0.230572	 -0.014245
H	 -0.045354	 1.293678	 -0.735129
H	 -0.043155	 1.123061	 1.001180
H	 1.336273	 -0.754933	 -0.959364
H	 2.130728	 0.422015	 0.082222
H	 1.323344	 -0.967006	 0.781773

	symmetry c1
}
set optking {
	frozen_dihedral = ("
		1 2 3 6
	")
}

ee = optimize('scf')
oeprop('DIPOLE', 'QUADRUPOLE', 'MULLIKEN_CHARGES')
f=open( 'psi4out.xyz', 'w' )
f.write( "10  " )
f.write( str(ee) + "\n" )
f.write( MOL.save_string_xyz() )
f.close()
--------------------------------------------------------------------------

    Molecular point group: c1
  Charge       = 0
  Multiplicity = 1
  Basis Set: CC-PVTZ
  Basis Set:
  @DF-RHF Final Energy:  -134.30260422646390
    Total Energy =                       -134.3026042264639273
    Molecular point group: c1
  Basis Set: CC-PVTZ
  Basis Set:
  Basis Set: CC-PVTZ
  Basis Set:
  @DF-RHF Final Energy:  -134.30277890198693
    Total Energy =                       -134.3027789019868692
  Basis Set: CC-PVTZ
  Basis Set:
  Basis Set: CC-PVTZ
  Basis Set:
  @DF-RHF Final Energy:  -134.30279884072462
    Total Energy =                       -134.3027988407246198
  Basis Set: CC-PVTZ
  Basis Set:
  Charge       = 0
  Multiplicity = 1
  Basis Set: CC-PVTZ
  Basis Set:

    Orbital Energies (a.u.)
    -----------------------

    Doubly Occupied:

       1A    -15.526537     2A    -11.240894     3A    -11.209632
       4A     -1.177569     5A     -0.990215     6A     -0.827921
       7A     -0.657940     8A     -0.630065     9A     -0.590510
      10A     -0.522213    11A     -0.502477    12A     -0.493180
      13A     -0.385580

  @DF-RHF Final Energy:  -134.30279984120443

   => Energetics <=

    Nuclear Repulsion Energy =             83.5184609058008078
    One-Electron Energy =                -346.1330535315788666
    Two-Electron Energy =                 128.3117927845736119
    DFT Exchange-Correlation Energy =       0.0000000000000000
    Empirical Dispersion Energy =           0.0000000000000000
    PCM Polarization Energy =               0.0000000000000000
    EFP Energy =                            0.0000000000000000
    Total Energy =                       -134.3027998412044610
    Molecular point group: c1
  Basis Set: CC-PVTZ
  Basis Set:

  -Total Gradient:
     Atom            X                  Y                   Z
    ------   -----------------  -----------------  -----------------
       1        0.000882586354    -0.001762565466     0.002733393975
       2       -0.000705102832     0.001773457148    -0.003815137043
       3       -0.001966497130     0.001833679537     0.002835059004
       4       -0.000003867125    -0.000004956089    -0.000009843065
       5        0.000006898975     0.000030236882     0.000071666052
       6        0.001716463016    -0.001875663489    -0.001743897977
       7        0.000043245653     0.000006296450    -0.000013361560
       8        0.000004790283     0.000009505827    -0.000023441834
       9        0.000018522244    -0.000002799850    -0.000022036532
      10        0.000002960561    -0.000007190949    -0.000012401019

  **** Optimization is complete! (in 4 steps) ****
    Final optimized geometry and variables:
    Molecular point group: c1

    Geometry (in Angstrom), charge = 0, multiplicity = 1:

    H           -1.983415443908     0.049827068686     0.371160882215
    N           -1.183417257194    -0.302406988731    -0.110294736945
    C           -0.029475618442     0.571470580343     0.073322329461
    H           -1.001150549801    -1.202508081639     0.282632323244
    C            1.266429642472    -0.219059842001    -0.014987351472
    H           -0.027400702209     1.309761919233    -0.721268589298
    H           -0.058325468324     1.107745996314     1.019287352797
    H            1.319887511653    -0.756901371201    -0.954621749157
    H            2.124790817631     0.439088681559     0.048467207013
    H            1.340228066264    -0.941359875663     0.792231691873

  Mulliken Charges: (a.u.)
   Center  Symbol    Alpha    Beta     Spin     Total
       1     H     0.43143  0.43143  0.00000  0.13715
       2     N     3.68613  3.68613  0.00000 -0.37226
       3     C     3.01339  3.01339  0.00000 -0.02677
       4     H     0.43230  0.43230  0.00000  0.13541
       5     C     3.14492  3.14492  0.00000 -0.28985
       6     H     0.46180  0.46180  0.00000  0.07640
       7     H     0.46844  0.46844  0.00000  0.06311
       8     H     0.44906  0.44906  0.00000  0.10188
       9     H     0.45204  0.45204  0.00000  0.09592
      10     H     0.46049  0.46049  0.00000  0.07901

   Total alpha = 13.00000, Total beta = 13.00000, Total charge = -0.00000
