  ==> Input File <==

--------------------------------------------------------------------------
set {
	reference rhf
	basis 6-31G*
}

set_num_threads( 1 )
memory 2 gb

molecule MOL {
0 1

H	 3.893188	 0.355400	 -0.101367
N	 3.092854	 -0.246221	 -0.068770
C	 1.865559	 0.531981	 0.018834
H	 3.199514	 -0.826043	 0.741946
C	 0.645745	 -0.382037	 -0.029944
H	 1.841966	 1.207024	 -0.831236
H	 1.815756	 1.155410	 0.915079
C	 -0.679275	 0.379305	 0.025956
H	 0.698998	 -0.976915	 -0.937203
H	 0.693479	 -1.083846	 0.802235
C	 -1.392228	 0.250032	 1.373309
H	 -1.337258	 0.016664	 -0.762333
H	 -0.503418	 1.432984	 -0.185425
C	 -2.717737	 1.009003	 1.423295
H	 -1.570154	 -0.801782	 1.586012
H	 -0.738091	 0.614101	 2.162749
H	 -3.407111	 0.644230	 0.666974
H	 -3.198966	 0.897744	 2.390065
H	 -2.568637	 2.070879	 1.248424

	symmetry c1
}
set optking {
	frozen_dihedral = ("
		6 3 5 9,
		12 8 11 15,
		1 2 3 6
	")
}

ee = energy('scf')
oeprop('DIPOLE', 'QUADRUPOLE', 'MULLIKEN_CHARGES')
f=open( 'psi4out.xyz', 'w' )
f.write( "19  " )
f.write( str(ee) + "\n" )
f.write( MOL.save_string_xyz() )
f.close()
--------------------------------------------------------------------------

    Molecular point group: c1

    Geometry (in Angstrom), charge = 0, multiplicity = 1:

       Center              X                  Y                   Z               Mass
    ------------   -----------------  -----------------  -----------------  -----------------
           H          3.723458452780     0.094171793360    -0.566674878447     1.007825032070
           N          2.923124452780    -0.507449206640    -0.534077878447    14.003074004780
           C          1.695829452780     0.270752793360    -0.446473878447    12.000000000000
           H          3.029784452780    -1.087271206640     0.276638121553     1.007825032070
           C          0.476015452780    -0.643265206640    -0.495251878447    12.000000000000
           H          1.672236452780     0.945795793360    -1.296543878447     1.007825032070
           H          1.646026452780     0.894181793360     0.449771121553     1.007825032070
           C         -0.849004547220     0.118076793360    -0.439351878447    12.000000000000
           H          0.529268452780    -1.238143206640    -1.402510878447     1.007825032070
           H          0.523749452780    -1.345074206640     0.336927121553     1.007825032070
           C         -1.561957547220    -0.011196206640     0.908001121553    12.000000000000
           H         -1.506987547220    -0.244564206640    -1.227640878447     1.007825032070
           H         -0.673147547220     1.171755793360    -0.650732878447     1.007825032070
           C         -2.887466547220     0.747774793360     0.957987121553    12.000000000000
           H         -1.739883547220    -1.063010206640     1.120704121553     1.007825032070
           H         -0.907820547220     0.352872793360     1.697441121553     1.007825032070
           H         -3.576840547220     0.383001793360     0.201666121553     1.007825032070
           H         -3.368695547220     0.636515793360     1.924757121553     1.007825032070
           H         -2.738366547220     1.809650793360     0.783116121553     1.007825032070

  Charge       = 0
  Multiplicity = 1
  Basis Set: 6-31G*
  Basis Set:

    Orbital Energies (a.u.)
    -----------------------

    Doubly Occupied:

       1A    -15.532360     2A    -11.240145     3A    -11.214878
       4A    -11.211600     5A    -11.208014     6A    -11.207692
       7A     -1.176637     8A     -1.073588     9A     -0.997773
      10A     -0.899636    11A     -0.819028    12A     -0.786588
      13A     -0.660395    14A     -0.637496    15A     -0.621211
      16A     -0.592626    17A     -0.563431    18A     -0.550531
      19A     -0.532575    20A     -0.495108    21A     -0.485264
      22A     -0.466697    23A     -0.455976    24A     -0.447299
      25A     -0.380978

  @DF-RHF Final Energy:  -251.34699710823378

   => Energetics <=

    Nuclear Repulsion Energy =            247.5548385011494474
    One-Electron Energy =                -829.2885528867731182
    Two-Electron Energy =                 330.3867172773897209
    DFT Exchange-Correlation Energy =       0.0000000000000000
    Empirical Dispersion Energy =           0.0000000000000000
    PCM Polarization Energy =               0.0000000000000000
    EFP Energy =                            0.0000000000000000
    Total Energy =                       -251.3469971082339498

  Mulliken Charges: (a.u.)
   Center  Symbol    Alpha    Beta     Spin     Total
       1     H     0.33260  0.33260  0.00000  0.33480
       2     N     3.92202  3.92202  0.00000 -0.84404
       3     C     3.06279  3.06279  0.00000 -0.12559
       4     H     0.33527  0.33527  0.00000  0.32947
       5     C     3.15382  3.15382  0.00000 -0.30765
       6     H     0.42023  0.42023  0.00000  0.15954
       7     H     0.43472  0.43472  0.00000  0.13056
       8     C     3.15792  3.15792  0.00000 -0.31584
       9     H     0.41077  0.41077  0.00000  0.17846
      10     H     0.42535  0.42535  0.00000  0.14931
      11     C     3.15295  3.15295  0.00000 -0.30590
      12     H     0.41976  0.41976  0.00000  0.16048
      13     H     0.42260  0.42260  0.00000  0.15480
      14     C     3.23971  3.23971  0.00000 -0.47941
      15     H     0.42209  0.42209  0.00000  0.15581
      16     H     0.42414  0.42414  0.00000  0.15173
      17     H     0.42147  0.42147  0.00000  0.15706
      18     H     0.41977  0.41977  0.00000  0.16047
      19     H     0.42202  0.42202  0.00000  0.15596

   Total alpha = 25.00000, Total beta = 25.00000, Total charge =  0.00000
