  ==> Input File <==

--------------------------------------------------------------------------
set {
	reference rhf
	basis cc-pvtz
}

set_num_threads( 4 )
memory 2 gb

molecule MOL {
0 1

H	 2.646708	 0.758099	 0.000000
O	 2.258158	 -0.097743	 0.000000
C	 0.911162	 -0.015915	 0.000000
C	 0.345220	 1.230288	 0.213284
C	 0.102469	 -1.118348	 -0.202677
H	 0.987961	 2.074226	 0.368691
C	 -1.026516	 1.361977	 0.221795
H	 0.541534	 -2.085546	 -0.368212
C	 -1.273284	 -0.971253	 -0.191498
H	 -1.459540	 2.330176	 0.387571
C	 -1.847333	 0.264752	 0.019905
H	 -1.894012	 -1.832637	 -0.349740
H	 -2.913946	 0.375064	 0.027916

	symmetry c1
}
set optking {
	frozen_dihedral = ("
		4 3 2 1
	")
}

ee = optimize('scf')
oeprop('DIPOLE', 'QUADRUPOLE', 'MULLIKEN_CHARGES')
f=open( 'psi4out.xyz', 'w' )
f.write( "13  " )
f.write( str(ee) + "\n" )
f.write( MOL.save_string_xyz() )
f.close()
--------------------------------------------------------------------------

    Molecular point group: c1
  Charge       = 0
  Multiplicity = 1
  Basis Set: CC-PVTZ
  Basis Set:
  @DF-RHF Final Energy:  -305.66844930142855
    Total Energy =                       -305.6684493014286090
    Molecular point group: c1
  Basis Set: CC-PVTZ
  Basis Set:
  Basis Set: CC-PVTZ
  Basis Set:
  @DF-RHF Final Energy:  -305.67024448658458
    Total Energy =                       -305.6702444865843518
  Basis Set: CC-PVTZ
  Basis Set:
  Basis Set: CC-PVTZ
  Basis Set:
  @DF-RHF Final Energy:  -305.67039899893530
    Total Energy =                       -305.6703989989353545
  Basis Set: CC-PVTZ
  Basis Set:
  Basis Set: CC-PVTZ
  Basis Set:
  @DF-RHF Final Energy:  -305.67042004040059
    Total Energy =                       -305.6704200404004723
  Basis Set: CC-PVTZ
  Basis Set:
  Basis Set: CC-PVTZ
  Basis Set:
  @DF-RHF Final Energy:  -305.67042407263142
    Total Energy =                       -305.6704240726312491
  Basis Set: CC-PVTZ
  Basis Set:
  Charge       = 0
  Multiplicity = 1
  Basis Set: CC-PVTZ
  Basis Set:

    Orbital Energies (a.u.)
    -----------------------

    Doubly Occupied:

       1A    -20.584723     2A    -11.297500     3A    -11.235225
       4A    -11.233425     5A    -11.226168     6A    -11.220609
       7A    -11.219527     8A     -1.415346     9A     -1.152666
      10A     -1.022810    11A     -1.008388    12A     -0.851211
      13A     -0.826746    14A     -0.741569    15A     -0.688285
      16A     -0.654817    17A     -0.612978    18A     -0.596520
      19A     -0.592058    20A     -0.566668    21A     -0.517562
      22A     -0.493079    23A     -0.485328    24A     -0.343223
      25A     -0.314955

  @DF-RHF Final Energy:  -305.67042434406443

   => Energetics <=

    Nuclear Repulsion Energy =            273.8291098628570239
    One-Electron Energy =                -957.1962895439057775
    Two-Electron Energy =                 377.6967553369840971
    DFT Exchange-Correlation Energy =       0.0000000000000000
    Empirical Dispersion Energy =           0.0000000000000000
    PCM Polarization Energy =               0.0000000000000000
    EFP Energy =                            0.0000000000000000
    Total Energy =                       -305.6704243440647133
    Molecular point group: c1
  Basis Set: CC-PVTZ
  Basis Set:

  -Total Gradient:
     Atom            X                  Y                   Z
    ------   -----------------  -----------------  -----------------
       1        0.000008267463    -0.000002496258    -0.000910399255
       2        0.000048554773    -0.000055437845     0.001563624426
       3        0.000017866646     0.000190308339    -0.001422208304
       4        0.000002535140    -0.000102001665     0.000716239889
       5       -0.000079975092    -0.000009786918     0.000030658402
       6       -0.000000950908    -0.000003107398     0.000002358423
       7       -0.000007817811     0.000006892282     0.000019860642
       8        0.000006280622     0.000005290725    -0.000002640861
       9        0.000009232295    -0.000015808576     0.000047225077
      10       -0.000009390233    -0.000004286166    -0.000001717923
      11        0.000007315321    -0.000014695223    -0.000033848764
      12       -0.000001981455    -0.000000364123    -0.000009975713
      13        0.000000063245     0.000005492827     0.000000823960

  **** Optimization is complete! (in 6 steps) ****
    Final optimized geometry and variables:
    Molecular point group: c1

    Geometry (in Angstrom), charge = 0, multiplicity = 1:

    H            2.694760018796     0.565346137280    -0.011663656211
    O            2.245440025796    -0.260269744374    -0.017828600232
    C            0.907610013818    -0.081220944459    -0.010557801087
    C            0.328167986624     1.155053399900     0.206704163714
    C            0.110199764359    -1.195671489234    -0.210428153821
    H            0.947269473730     2.018565466569     0.369992627293
    C           -1.049944863221     1.274755189037     0.214828834106
    H            0.576565234970    -2.147053695324    -0.374564399462
    C           -1.261670011594    -1.062558365049    -0.195240906144
    H           -1.491787557433     2.238718927334     0.381868827927
    C           -1.853543794610     0.171452129524     0.015247250541
    H           -1.874525864739    -1.930006627049    -0.351384884528
    H           -2.921539930694     0.267773645718     0.023978647003

  Mulliken Charges: (a.u.)
   Center  Symbol    Alpha    Beta     Spin     Total
       1     H     0.38727  0.38727  0.00000  0.22546
       2     O     4.17533  4.17533  0.00000 -0.35065
       3     C     2.85005  2.85005  0.00000  0.29990
       4     C     3.13372  3.13372  0.00000 -0.26743
       5     C     3.11101  3.11101  0.00000 -0.22201
       6     H     0.43459  0.43459  0.00000  0.13082
       7     C     3.06479  3.06479  0.00000 -0.12958
       8     H     0.41943  0.41943  0.00000  0.16115
       9     C     3.05664  3.05664  0.00000 -0.11328
      10     H     0.42237  0.42237  0.00000  0.15525
      11     C     3.09847  3.09847  0.00000 -0.19694
      12     H     0.42242  0.42242  0.00000  0.15516
      13     H     0.42392  0.42392  0.00000  0.15216

   Total alpha = 25.00000, Total beta = 25.00000, Total charge = -0.00000
