  ==> Input File <==

--------------------------------------------------------------------------
set {
	reference rhf
	basis 6-31G*
}

set_num_threads( 1 )
memory 2 gb

molecule MOL {
0 1

O	 -1.609357	 1.206777	 0.206795
C	 -1.083277	 0.139568	 0.115197
C	 0.323299	 -0.082943	 0.642902
C	 -1.772979	 -1.031779	 -0.548194
C	 1.355627	 -0.005344	 -0.493127
H	 0.396251	 -1.044647	 1.143147
H	 0.528637	 0.693580	 1.371677
C	 2.786168	 -0.195604	 0.007473
H	 1.132807	 -0.760304	 -1.243899
H	 1.259610	 0.958506	 -0.981915
H	 3.495561	 -0.130713	 -0.811210
H	 2.912696	 -1.165395	 0.480041
H	 3.049284	 0.565503	 0.735850
H	 -1.133730	 -1.477005	 -1.305030
H	 -2.702349	 -0.708563	 -0.996010
H	 -1.977543	 -1.801373	 0.191457

	symmetry c1
}
set optking {
	frozen_dihedral = ("
		9 5 3 2
	")
}

ee = energy('scf')
oeprop('DIPOLE', 'QUADRUPOLE', 'MULLIKEN_CHARGES')
f=open( 'psi4out.xyz', 'w' )
f.write( "16  " )
f.write( str(ee) + "\n" )
f.write( MOL.save_string_xyz() )
f.close()
--------------------------------------------------------------------------

    Molecular point group: c1

    Geometry (in Angstrom), charge = 0, multiplicity = 1:

       Center              X                  Y                   Z               Mass
    ------------   -----------------  -----------------  -----------------  -----------------
           O         -1.616098055636     1.203517575791     0.223388917890    15.994914619560
           C         -1.090018055636     0.136308575791     0.131790917890    12.000000000000
           C          0.316557944364    -0.086202424209     0.659495917890    12.000000000000
           C         -1.779720055636    -1.035038424209    -0.531600082110    12.000000000000
           C          1.348885944364    -0.008603424209    -0.476533082110    12.000000000000
           H          0.389509944364    -1.047906424209     1.159740917890     1.007825032070
           H          0.521895944364     0.690320575791     1.388270917890     1.007825032070
           C          2.779426944364    -0.198863424209     0.024066917890    12.000000000000
           H          1.126065944364    -0.763563424209    -1.227305082110     1.007825032070
           H          1.252868944364     0.955246575791    -0.965321082110     1.007825032070
           H          3.488819944364    -0.133972424209    -0.794616082110     1.007825032070
           H          2.905954944364    -1.168654424209     0.496634917890     1.007825032070
           H          3.042542944364     0.562243575791     0.752443917890     1.007825032070
           H         -1.140471055636    -1.480264424209    -1.288436082110     1.007825032070
           H         -2.709090055636    -0.711822424209    -0.979416082110     1.007825032070
           H         -1.984284055636    -1.804632424209     0.208050917890     1.007825032070

  Charge       = 0
  Multiplicity = 1
  Basis Set: 6-31G*
  Basis Set:

    Orbital Energies (a.u.)
    -----------------------

    Doubly Occupied:

       1A    -20.548294     2A    -11.324652     3A    -11.234940
       4A    -11.229749     5A    -11.228446     6A    -11.220633
       7A     -1.393628     8A     -1.084444     9A     -1.012232
      10A     -0.950091    11A     -0.830706    12A     -0.735765
      13A     -0.659593    14A     -0.649316    15A     -0.612626
      16A     -0.608512    17A     -0.577104    18A     -0.556830
      19A     -0.534663    20A     -0.520029    21A     -0.505836
      22A     -0.485688    23A     -0.472390    24A     -0.398240

  @DF-RHF Final Energy:  -270.02999543414955

   => Energetics <=

    Nuclear Repulsion Energy =            237.2316821403514666
    One-Electron Energy =                -835.7746129178785850
    Two-Electron Energy =                 328.5129353433777624
    DFT Exchange-Correlation Energy =       0.0000000000000000
    Empirical Dispersion Energy =           0.0000000000000000
    PCM Polarization Energy =               0.0000000000000000
    EFP Energy =                            0.0000000000000000
    Total Energy =                       -270.0299954341493276

  Mulliken Charges: (a.u.)
   Center  Symbol    Alpha    Beta     Spin     Total
       1     O     4.26049  4.26049  0.00000 -0.52097
       2     C     2.73747  2.73747  0.00000  0.52507
       3     C     3.19981  3.19981  0.00000 -0.39962
       4     C     3.28956  3.28956  0.00000 -0.57912
       5     C     3.16421  3.16421  0.00000 -0.32842
       6     H     0.41594  0.41594  0.00000  0.16812
       7     H     0.40018  0.40018  0.00000  0.19963
       8     C     3.23919  3.23919  0.00000 -0.47838
       9     H     0.41960  0.41960  0.00000  0.16081
      10     H     0.40833  0.40833  0.00000  0.18334
      11     H     0.41547  0.41547  0.00000  0.16905
      12     H     0.42027  0.42027  0.00000  0.15946
      13     H     0.41700  0.41700  0.00000  0.16600
      14     H     0.40908  0.40908  0.00000  0.18184
      15     H     0.39638  0.39638  0.00000  0.20725
      16     H     0.40704  0.40704  0.00000  0.18592

   Total alpha = 24.00000, Total beta = 24.00000, Total charge =  0.00000
