  ==> Input File <==

--------------------------------------------------------------------------
set {
	reference rhf
	basis 6-31G*
}

set_num_threads( 1 )
memory 2 gb

molecule MOL {
0 1

H	 -3.686706	 -0.489520	 -1.459772
O	 -3.452007	 0.283848	 -0.965577
C	 -3.181085	 -0.079926	 0.364119
C	 -1.765924	 0.277073	 0.805136
H	 -3.327791	 -1.152017	 0.410903
H	 -3.905698	 0.375695	 1.036898
C	 -0.677594	 -0.417312	 -0.014550
H	 -1.637766	 1.358238	 0.744969
H	 -1.659588	 0.017670	 1.857098
C	 0.738335	 -0.034840	 0.421385
H	 -0.814977	 -0.178223	 -1.064632
H	 -0.802730	 -1.495410	 0.071702
C	 1.822265	 -0.738362	 -0.399735
H	 0.853533	 1.043532	 0.342250
H	 0.871597	 -0.279636	 1.474438
C	 3.258060	 -0.455774	 0.057203
H	 1.718003	 -0.459167	 -1.447053
H	 1.651028	 -1.811884	 -0.354513
C	 3.709143	 0.994797	 -0.123830
H	 3.930637	 -1.101717	 -0.501982
H	 3.365259	 -0.739518	 1.102287
H	 3.601178	 1.310569	 -1.158127
H	 4.753787	 1.110486	 0.148516
H	 3.135362	 1.678896	 0.492569

	symmetry c1
}
set optking {
	frozen_dihedral = ("
		20 16 13 17,
		17 13 10 7,
		13 10 7 11,
		11 7 4 3,
		7 4 3 2
	")
}

ee = energy('scf')
oeprop('DIPOLE', 'QUADRUPOLE', 'MULLIKEN_CHARGES')
f=open( 'psi4out.xyz', 'w' )
f.write( "24  " )
f.write( str(ee) + "\n" )
f.write( MOL.save_string_xyz() )
f.close()
--------------------------------------------------------------------------

    Molecular point group: c1

    Geometry (in Angstrom), charge = 0, multiplicity = 1:

       Center              X                  Y                   Z               Mass
    ------------   -----------------  -----------------  -----------------  -----------------
           H         -3.684397391830    -0.474618503855    -1.456165674497     1.007825032070
           O         -3.449698391830     0.298749496145    -0.961970674497    15.994914619560
           C         -3.178776391830    -0.065024503855     0.367725325503    12.000000000000
           C         -1.763615391830     0.291974496145     0.808742325503    12.000000000000
           H         -3.325482391830    -1.137115503855     0.414509325503     1.007825032070
           H         -3.903389391830     0.390596496145     1.040504325503     1.007825032070
           C         -0.675285391830    -0.402410503855    -0.010943674497    12.000000000000
           H         -1.635457391830     1.373139496145     0.748575325503     1.007825032070
           H         -1.657279391830     0.032571496145     1.860704325503     1.007825032070
           C          0.740643608170    -0.019938503855     0.424991325503    12.000000000000
           H         -0.812668391830    -0.163321503855    -1.061025674497     1.007825032070
           H         -0.800421391830    -1.480508503855     0.075308325503     1.007825032070
           C          1.824573608170    -0.723460503855    -0.396128674497    12.000000000000
           H          0.855841608170     1.058433496145     0.345856325503     1.007825032070
           H          0.873905608170    -0.264734503855     1.478044325503     1.007825032070
           C          3.260368608170    -0.440872503855     0.060809325503    12.000000000000
           H          1.720311608170    -0.444265503855    -1.443446674497     1.007825032070
           H          1.653336608170    -1.796982503855    -0.350906674497     1.007825032070
           C          3.711451608170     1.009698496145    -0.120223674497    12.000000000000
           H          3.932945608170    -1.086815503855    -0.498375674497     1.007825032070
           H          3.367567608170    -0.724616503855     1.105893325503     1.007825032070
           H          3.603486608170     1.325470496145    -1.154520674497     1.007825032070
           H          4.756095608170     1.125387496145     0.152122325503     1.007825032070
           H          3.137670608170     1.693797496145     0.496175325503     1.007825032070

  Charge       = 0
  Multiplicity = 1
  Basis Set: 6-31G*
  Basis Set:

    Orbital Energies (a.u.)
    -----------------------

    Doubly Occupied:

       1A    -20.551555     2A    -11.268383     3A    -11.213562
       4A    -11.213450     5A    -11.211667     6A    -11.211168
       7A    -11.210684     8A    -11.206309     9A     -1.359330
      10A     -1.087551    11A     -1.047086    12A     -0.984798
      13A     -0.914232    14A     -0.846867    15A     -0.791598
      16A     -0.775729    17A     -0.703269    18A     -0.642909
      19A     -0.631532    20A     -0.609386    21A     -0.595691
      22A     -0.579885    23A     -0.560170    24A     -0.537066
      25A     -0.512910    26A     -0.508896    27A     -0.494790
      28A     -0.472809    29A     -0.463357    30A     -0.460323
      31A     -0.455040    32A     -0.450522    33A     -0.417686

  @DF-RHF Final Energy:  -349.24453577587082

   => Energetics <=

    Nuclear Repulsion Energy =            384.2190007905078915
    One-Electron Energy =               -1234.9466891534366368
    Two-Electron Energy =                 501.4831525870582709
    DFT Exchange-Correlation Energy =       0.0000000000000000
    Empirical Dispersion Energy =           0.0000000000000000
    PCM Polarization Energy =               0.0000000000000000
    EFP Energy =                            0.0000000000000000
    Total Energy =                       -349.2445357758705313

  Mulliken Charges: (a.u.)
   Center  Symbol    Alpha    Beta     Spin     Total
       1     H     0.27852  0.27852  0.00000  0.44296
       2     O     4.37205  4.37205  0.00000 -0.74411
       3     C     2.99640  2.99640  0.00000  0.00720
       4     C     3.15892  3.15892  0.00000 -0.31783
       5     H     0.43505  0.43505  0.00000  0.12991
       6     H     0.42134  0.42134  0.00000  0.15731
       7     C     3.15641  3.15641  0.00000 -0.31282
       8     H     0.41620  0.41620  0.00000  0.16760
       9     H     0.42447  0.42447  0.00000  0.15105
      10     C     3.15351  3.15351  0.00000 -0.30703
      11     H     0.41276  0.41276  0.00000  0.17449
      12     H     0.42879  0.42879  0.00000  0.14242
      13     C     3.15224  3.15224  0.00000 -0.30449
      14     H     0.42019  0.42019  0.00000  0.15962
      15     H     0.42555  0.42555  0.00000  0.14890
      16     C     3.15222  3.15222  0.00000 -0.30444
      17     H     0.42378  0.42378  0.00000  0.15244
      18     H     0.42351  0.42351  0.00000  0.15297
      19     C     3.24109  3.24109  0.00000 -0.48218
      20     H     0.42153  0.42153  0.00000  0.15693
      21     H     0.42385  0.42385  0.00000  0.15230
      22     H     0.42201  0.42201  0.00000  0.15597
      23     H     0.41974  0.41974  0.00000  0.16052
      24     H     0.41984  0.41984  0.00000  0.16032

   Total alpha = 33.00000, Total beta = 33.00000, Total charge =  0.00000
