  ==> Input File <==

--------------------------------------------------------------------------
set {
	reference rhf
	basis 6-31G*
}

set_num_threads( 1 )
memory 2 gb

molecule MOL {
0 1

O	 -1.761691	 1.653541	 -1.281179
C	 -1.891638	 0.670339	 -0.617205
C	 -0.889235	 -0.467034	 -0.705952
C	 -3.033316	 0.519614	 0.363218
C	 0.379448	 -0.143569	 0.099626
H	 -0.630827	 -0.596831	 -1.751266
H	 -1.329745	 -1.393535	 -0.348776
C	 1.631333	 -0.777471	 -0.511575
H	 0.482768	 0.934507	 0.149241
H	 0.263088	 -0.495696	 1.123449
C	 2.915987	 -0.544314	 0.291766
H	 1.766672	 -0.399098	 -1.523130
H	 1.471257	 -1.849544	 -0.605828
C	 3.373361	 0.914346	 0.347591
H	 3.708709	 -1.142521	 -0.150311
H	 2.780642	 -0.921148	 1.303579
H	 3.506512	 1.320010	 -0.651625
H	 4.322697	 0.999599	 0.867103
H	 2.660624	 1.545032	 0.868198
H	 -3.692863	 -0.279785	 0.035768
H	 -3.592062	 1.443022	 0.425697
H	 -2.662015	 0.245604	 1.346508

	symmetry c1
}
set optking {
	frozen_dihedral = ("
		6 3 2 1,
		3 5 8 12,
		12 8 11 15
	")
}

ee = energy('scf')
oeprop('DIPOLE', 'QUADRUPOLE', 'MULLIKEN_CHARGES')
f=open( 'psi4out.xyz', 'w' )
f.write( "22  " )
f.write( str(ee) + "\n" )
f.write( MOL.save_string_xyz() )
f.close()
--------------------------------------------------------------------------

    Molecular point group: c1

    Geometry (in Angstrom), charge = 0, multiplicity = 1:

       Center              X                  Y                   Z               Mass
    ------------   -----------------  -----------------  -----------------  -----------------
           O         -1.856161440783     1.408886460632    -1.034163291055    15.994914619560
           C         -1.986108440783     0.425684460632    -0.370189291055    12.000000000000
           C         -0.983705440783    -0.711688539368    -0.458936291055    12.000000000000
           C         -3.127786440783     0.274959460632     0.610233708945    12.000000000000
           C          0.284977559217    -0.388223539368     0.346641708945    12.000000000000
           H         -0.725297440783    -0.841485539368    -1.504250291055     1.007825032070
           H         -1.424215440783    -1.638189539368    -0.101760291055     1.007825032070
           C          1.536862559217    -1.022125539368    -0.264559291055    12.000000000000
           H          0.388297559217     0.689852460632     0.396256708945     1.007825032070
           H          0.168617559217    -0.740350539368     1.370464708945     1.007825032070
           C          2.821516559217    -0.788968539368     0.538781708945    12.000000000000
           H          1.672201559217    -0.643752539368    -1.276114291055     1.007825032070
           H          1.376786559217    -2.094198539368    -0.358812291055     1.007825032070
           C          3.278890559217     0.669691460632     0.594606708945    12.000000000000
           H          3.614238559217    -1.387175539368     0.096704708945     1.007825032070
           H          2.686171559217    -1.165802539368     1.550594708945     1.007825032070
           H          3.412041559217     1.075355460632    -0.404609291055     1.007825032070
           H          4.228226559217     0.754944460632     1.114118708945     1.007825032070
           H          2.566153559217     1.300377460632     1.115213708945     1.007825032070
           H         -3.787333440783    -0.524439539368     0.282783708945     1.007825032070
           H         -3.686532440783     1.198367460632     0.672712708945     1.007825032070
           H         -2.756485440783     0.000949460632     1.593523708945     1.007825032070

  Charge       = 0
  Multiplicity = 1
  Basis Set: 6-31G*
  Basis Set:

    Orbital Energies (a.u.)
    -----------------------

    Doubly Occupied:

       1A    -20.546983     2A    -11.324569     3A    -11.228590
       4A    -11.228155     5A    -11.228020     6A    -11.221228
       7A    -11.219319     8A    -11.209924     9A     -1.393032
      10A     -1.094843    11A     -1.043615    12A     -0.999298
      13A     -0.936569    14A     -0.857049    15A     -0.786006
      16A     -0.733606    17A     -0.662827    18A     -0.639895
      19A     -0.626989    20A     -0.616821    21A     -0.598251
      22A     -0.587122    23A     -0.558085    24A     -0.542804
      25A     -0.531234    26A     -0.521777    27A     -0.500442
      28A     -0.482444    29A     -0.467122    30A     -0.463240
      31A     -0.460066    32A     -0.396228

  @DF-RHF Final Energy:  -348.09528910365589

   => Energetics <=

    Nuclear Repulsion Energy =            374.1605706621812715
    One-Electron Energy =               -1213.0995223830705072
    Two-Electron Energy =                 490.8436626172331785
    DFT Exchange-Correlation Energy =       0.0000000000000000
    Empirical Dispersion Energy =           0.0000000000000000
    PCM Polarization Energy =               0.0000000000000000
    EFP Energy =                            0.0000000000000000
    Total Energy =                       -348.0952891036560573

  Mulliken Charges: (a.u.)
   Center  Symbol    Alpha    Beta     Spin     Total
       1     O     4.26258  4.26258  0.00000 -0.52516
       2     C     2.74058  2.74058  0.00000  0.51883
       3     C     3.19929  3.19929  0.00000 -0.39858
       4     C     3.28945  3.28945  0.00000 -0.57890
       5     C     3.16396  3.16396  0.00000 -0.32792
       6     H     0.40022  0.40022  0.00000  0.19956
       7     H     0.41566  0.41566  0.00000  0.16868
       8     C     3.15418  3.15418  0.00000 -0.30837
       9     H     0.40395  0.40395  0.00000  0.19210
      10     H     0.42049  0.42049  0.00000  0.15902
      11     C     3.15413  3.15413  0.00000 -0.30826
      12     H     0.41813  0.41813  0.00000  0.16375
      13     H     0.42144  0.42144  0.00000  0.15711
      14     C     3.24162  3.24162  0.00000 -0.48324
      15     H     0.41955  0.41955  0.00000  0.16090
      16     H     0.42352  0.42352  0.00000  0.15296
      17     H     0.41966  0.41966  0.00000  0.16069
      18     H     0.41865  0.41865  0.00000  0.16270
      19     H     0.41923  0.41923  0.00000  0.16153
      20     H     0.40687  0.40687  0.00000  0.18626
      21     H     0.39723  0.39723  0.00000  0.20553
      22     H     0.40960  0.40960  0.00000  0.18080

   Total alpha = 32.00000, Total beta = 32.00000, Total charge =  0.00000
