  ==> Input File <==

--------------------------------------------------------------------------
set {
	reference rhf
	basis 6-31G*
}

set_num_threads( 1 )
memory 2 gb

molecule MOL {
0 1

H	 -2.798360	 -0.862255	 -0.071053
N	 -1.863561	 -0.715187	 0.256814
C	 -1.344686	 0.554728	 -0.219830
H	 -1.300452	 -1.461917	 -0.101532
C	 -0.106133	 0.324519	 -1.060142
H	 -2.060336	 1.126924	 -0.811810
H	 -1.072176	 1.162075	 0.637870
O	 -0.478368	 -0.391274	 -2.203020
H	 0.338939	 1.277920	 -1.344001
H	 0.626686	 -0.237255	 -0.485146
C	 0.584054	 -0.747807	 -3.028680
H	 0.177054	 -1.290064	 -3.871298
H	 1.113038	 0.129126	 -3.397659
H	 1.295099	 -1.386146	 -2.508346

	symmetry c1
}
set optking {
	frozen_dihedral = ("
		8 5 3 6,
		5 8 11 13,
		11 8 5 3
	")
}

ee = energy('scf')
oeprop('DIPOLE', 'QUADRUPOLE', 'MULLIKEN_CHARGES')
f=open( 'psi4out.xyz', 'w' )
f.write( "14  " )
f.write( str(ee) + "\n" )
f.write( MOL.save_string_xyz() )
f.close()
--------------------------------------------------------------------------

    Molecular point group: c1

    Geometry (in Angstrom), charge = 0, multiplicity = 1:

       Center              X                  Y                   Z               Mass
    ------------   -----------------  -----------------  -----------------  -----------------
           H         -2.160841188683    -0.645791312133     1.199671367255     1.007825032070
           N         -1.226042188683    -0.498723312133     1.527538367255    14.003074004780
           C         -0.707167188683     0.771191687867     1.050894367255    12.000000000000
           H         -0.662933188683    -1.245453312133     1.169192367255     1.007825032070
           C          0.531385811317     0.540982687867     0.210582367255    12.000000000000
           H         -1.422817188683     1.343387687867     0.458914367255     1.007825032070
           H         -0.434657188683     1.378538687867     1.908594367255     1.007825032070
           O          0.159150811317    -0.174810312133    -0.932295632745    15.994914619560
           H          0.976457811317     1.494383687867    -0.073276632745     1.007825032070
           H          1.264204811317    -0.020791312133     0.785578367255     1.007825032070
           C          1.221572811317    -0.531343312133    -1.757955632745    12.000000000000
           H          0.814572811317    -1.073600312133    -2.600573632745     1.007825032070
           H          1.750556811317     0.345589687867    -2.126934632745     1.007825032070
           H          1.932617811317    -1.169682312133    -1.237621632745     1.007825032070

  Charge       = 0
  Multiplicity = 1
  Basis Set: 6-31G*
  Basis Set:

    Orbital Energies (a.u.)
    -----------------------

    Doubly Occupied:

       1A    -20.561646     2A    -15.525631     3A    -11.271371
       4A    -11.270321     5A    -11.240360     6A     -1.386257
       7A     -1.173860     8A     -1.000483     9A     -0.910219
      10A     -0.822297    11A     -0.691116    12A     -0.667120
      13A     -0.652263    14A     -0.626315    15A     -0.582888
      16A     -0.550335    17A     -0.535887    18A     -0.504935
      19A     -0.471786    20A     -0.423243    21A     -0.376307

  @DF-RHF Final Energy:  -248.11892682911977

   => Energetics <=

    Nuclear Repulsion Energy =            195.2799843888565476
    One-Electron Energy =                -724.3084626497611680
    Two-Electron Energy =                 280.9095514317843936
    DFT Exchange-Correlation Energy =       0.0000000000000000
    Empirical Dispersion Energy =           0.0000000000000000
    PCM Polarization Energy =               0.0000000000000000
    EFP Energy =                            0.0000000000000000
    Total Energy =                       -248.1189268291202552

  Mulliken Charges: (a.u.)
   Center  Symbol    Alpha    Beta     Spin     Total
       1     H     0.32981  0.32981  0.00000  0.34038
       2     N     3.92848  3.92848  0.00000 -0.85696
       3     C     3.05452  3.05452  0.00000 -0.10904
       4     H     0.32602  0.32602  0.00000  0.34796
       5     C     3.01286  3.01286  0.00000 -0.02572
       6     H     0.41885  0.41885  0.00000  0.16230
       7     H     0.42011  0.42011  0.00000  0.15978
       8     O     4.30570  4.30570  0.00000 -0.61141
       9     H     0.42670  0.42670  0.00000  0.14660
      10     H     0.42755  0.42755  0.00000  0.14491
      11     C     3.07989  3.07989  0.00000 -0.15978
      12     H     0.41131  0.41131  0.00000  0.17738
      13     H     0.42873  0.42873  0.00000  0.14253
      14     H     0.42946  0.42946  0.00000  0.14108

   Total alpha = 21.00000, Total beta = 21.00000, Total charge = -0.00000
