  ==> Input File <==

--------------------------------------------------------------------------
set {
	reference rhf
	basis cc-pvtz
}

set_num_threads( 4 )
memory 2 gb

molecule MOL {
0 1

H	 3.889604	 0.356866	 -0.089510
N	 3.091268	 -0.241216	 -0.065538
C	 1.860978	 0.530248	 0.016256
H	 3.192566	 -0.835836	 0.730398
C	 0.644130	 -0.381765	 -0.031064
H	 1.835721	 1.204666	 -0.833114
H	 1.808789	 1.151975	 0.911067
C	 -0.678115	 0.376691	 0.025731
H	 0.693998	 -0.977147	 -0.936845
H	 0.693309	 -1.082142	 0.800523
C	 -1.700498	 -0.260285	 0.962853
H	 -1.101059	 0.437275	 -0.974470
H	 -0.496127	 1.401653	 0.340702
C	 -3.023138	 0.497270	 1.011921
H	 -1.883359	 -1.284536	 0.650179
H	 -1.281759	 -0.318533	 1.963871
H	 -3.484746	 0.542750	 0.031060
H	 -3.725286	 0.019153	 1.685270
H	 -2.878249	 1.516501	 1.354720

	symmetry c1
}
set optking {
	frozen_dihedral = ("
		12 8 5 9
	")
}

ee = optimize('scf')
oeprop('DIPOLE', 'QUADRUPOLE', 'MULLIKEN_CHARGES')
f=open( 'psi4out.xyz', 'w' )
f.write( "19  " )
f.write( str(ee) + "\n" )
f.write( MOL.save_string_xyz() )
f.close()
--------------------------------------------------------------------------

    Molecular point group: c1
  Charge       = 0
  Multiplicity = 1
  Basis Set: CC-PVTZ
  Basis Set:
  @DF-RHF Final Energy:  -251.44387750296818
    Total Energy =                       -251.4438775029683484
    Molecular point group: c1
  Basis Set: CC-PVTZ
  Basis Set:
  Basis Set: CC-PVTZ
  Basis Set:
  @DF-RHF Final Energy:  -251.44411829702324
    Total Energy =                       -251.4441182970230670
  Basis Set: CC-PVTZ
  Basis Set:
  Basis Set: CC-PVTZ
  Basis Set:
  @DF-RHF Final Energy:  -251.44417594265710
    Total Energy =                       -251.4441759426570684
  Basis Set: CC-PVTZ
  Basis Set:
  Charge       = 0
  Multiplicity = 1
  Basis Set: CC-PVTZ
  Basis Set:

    Orbital Energies (a.u.)
    -----------------------

    Doubly Occupied:

       1A    -15.526351     2A    -11.238204     3A    -11.212473
       4A    -11.210416     5A    -11.207504     6A    -11.205518
       7A     -1.178291     8A     -1.073030     9A     -0.998768
      10A     -0.900903    11A     -0.814758    12A     -0.789470
      13A     -0.663943    14A     -0.642215    15A     -0.616541
      16A     -0.594864    17A     -0.562399    18A     -0.548606
      19A     -0.536542    20A     -0.490644    21A     -0.488468
      22A     -0.465334    23A     -0.457790    24A     -0.448594
      25A     -0.383931

  @DF-RHF Final Energy:  -251.44417614734888

   => Energetics <=

    Nuclear Repulsion Energy =            246.2918527765385477
    One-Electron Energy =                -826.9609370543658997
    Two-Electron Energy =                 329.2249081304784113
    DFT Exchange-Correlation Energy =       0.0000000000000000
    Empirical Dispersion Energy =           0.0000000000000000
    PCM Polarization Energy =               0.0000000000000000
    EFP Energy =                            0.0000000000000000
    Total Energy =                       -251.4441761473489123
    Molecular point group: c1
  Basis Set: CC-PVTZ
  Basis Set:

  -Total Gradient:
     Atom            X                  Y                   Z
    ------   -----------------  -----------------  -----------------
       1        0.000010267605    -0.000003546764     0.000001835285
       2        0.000006909667    -0.000011715576     0.000005818937
       3       -0.000052661663     0.000033045914    -0.000011111295
       4        0.000016390210    -0.000001764446     0.000003307120
       5       -0.002162915122    -0.003880035657     0.001928188605
       6        0.000008479274     0.000003942514     0.000011195871
       7        0.000015020997     0.000044495828     0.000008265745
       8        0.002279976425     0.004041058766    -0.000969971158
       9        0.001395580675     0.002506801370    -0.001579433665
      10       -0.000039052444     0.000047293906     0.000002584554
      11        0.000052086018     0.000074794178     0.000115509035
      12       -0.001553078425    -0.002765639101     0.000467703331
      13        0.000057835528    -0.000033775149     0.000056516467
      14       -0.000020612985    -0.000041120619    -0.000082262667
      15        0.000015715026    -0.000014414776     0.000030851786
      16       -0.000023186074     0.000011555818     0.000031378418
      17       -0.000020567070     0.000027205593    -0.000009445321
      18        0.000001435982    -0.000017577798    -0.000020881712
      19        0.000012376373    -0.000020604000     0.000009950665

  **** Optimization is complete! (in 4 steps) ****
    Final optimized geometry and variables:
    Molecular point group: c1

    Geometry (in Angstrom), charge = 0, multiplicity = 1:

    H            3.832185857114     0.259302807088    -0.489224478037
    N            3.033448615454    -0.337380295905    -0.448684688568
    C            1.808925488028     0.432912554238    -0.307428837020
    H            3.161888948112    -0.949352705617     0.330084761239
    C            0.586897794157    -0.476723708329    -0.319721557274
    H            1.749795761053     1.120525449488    -1.144906400083
    H            1.790857035290     1.041649677481     0.597930922890
    C           -0.737184820224     0.302142266561    -0.262258589399
    H            0.637415223013    -1.071786275380    -1.223768568694
    H            0.653134421793    -1.163650617834     0.519664181652
    C           -1.781936026994    -0.342026429857     0.647924691801
    H           -1.158892532235     0.370763382179    -1.260262555811
    H           -0.558538543193     1.319539154762     0.074236768861
    C           -3.114468987121     0.398681452675     0.651277695437
    H           -1.941735617233    -1.370692524321     0.335764038843
    H           -1.392479017979    -0.389766727101     1.661442566587
    H           -3.547183450792     0.430745030664    -0.343187948565
    H           -3.830578190077    -0.082569857999     1.307567202456
    H           -2.992135824697     1.422487260924     0.989501879947

  Mulliken Charges: (a.u.)
   Center  Symbol    Alpha    Beta     Spin     Total
       1     H     0.43014  0.43014  0.00000  0.13972
       2     N     3.68994  3.68994  0.00000 -0.37988
       3     C     3.02430  3.02430  0.00000 -0.04860
       4     H     0.43094  0.43094  0.00000  0.13813
       5     C     3.08551  3.08551  0.00000 -0.17102
       6     H     0.45623  0.45623  0.00000  0.08753
       7     H     0.46942  0.46942  0.00000  0.06117
       8     C     3.09679  3.09679  0.00000 -0.19358
       9     H     0.44706  0.44706  0.00000  0.10588
      10     H     0.45946  0.45946  0.00000  0.08109
      11     C     3.08387  3.08387  0.00000 -0.16773
      12     H     0.45152  0.45152  0.00000  0.09697
      13     H     0.45650  0.45650  0.00000  0.08701
      14     C     3.14994  3.14994  0.00000 -0.29988
      15     H     0.45322  0.45322  0.00000  0.09357
      16     H     0.45585  0.45585  0.00000  0.08829
      17     H     0.45505  0.45505  0.00000  0.08990
      18     H     0.44876  0.44876  0.00000  0.10248
      19     H     0.45552  0.45552  0.00000  0.08896

   Total alpha = 25.00000, Total beta = 25.00000, Total charge =  0.00000
