                              Psi4 1.0.54 Driver

  ==> Input File <==

--------------------------------------------------------------------------
set {
	reference rhf
	basis cc-pvtz
}

set_num_threads( 4 )
memory 2 gb

molecule MOL {
0 1

H	 2.614283	 2.028610	 0.296620
O	 3.358864	 1.662087	 -0.142800
C	 3.565468	 0.338079	 0.273842
C	 2.533667	 -0.637565	 -0.272227
H	 4.548038	 0.064914	 -0.086598
H	 3.593945	 0.282242	 1.360360
C	 2.267899	 -0.496639	 -1.769343
H	 2.864169	 -1.648426	 -0.052938
H	 1.606090	 -0.483180	 0.273818
C	 1.203419	 -1.469354	 -2.274856
H	 3.192136	 -0.657286	 -2.314302
H	 1.950750	 0.522393	 -1.984463
C	 0.843578	 -1.321924	 -3.754394
H	 1.532212	 -2.488285	 -2.085380
H	 0.300797	 -1.329244	 -1.686543
C	 1.957217	 -1.695716	 -4.731037
H	 -0.020050	 -1.948600	 -3.959217
H	 0.525640	 -0.299466	 -3.945837
C	 1.518551	 -1.627583	 -6.191632
H	 2.304953	 -2.702314	 -4.508981
H	 2.812013	 -1.040846	 -4.591498
C	 2.629122	 -1.996558	 -7.169580
H	 0.671061	 -2.290493	 -6.342925
H	 1.162903	 -0.624763	 -6.412833
H	 2.984593	 -3.006719	 -6.995074
H	 2.283972	 -1.940596	 -8.195664
H	 3.477504	 -1.327531	 -7.069567

	symmetry c1
}
set optking {
	frozen_dihedral = ("
		8 4 3 2
	")
}

ee,wfn = optimize('scf', return_wfn=True)
oeprop( wfn, 'DIPOLE', 'QUADRUPOLE', 'MULLIKEN_CHARGES')
f=open( 'psi4out.xyz', 'w' )
f.write( "27  " )
f.write( str(ee) + "\n" )
f.write( MOL.save_string_xyz() )
f.close()
--------------------------------------------------------------------------

    Molecular point group: c1
  Charge       = 0
  Multiplicity = 1
  Basis Set: CC-PVTZ
  Basis Set:
  @DF-RHF Final Energy:  -388.42689279793763
    Total Energy =                       -388.4268927979373984
    Molecular point group: c1
  Basis Set: CC-PVTZ
  Basis Set:
  Basis Set: CC-PVTZ
  Basis Set:
  @DF-RHF Final Energy:  -388.42723726735494
    Total Energy =                       -388.4272372673551672
  Basis Set: CC-PVTZ
  Basis Set:
  Basis Set: CC-PVTZ
  Basis Set:
  @DF-RHF Final Energy:  -388.42730438227534
    Total Energy =                       -388.4273043822752243
  Basis Set: CC-PVTZ
  Basis Set:
  Basis Set: CC-PVTZ
  Basis Set:
  @DF-RHF Final Energy:  -388.42730954693184
    Total Energy =                       -388.4273095469320651
  Basis Set: CC-PVTZ
  Basis Set:
  Basis Set: CC-PVTZ
  Basis Set:
  @DF-RHF Final Energy:  -388.42730934847657
    Total Energy =                       -388.4273093484758874
  Basis Set: CC-PVTZ
  Basis Set:
  Basis Set: CC-PVTZ
  Basis Set:
  @DF-RHF Final Energy:  -388.42731054094435
    Total Energy =                       -388.4273105409440632
  Basis Set: CC-PVTZ
  Basis Set:
  Charge       = 0
  Multiplicity = 1
  Basis Set: CC-PVTZ
  Basis Set:

    Orbital Energies (a.u.)
    -----------------------

    Doubly Occupied:

       1A    -20.546672     2A    -11.265585     3A    -11.214642
       4A    -11.210489     5A    -11.210373     6A    -11.209121
       7A    -11.207970     8A    -11.207705     9A    -11.204291
      10A     -1.364256    11A     -1.091962    12A     -1.059241
      13A     -1.009989    14A     -0.945864    15A     -0.884658
      16A     -0.820157    17A     -0.800575    18A     -0.774527
      19A     -0.683546    20A     -0.651919    21A     -0.640638
      22A     -0.613965    23A     -0.606177    24A     -0.584998
      25A     -0.570458    26A     -0.558037    27A     -0.539073
      28A     -0.518673    29A     -0.508177    30A     -0.491842
      31A     -0.479100    32A     -0.468402    33A     -0.465301
      34A     -0.457267    35A     -0.455425    36A     -0.440077
      37A     -0.422959

  @DF-RHF Final Energy:  -388.42731077989816

   => Energetics <=

    Nuclear Repulsion Energy =            460.0433757455256796
    One-Electron Energy =               -1438.5731457450310700
    Two-Electron Energy =                 590.1024592196069989
    DFT Exchange-Correlation Energy =       0.0000000000000000
    Empirical Dispersion Energy =           0.0000000000000000
    PCM Polarization Energy =               0.0000000000000000
    EFP Energy =                            0.0000000000000000
    Total Energy =                       -388.4273107798983347
    Molecular point group: c1
  Basis Set: CC-PVTZ
  Basis Set:

  -Total Gradient:
     Atom            X                  Y                   Z
    ------   -----------------  -----------------  -----------------
       1       -0.000011424236     0.000022783442    -0.000000811166
       2        0.001565523135    -0.000506351696    -0.002270755767
       3       -0.001790107347     0.000667804687     0.002456971605
       4       -0.001413315461     0.000010281007     0.002844374214
       5       -0.000003595157    -0.000010505891     0.000007193492
       6        0.000004609341    -0.000014473579     0.000002662230
       7        0.000002272833     0.000000606320    -0.000002455973
       8        0.001656854346    -0.000169554743    -0.003039192246
       9       -0.000002727028     0.000000923291    -0.000001696481
      10        0.000001669544    -0.000001151759     0.000001075767
      11       -0.000008117760    -0.000000120835     0.000010231664
      12       -0.000000060801     0.000001681853    -0.000000690666
      13        0.000000416480    -0.000005015274    -0.000000492175
      14       -0.000000941228    -0.000001387478    -0.000001278092
      15       -0.000000085824    -0.000001623880     0.000001801422
      16       -0.000001583329     0.000005136469    -0.000001670699
      17        0.000000559589     0.000001386924    -0.000001204065
      18        0.000002244712    -0.000001235577    -0.000001830532
      19        0.000001626217     0.000000230790    -0.000000221366
      20       -0.000001931471     0.000003879663     0.000000765044
      21       -0.000001677905    -0.000000229956    -0.000001885746
      22       -0.000001421402    -0.000002651174    -0.000001708259
      23       -0.000000182137     0.000001582454     0.000000245093
      24        0.000002267569    -0.000001678124     0.000000363428
      25       -0.000000086629     0.000001227134    -0.000000402540
      26        0.000000963855    -0.000001067393     0.000000415310
      27       -0.000001749902    -0.000000476670     0.000000196510

  **** Optimization is complete! (in 7 steps) ****
    Final optimized geometry and variables:
    Molecular point group: c1

    Geometry (in Angstrom), charge = 0, multiplicity = 1:

    H            0.359165195929     2.808706683442     3.094718447611
    O            1.134035677221     2.436403212334     2.713936017225
    C            1.282026945783     1.103858675130     3.127601472985
    C            0.205269236885     0.167682733477     2.593609469515
    H            2.249066684440     0.793396559058     2.752429305046
    H            1.322910385128     1.041502525822     4.211909856520
    C           -0.015364205447     0.277243253055     1.085864091511
    H            0.514574033764    -0.849177860731     2.822753175783
    H           -0.732478911990     0.342170035182     3.116907689727
    C           -1.048903707468    -0.723288403453     0.571216919454
    H            0.934901541368     0.125783480940     0.583616086693
    H           -0.331469042238     1.283897572504     0.836703375630
    C           -1.385145160272    -0.593354769746    -0.915527776893
    H           -0.705114293057    -1.735433411476     0.772975799521
    H           -1.966047338179    -0.598428891446     1.141115316547
    C           -0.241183090449    -0.935980821744    -1.868032062818
    H           -2.225459070364    -1.246449660489    -1.135110410773
    H           -1.728679869848     0.418637693577    -1.116996542796
    C           -0.651382047977    -0.884510736821    -3.337466708136
    H            0.131395781329    -1.931600485286    -1.636153721945
    H            0.589871943236    -0.255319151760    -1.711998147126
    C            0.489559155173    -1.222670394827    -4.291258550426
    H           -1.475854462347    -1.572317426264    -3.504625623659
    H           -1.031269521299     0.106982451060    -3.568744459693
    H            0.870305964317    -2.221934396209    -4.107237122083
    H            0.164687341677    -1.178320311505    -5.324542728710
    H            1.315808681411    -0.529243338161    -4.174617741743

  Mulliken Charges: (a.u.)
   Center  Symbol    Alpha    Beta     Spin     Total
       1     H     0.39515  0.39515  0.00000  0.20971
       2     O     4.20299  4.20299  0.00000 -0.40597
       3     C     2.97952  2.97952  0.00000  0.04096
       4     C     3.11005  3.11005  0.00000 -0.22011
       5     H     0.45748  0.45748  0.00000  0.08503
       6     H     0.45967  0.45967  0.00000  0.08066
       7     C     3.08393  3.08393  0.00000 -0.16786
       8     H     0.45346  0.45346  0.00000  0.09308
       9     H     0.45436  0.45436  0.00000  0.09128
      10     C     3.09843  3.09843  0.00000 -0.19686
      11     H     0.45318  0.45318  0.00000  0.09364
      12     H     0.44891  0.44891  0.00000  0.10218
      13     C     3.09733  3.09733  0.00000 -0.19465
      14     H     0.45461  0.45461  0.00000  0.09079
      15     H     0.44963  0.44963  0.00000  0.10073
      16     C     3.08816  3.08816  0.00000 -0.17633
      17     H     0.44913  0.44913  0.00000  0.10174
      18     H     0.45390  0.45390  0.00000  0.09221
      19     C     3.08388  3.08388  0.00000 -0.16777
      20     H     0.45594  0.45594  0.00000  0.08813
      21     H     0.45197  0.45197  0.00000  0.09606
      22     C     3.14980  3.14980  0.00000 -0.29960
      23     H     0.45455  0.45455  0.00000  0.09089
      24     H     0.45456  0.45456  0.00000  0.09089
      25     H     0.45562  0.45562  0.00000  0.08875
      26     H     0.44878  0.44878  0.00000  0.10244
      27     H     0.45501  0.45501  0.00000  0.08998

   Total alpha = 37.00000, Total beta = 37.00000, Total charge = -0.00000

*** Psi4 exiting successfully. Buy a developer a beer!
