                              Psi4 1.0.54 Driver

  ==> Input File <==

--------------------------------------------------------------------------
set {
	reference rhf
	basis cc-pvtz
}

set_num_threads( 4 )
memory 2 gb

molecule MOL {
0 1

H	 1.541649	 -2.870463	 -2.434053
O	 2.379901	 -2.515753	 -2.665016
C	 2.226096	 -1.460815	 -3.577553
C	 1.659378	 -0.195232	 -2.951602
H	 3.215195	 -1.260366	 -3.966762
H	 1.606792	 -1.772125	 -4.416600
C	 0.226301	 -0.334531	 -2.442941
H	 2.309215	 0.107586	 -2.136021
H	 1.700879	 0.594231	 -3.698210
C	 -0.319915	 0.964246	 -1.851618
H	 0.186414	 -1.117714	 -1.693251
H	 -0.417231	 -0.651922	 -3.261731
C	 -1.778120	 0.902667	 -1.393249
H	 0.306371	 1.267077	 -1.015982
H	 -0.227549	 1.748651	 -2.597706
C	 -2.041121	 -0.006551	 -0.194127
H	 -2.098617	 1.909488	 -1.140026
H	 -2.402844	 0.588618	 -2.226464
C	 -3.489218	 0.042606	 0.286507
H	 -1.383337	 0.280283	 0.623500
H	 -1.789172	 -1.033387	 -0.441379
C	 -4.219984	 1.311773	 -0.139038
H	 -4.022855	 -0.824300	 -0.093339
H	 -3.510372	 -0.038577	 1.370031
H	 -4.244251	 1.405725	 -1.219696
H	 -5.244345	 1.313233	 0.215630
H	 -3.732090	 2.196311	 0.257073

	symmetry c1
}
set optking {
	frozen_dihedral = ("
		20 16 19 22
	")
}

ee,wfn = optimize('scf', return_wfn=True)
oeprop( wfn, 'DIPOLE', 'QUADRUPOLE', 'MULLIKEN_CHARGES')
f=open( 'psi4out.xyz', 'w' )
f.write( "27  " )
f.write( str(ee) + "\n" )
f.write( MOL.save_string_xyz() )
f.close()
--------------------------------------------------------------------------

    Molecular point group: c1
  Charge       = 0
  Multiplicity = 1
  Basis Set: CC-PVTZ
  Basis Set:
  @DF-RHF Final Energy:  -388.41642266977180
    Total Energy =                       -388.4164226697722597
    Molecular point group: c1
  Basis Set: CC-PVTZ
  Basis Set:
  Basis Set: CC-PVTZ
  Basis Set:
  @DF-RHF Final Energy:  -388.38325710512902
    Total Energy =                       -388.3832571051287914
  Basis Set: CC-PVTZ
  Basis Set:
  Basis Set: CC-PVTZ
  Basis Set:
  @DF-RHF Final Energy:  -388.41795113314902
    Total Energy =                       -388.4179511331490176
  Basis Set: CC-PVTZ
  Basis Set:
  Basis Set: CC-PVTZ
  Basis Set:
  @DF-RHF Final Energy:  -388.41997453471163
    Total Energy =                       -388.4199745347120825
  Basis Set: CC-PVTZ
  Basis Set:
  Basis Set: CC-PVTZ
  Basis Set:
  @DF-RHF Final Energy:  -388.42016101589195
    Total Energy =                       -388.4201610158924041
  Basis Set: CC-PVTZ
  Basis Set:
  Basis Set: CC-PVTZ
  Basis Set:
  @DF-RHF Final Energy:  -388.42014961224424
    Total Energy =                       -388.4201496122444723
  Basis Set: CC-PVTZ
  Basis Set:
  Basis Set: CC-PVTZ
  Basis Set:
  @DF-RHF Final Energy:  -388.42017141297697
    Total Energy =                       -388.4201714129762877
  Basis Set: CC-PVTZ
  Basis Set:
  Charge       = 0
  Multiplicity = 1
  Basis Set: CC-PVTZ
  Basis Set:

    Orbital Energies (a.u.)
    -----------------------

    Doubly Occupied:

       1A    -20.545332     2A    -11.264959     3A    -11.216635
       4A    -11.214676     5A    -11.214590     6A    -11.213194
       7A    -11.213152     8A    -11.211989     9A    -11.206593
      10A     -1.363232    11A     -1.095067    12A     -1.059881
      13A     -1.010002    14A     -0.947111    15A     -0.896142
      16A     -0.831134    17A     -0.798284    18A     -0.764918
      19A     -0.696171    20A     -0.648322    21A     -0.636987
      22A     -0.616073    23A     -0.608415    24A     -0.588493
      25A     -0.579960    26A     -0.555644    27A     -0.536977
      28A     -0.527340    29A     -0.510624    30A     -0.500684
      31A     -0.485159    32A     -0.476253    33A     -0.468455
      34A     -0.451555    35A     -0.448329    36A     -0.441322
      37A     -0.426001

  @DF-RHF Final Energy:  -388.42017155189023

   => Energetics <=

    Nuclear Repulsion Energy =            462.6108253284141938
    One-Electron Energy =               -1443.5226793865037962
    Two-Electron Energy =                 592.4916825061986856
    DFT Exchange-Correlation Energy =       0.0000000000000000
    Empirical Dispersion Energy =           0.0000000000000000
    PCM Polarization Energy =               0.0000000000000000
    EFP Energy =                            0.0000000000000000
    Total Energy =                       -388.4201715518909168
    Molecular point group: c1
  Basis Set: CC-PVTZ
  Basis Set:

  -Total Gradient:
     Atom            X                  Y                   Z
    ------   -----------------  -----------------  -----------------
       1        0.000006886335     0.000006247816    -0.000005051013
       2       -0.000006653208     0.000003789869     0.000008750478
       3        0.000006093012    -0.000013018227    -0.000000045354
       4        0.000013334002    -0.000012862558     0.000004087065
       5       -0.000002898699    -0.000003299926     0.000007548442
       6       -0.000001735297     0.000006777333    -0.000004689026
       7       -0.000012666065     0.000003187208    -0.000013389836
       8       -0.000000636166     0.000009825537     0.000002146435
       9       -0.000004068240    -0.000011388160     0.000006507947
      10       -0.000016709710     0.000009829386     0.000002819377
      11       -0.000009028748    -0.000010172242     0.000001999169
      12        0.000002833473     0.000004502338    -0.000010984212
      13        0.000017778353     0.000010048165    -0.000031961332
      14        0.000005087564     0.000020490655    -0.000005276407
      15       -0.000008269389    -0.000021758322     0.000011135497
      16       -0.003365497728     0.005287231735    -0.003849176715
      17        0.000003228436    -0.000030296550     0.000007567122
      18        0.000031530154     0.000014931321    -0.000003616096
      19        0.002015097680     0.002582121202     0.005574401156
      20        0.002330644990    -0.005241854533     0.001828551173
      21        0.000012293015     0.000007784411    -0.000017449556
      22       -0.001084653246    -0.002614502393    -0.003513708708
      23        0.000005768838     0.000020682879     0.000015381161
      24        0.000000122600    -0.000002397647    -0.000010934658
      25        0.000002252013     0.000009295803     0.000035023120
      26        0.000068281709     0.000015148952    -0.000053396035
      27       -0.000008415678    -0.000050344054     0.000013760804

  **** Optimization is complete! (in 8 steps) ****
    Final optimized geometry and variables:
    Molecular point group: c1

    Geometry (in Angstrom), charge = 0, multiplicity = 1:

    H            2.623661135411    -2.168845779844    -0.763983797903
    O            3.331773490513    -1.658587639393    -1.110057009217
    C            2.858802463993    -0.773306365593    -2.090715259369
    C            2.058644416592     0.389445839683    -1.523044237271
    H            3.737352816883    -0.395456428641    -2.596002757923
    H            2.266641992360    -1.308119795269    -2.830778161407
    C            0.747606029420    -0.018299128899    -0.854579405992
    H            2.681754022644     0.922415211326    -0.811199087162
    H            1.848352039825     1.079122729215    -2.336946168711
    C           -0.045573980537     1.178835354245    -0.332111527673
    H            0.959290462179    -0.698816290432    -0.036946427366
    H            0.135548597714    -0.567078757087    -1.568267698950
    C           -1.410537215165     0.843329264208     0.274274053627
    H            0.552809342495     1.710491409360     0.403720620657
    H           -0.199332338273     1.872718087071    -1.153816397384
    C           -1.338967183204     0.060913344814     1.583743855811
    H           -1.941669355469     1.773957993556     0.438221305021
    H           -1.994648949707     0.285284920858    -0.453875046300
    C           -2.683763599559    -0.310872940041     2.247757512726
    H           -0.715831190621     0.590141794342     2.299985614143
    H           -0.805534951764    -0.867215260078     1.407264047626
    C           -3.878218223513     0.588834718991     1.935318906569
    H           -2.951084082944    -1.318459739242     1.943000821688
    H           -2.540612057117    -0.356404654259     3.321552701747
    H           -4.118857764636     0.585315024751     0.879918824337
    H           -4.754074897922     0.242298989152     2.471801486534
    H           -3.701329599481     1.617590377117     2.231626050082

  Mulliken Charges: (a.u.)
   Center  Symbol    Alpha    Beta     Spin     Total
       1     H     0.39229  0.39229  0.00000  0.21541
       2     O     4.20550  4.20550  0.00000 -0.41099
       3     C     2.97994  2.97994  0.00000  0.04012
       4     C     3.08943  3.08943  0.00000 -0.17887
       5     H     0.44856  0.44856  0.00000  0.10288
       6     H     0.46970  0.46970  0.00000  0.06059
       7     C     3.10245  3.10245  0.00000 -0.20490
       8     H     0.45076  0.45076  0.00000  0.09848
       9     H     0.45528  0.45528  0.00000  0.08944
      10     C     3.09968  3.09968  0.00000 -0.19935
      11     H     0.45571  0.45571  0.00000  0.08859
      12     H     0.45406  0.45406  0.00000  0.09189
      13     C     3.10047  3.10047  0.00000 -0.20094
      14     H     0.45147  0.45147  0.00000  0.09707
      15     H     0.44795  0.44795  0.00000  0.10410
      16     C     3.09788  3.09788  0.00000 -0.19576
      17     H     0.44333  0.44333  0.00000  0.11335
      18     H     0.45258  0.45258  0.00000  0.09483
      19     C     3.08565  3.08565  0.00000 -0.17131
      20     H     0.45143  0.45143  0.00000  0.09714
      21     H     0.45303  0.45303  0.00000  0.09394
      22     C     3.15775  3.15775  0.00000 -0.31550
      23     H     0.45461  0.45461  0.00000  0.09078
      24     H     0.44950  0.44950  0.00000  0.10101
      25     H     0.45202  0.45202  0.00000  0.09595
      26     H     0.44506  0.44506  0.00000  0.10989
      27     H     0.45391  0.45391  0.00000  0.09218

   Total alpha = 37.00000, Total beta = 37.00000, Total charge = -0.00000

*** Psi4 exiting successfully. Buy a developer a beer!
