  ==> Input File <==

--------------------------------------------------------------------------
set {
	reference rhf
	basis 6-31G*
}

set_num_threads( 4 )
memory 2 gb

molecule MOL {
0 1

H	 -1.310591	 1.296991	 -2.973230
O	 -1.661867	 0.789011	 -2.255630
C	 -0.871036	 0.977020	 -1.112727
C	 0.444260	 0.226350	 -1.222994
H	 -0.676667	 2.029868	 -0.928093
H	 -1.435481	 0.594678	 -0.273879
O	 1.171513	 0.459272	 -0.058250
H	 0.999953	 0.570723	 -2.097404
H	 0.248511	 -0.835637	 -1.358827
C	 2.397842	 -0.198080	 -0.002151
H	 2.508049	 -0.905315	 -0.822092
H	 3.173794	 0.550865	 -0.078850
H	 2.517602	 -0.735921	 0.936026

	symmetry c1
}
set optking {
	frozen_dihedral = ("
		4 7 10 13
	")
}

ee = optimize('scf')
oeprop('DIPOLE', 'QUADRUPOLE', 'MULLIKEN_CHARGES')
f=open( 'psi4out.xyz', 'w' )
f.write( "13  " )
f.write( str(ee) + "\n" )
f.write( MOL.save_string_xyz() )
f.close()
--------------------------------------------------------------------------

    Molecular point group: c1
  Charge       = 0
  Multiplicity = 1
  Basis Set: 6-31G*
  Basis Set:
  @DF-RHF Final Energy:  -267.94631208382503
    Total Energy =                       -267.9463120838250916
    Molecular point group: c1
  Basis Set: 6-31G*
  Basis Set:
  Basis Set: 6-31G*
  Basis Set:
  @DF-RHF Final Energy:  -267.94688565390277
    Total Energy =                       -267.9468856539027684
  Basis Set: 6-31G*
  Basis Set:
  Basis Set: 6-31G*
  Basis Set:
  @DF-RHF Final Energy:  -267.94701529341353
    Total Energy =                       -267.9470152934135854
  Basis Set: 6-31G*
  Basis Set:
  Charge       = 0
  Multiplicity = 1
  Basis Set: 6-31G*
  Basis Set:

    Orbital Energies (a.u.)
    -----------------------

    Doubly Occupied:

       1A    -20.559790     2A    -20.558693     3A    -11.271290
       4A    -11.269823     5A    -11.268376     6A     -1.384237
       7A     -1.364248     8A     -1.018227     9A     -0.913631
      10A     -0.841443    11A     -0.708670    12A     -0.671349
      13A     -0.657686    14A     -0.636544    15A     -0.596165
      16A     -0.569223    17A     -0.547973    18A     -0.489382
      19A     -0.481075    20A     -0.437803    21A     -0.416841

  @DF-RHF Final Energy:  -267.94701603394384

   => Energetics <=

    Nuclear Repulsion Energy =            189.9094327079736786
    One-Electron Energy =                -742.3879557989233717
    Two-Electron Energy =                 284.5315070570059675
    DFT Exchange-Correlation Energy =       0.0000000000000000
    Empirical Dispersion Energy =           0.0000000000000000
    PCM Polarization Energy =               0.0000000000000000
    EFP Energy =                            0.0000000000000000
    Total Energy =                       -267.9470160339437257
    Molecular point group: c1
  Basis Set: 6-31G*
  Basis Set:

  -Total Gradient:
     Atom            X                  Y                   Z
    ------   -----------------  -----------------  -----------------
       1       -0.000022516032    -0.000000920112    -0.000027154264
       2       -0.000051596362     0.000055873661    -0.000071117988
       3        0.000016144007    -0.000050358896    -0.000028874169
       4       -0.000653415323    -0.001081798784     0.000633743119
       5       -0.000019572541     0.000013236436     0.000005972960
       6        0.000051701401    -0.000005318931     0.000003814893
       7        0.000779240800     0.001134757187    -0.000937786940
       8        0.000017026377     0.000016989284     0.000052987589
       9       -0.000020084545     0.000012763228    -0.000026459843
      10        0.000532132833     0.001173639013     0.001037965811
      11       -0.000000584108    -0.000005950727    -0.000000609725
      12        0.000006013641     0.000002590440     0.000001386281
      13       -0.000634490147    -0.001265501799    -0.000643867726

  **** Optimization is complete! (in 4 steps) ****
    Final optimized geometry and variables:
    Molecular point group: c1

    Geometry (in Angstrom), charge = 0, multiplicity = 1:

    H           -1.624354025272     0.856231384625    -2.003338217488
    O           -1.964197272880     0.337946477684    -1.287622882737
    C           -1.161466756191     0.517851904262    -0.151272062264
    C            0.154689915224    -0.227711524299    -0.282365474223
    H           -0.968461766674     1.569542581207     0.040652446049
    H           -1.714918549540     0.126150104467     0.690547190491
    O            0.889504365329    -0.001463482726     0.880395031486
    H            0.697171126051     0.127555798242    -1.160201004464
    H           -0.041355449348    -1.287905222828    -0.425069016795
    C            2.126467151417    -0.647913270004     0.965504062723
    H            2.249546506353    -1.385623584268     0.178294278300
    H            2.934108323603     0.073117400028     0.890856461336
    H            2.192459457768    -1.159357261741     1.918415769420

  Mulliken Charges: (a.u.)
   Center  Symbol    Alpha    Beta     Spin     Total
       1     H     0.28129  0.28129  0.00000  0.43742
       2     O     4.37099  4.37099  0.00000 -0.74199
       3     C     3.00492  3.00492  0.00000 -0.00984
       4     C     2.99618  2.99618  0.00000  0.00765
       5     H     0.42230  0.42230  0.00000  0.15541
       6     H     0.40855  0.40855  0.00000  0.18290
       7     O     4.31227  4.31227  0.00000 -0.62454
       8     H     0.43764  0.43764  0.00000  0.12472
       9     H     0.42292  0.42292  0.00000  0.15416
      10     C     3.07669  3.07669  0.00000 -0.15337
      11     H     0.42812  0.42812  0.00000  0.14375
      12     H     0.42161  0.42161  0.00000  0.15679
      13     H     0.41653  0.41653  0.00000  0.16695

   Total alpha = 21.00000, Total beta = 21.00000, Total charge = -0.00000
