                              Psi4 1.0.54 Driver

  ==> Input File <==

--------------------------------------------------------------------------
set {
	reference rhf
	basis cc-pvtz
}

set_num_threads( 4 )
memory 2 gb

molecule MOL {
0 1

H	 1.166964	 -1.062386	 0.758429
O	 1.324748	 -0.612467	 -0.052206
C	 0.706474	 0.636793	 -0.025501
C	 -0.336922	 0.841478	 -1.087132
H	 1.493200	 1.371128	 -0.152444
H	 0.259109	 0.827357	 0.948281
C	 -0.618064	 0.004189	 -2.060894
H	 -0.879715	 1.769216	 -1.010142
H	 -0.088075	 -0.921386	 -2.180872
H	 -1.383105	 0.227088	 -2.779982

	symmetry c1
}
set optking {
	frozen_dihedral = ("
		5 3 2 1
	")
}

ee,wfn = optimize('scf', return_wfn=True)
oeprop( wfn, 'DIPOLE', 'QUADRUPOLE', 'MULLIKEN_CHARGES')
f=open( 'psi4out.xyz', 'w' )
f.write( "10  " )
f.write( str(ee) + "\n" )
f.write( MOL.save_string_xyz() )
f.close()
--------------------------------------------------------------------------

    Molecular point group: c1
  Charge       = 0
  Multiplicity = 1
  Basis Set: CC-PVTZ
  Basis Set:
  @DF-RHF Final Energy:  -191.99614843667078
    Total Energy =                       -191.9961484366706941
    Molecular point group: c1
  Basis Set: CC-PVTZ
  Basis Set:
  Basis Set: CC-PVTZ
  Basis Set:
  @DF-RHF Final Energy:  -191.91967755883189
    Total Energy =                       -191.9196775588318644
  Basis Set: CC-PVTZ
  Basis Set:
  Basis Set: CC-PVTZ
  Basis Set:
  @DF-RHF Final Energy:  -191.99158092389644
    Total Energy =                       -191.9915809238965494
  Basis Set: CC-PVTZ
  Basis Set:
  Basis Set: CC-PVTZ
  Basis Set:
  @DF-RHF Final Energy:  -191.99680400094451
    Total Energy =                       -191.9968040009445645
  Basis Set: CC-PVTZ
  Basis Set:
  Basis Set: CC-PVTZ
  Basis Set:
  @DF-RHF Final Energy:  -191.99687387241266
    Total Energy =                       -191.9968738724126922
  Basis Set: CC-PVTZ
  Basis Set:
  Basis Set: CC-PVTZ
  Basis Set:
  @DF-RHF Final Energy:  -191.99689845160469
    Total Energy =                       -191.9968984516047783
  Basis Set: CC-PVTZ
  Basis Set:
  Charge       = 0
  Multiplicity = 1
  Basis Set: CC-PVTZ
  Basis Set:

    Orbital Energies (a.u.)
    -----------------------

    Doubly Occupied:

       1A    -20.553357     2A    -11.278553     3A    -11.223972
       4A    -11.208980     5A     -1.373138     6A     -1.058490
       7A     -0.927905     8A     -0.760868     9A     -0.707960
      10A     -0.653676    11A     -0.615296    12A     -0.581734
      13A     -0.512716    14A     -0.508357    15A     -0.451031
      16A     -0.362090

  @DF-RHF Final Energy:  -191.99689863894571

   => Energetics <=

    Nuclear Repulsion Energy =            119.4198984317548735
    One-Electron Energy =                -497.2773481075790869
    Two-Electron Energy =                 185.8605510368784905
    DFT Exchange-Correlation Energy =       0.0000000000000000
    Empirical Dispersion Energy =           0.0000000000000000
    PCM Polarization Energy =               0.0000000000000000
    EFP Energy =                            0.0000000000000000
    Total Energy =                       -191.9968986389457370
    Molecular point group: c1
  Basis Set: CC-PVTZ
  Basis Set:

  -Total Gradient:
     Atom            X                  Y                   Z
    ------   -----------------  -----------------  -----------------
       1        0.000346919040     0.000089006382     0.000481012536
       2       -0.000409580656    -0.000156848224    -0.000498842790
       3        0.000173215531     0.000173426036    -0.000452521258
       4        0.000042018888     0.000030890972     0.000011270034
       5       -0.000132501330    -0.000156622911     0.000453578102
       6       -0.000007368594     0.000034728341     0.000015932784
       7        0.000061213483     0.000023734732     0.000000905016
       8       -0.000019629851    -0.000005501173     0.000006017339
       9       -0.000031737417    -0.000021274740    -0.000004343940
      10       -0.000022549093    -0.000011539413    -0.000013007823

  **** Optimization is complete! (in 7 steps) ****
    Final optimized geometry and variables:
    Molecular point group: c1

    Geometry (in Angstrom), charge = 0, multiplicity = 1:

    H            0.246078005211    -1.720005947418     1.173734158510
    O            0.689435790158    -1.038140185867     0.707486245529
    C            0.063550977726     0.193377894243     0.928208008989
    C           -0.461378914300     0.814806914701    -0.332926312120
    H            0.779178309235     0.870908804969     1.385285527687
    H           -0.755503546430     0.091972572572     1.635990922709
    C           -0.403820787432     0.279674298433    -1.531271960562
    H           -0.910586008649     1.785358538833    -0.199729474703
    H            0.045502614777    -0.680371280213    -1.693213141635
    H           -0.801421653928     0.793857660453    -2.385712399839

  Mulliken Charges: (a.u.)
   Center  Symbol    Alpha    Beta     Spin     Total
       1     H     0.38964  0.38964  0.00000  0.22073
       2     O     4.19899  4.19899  0.00000 -0.39797
       3     C     2.94731  2.94731  0.00000  0.10537
       4     C     3.07949  3.07949  0.00000 -0.15898
       5     H     0.46335  0.46335  0.00000  0.07330
       6     H     0.47234  0.47234  0.00000  0.05533
       7     C     3.17452  3.17452  0.00000 -0.34904
       8     H     0.42423  0.42423  0.00000  0.15155
       9     H     0.42047  0.42047  0.00000  0.15906
      10     H     0.42967  0.42967  0.00000  0.14066

   Total alpha = 16.00000, Total beta = 16.00000, Total charge = -0.00000

*** Psi4 exiting successfully. Buy a developer a beer!
