                              Psi4 1.0.54 Driver

  ==> Input File <==

--------------------------------------------------------------------------
set {
	reference rhf
	basis cc-pvtz
}

set_num_threads( 4 )
memory 2 gb

molecule MOL {
0 1

H	 -0.939693	 0.000281	 1.681345
O	 -0.046262	 -0.000157	 1.387678
C	 -0.000837	 0.000006	 -0.025491
C	 -0.233459	 1.417659	 -0.544428
C	 1.352002	 -0.532693	 -0.493683
C	 -1.126187	 -0.926241	 -0.465765
H	 -0.240112	 1.443372	 -1.627982
H	 0.550671	 2.086297	 -0.202180
H	 -1.181295	 1.798014	 -0.184708
H	 1.403358	 -0.578430	 -1.575376
H	 2.157964	 0.109127	 -0.150805
H	 1.521191	 -1.526380	 -0.098176
H	 -1.172286	 -0.991880	 -1.546439
H	 -2.077414	 -0.559684	 -0.101053
H	 -0.971415	 -1.920283	 -0.065589

	symmetry c1
}
set optking {
	frozen_dihedral = ("
		4 3 2 1
	")
}

ee,wfn = optimize('scf', return_wfn=True)
oeprop( wfn, 'DIPOLE', 'QUADRUPOLE', 'MULLIKEN_CHARGES')
f=open( 'psi4out.xyz', 'w' )
f.write( "15  " )
f.write( str(ee) + "\n" )
f.write( MOL.save_string_xyz() )
f.close()
--------------------------------------------------------------------------

    Molecular point group: c1
  Charge       = 0
  Multiplicity = 1
  Basis Set: CC-PVTZ
  Basis Set:
  @DF-RHF Final Energy:  -232.24417826255922
    Total Energy =                       -232.2441782625592737
    Molecular point group: c1
  Basis Set: CC-PVTZ
  Basis Set:
  Basis Set: CC-PVTZ
  Basis Set:
  @DF-RHF Final Energy:  -232.24590398260486
    Total Energy =                       -232.2459039826047729
  Basis Set: CC-PVTZ
  Basis Set:
  Basis Set: CC-PVTZ
  Basis Set:
  @DF-RHF Final Energy:  -232.24632941109098
    Total Energy =                       -232.2463294110908691
  Basis Set: CC-PVTZ
  Basis Set:
  Basis Set: CC-PVTZ
  Basis Set:
  @DF-RHF Final Energy:  -232.24633138054864
    Total Energy =                       -232.2463313805485541
  Basis Set: CC-PVTZ
  Basis Set:
  Basis Set: CC-PVTZ
  Basis Set:
  @DF-RHF Final Energy:  -232.24633559500955
    Total Energy =                       -232.2463355950094410
  Basis Set: CC-PVTZ
  Basis Set:
  Charge       = 0
  Multiplicity = 1
  Basis Set: CC-PVTZ
  Basis Set:

    Orbital Energies (a.u.)
    -----------------------

    Doubly Occupied:

       1A    -20.541827     2A    -11.280840     3A    -11.212634
       4A    -11.206327     5A    -11.203598     6A     -1.364498
       7A     -1.065322     8A     -0.944038     9A     -0.938553
      10A     -0.778507    11A     -0.672533    12A     -0.624290
      13A     -0.622832    14A     -0.576065    15A     -0.557551
      16A     -0.533125    17A     -0.517030    18A     -0.511319
      19A     -0.504307    20A     -0.458542    21A     -0.428370

  @DF-RHF Final Energy:  -232.24633594228521

   => Energetics <=

    Nuclear Repulsion Energy =            200.6548463315875210
    One-Electron Energy =                -712.7181453476375736
    Two-Electron Energy =                 279.8169630737650095
    DFT Exchange-Correlation Energy =       0.0000000000000000
    Empirical Dispersion Energy =           0.0000000000000000
    PCM Polarization Energy =               0.0000000000000000
    EFP Energy =                            0.0000000000000000
    Total Energy =                       -232.2463359422849862
    Molecular point group: c1
  Basis Set: CC-PVTZ
  Basis Set:

  -Total Gradient:
     Atom            X                  Y                   Z
    ------   -----------------  -----------------  -----------------
       1       -0.000044020362    -0.001556119211     0.000028676161
       2        0.000383725689     0.001932433587    -0.000073170789
       3       -0.001284402630    -0.000524041434     0.000046126410
       4        0.000932967298     0.000152135016    -0.000047301129
       5        0.000003839382    -0.000026616769     0.000001911480
       6        0.000014927085     0.000003798078     0.000041259873
       7       -0.000004567724     0.000012672562     0.000007536959
       8       -0.000010178002    -0.000004433211    -0.000004905756
       9       -0.000002766644     0.000011412949    -0.000005841463
      10       -0.000002323942    -0.000002760477     0.000014296036
      11       -0.000010327818     0.000006674121     0.000000140856
      12        0.000014266555    -0.000011675260    -0.000000916974
      13        0.000005620352     0.000001924231    -0.000007333709
      14        0.000011395484    -0.000000214037    -0.000000260521
      15       -0.000008154726     0.000004809856    -0.000000217433

  **** Optimization is complete! (in 6 steps) ****
    Final optimized geometry and variables:
    Molecular point group: c1

    Geometry (in Angstrom), charge = 0, multiplicity = 1:

    H           -0.817205574850     0.059959420671     1.746591299866
    O            0.051163233281     0.030714403097     1.388050715941
    C           -0.003687803267     0.001402061716    -0.025346066072
    C           -0.238327005068     1.417497809590    -0.548269342403
    C            1.357264510491    -0.514053538195    -0.475541288185
    C           -1.115302613522    -0.940046752499    -0.481082634482
    H           -0.246338438131     1.441522307074    -1.632182332618
    H            0.542246005127     2.078662676273    -0.194044359522
    H           -1.190124854625     1.803200940082    -0.197629375829
    H            1.423652207694    -0.539928167489    -1.556917338271
    H            2.142346290045     0.129020964625    -0.098098920692
    H            1.526777565066    -1.512898000494    -0.093669091488
    H           -1.152594188436    -1.006522881732    -1.561811234567
    H           -2.084256687291    -0.587131182942    -0.139670872348
    H           -0.955869958439    -1.934220578866    -0.081642359157

  Mulliken Charges: (a.u.)
   Center  Symbol    Alpha    Beta     Spin     Total
       1     H     0.39497  0.39497  0.00000  0.21006
       2     O     4.21199  4.21199  0.00000 -0.42398
       3     C     2.87832  2.87832  0.00000  0.24336
       4     C     3.14679  3.14679  0.00000 -0.29357
       5     C     3.14234  3.14234  0.00000 -0.28468
       6     C     3.15422  3.15422  0.00000 -0.30845
       7     H     0.45713  0.45713  0.00000  0.08574
       8     H     0.44759  0.44759  0.00000  0.10481
       9     H     0.45516  0.45516  0.00000  0.08969
      10     H     0.45898  0.45898  0.00000  0.08204
      11     H     0.44740  0.44740  0.00000  0.10520
      12     H     0.45005  0.45005  0.00000  0.09991
      13     H     0.45357  0.45357  0.00000  0.09286
      14     H     0.45593  0.45593  0.00000  0.08814
      15     H     0.44557  0.44557  0.00000  0.10886

   Total alpha = 21.00000, Total beta = 21.00000, Total charge = -0.00000

*** Psi4 exiting successfully. Buy a developer a beer!
