                              Psi4 1.0.54 Driver

  ==> Input File <==

--------------------------------------------------------------------------
set {
	reference rhf
	basis cc-pvtz
}

set_num_threads( 4 )
memory 2 gb

molecule MOL {
0 1

O	 1.024823	 1.606668	 0.479483
C	 0.564173	 1.004894	 1.388730
C	 -0.714814	 0.208408	 1.353157
O	 1.129126	 0.953748	 2.583966
C	 -1.413045	 0.229353	 0.001137
H	 -0.469853	 -0.805178	 1.653356
H	 -1.358442	 0.600134	 2.134025
C	 -2.702562	 -0.586401	 0.000228
H	 -0.737400	 -0.150904	 -0.756788
H	 -1.627427	 1.255561	 -0.275417
C	 -3.953810	 0.284959	 -0.000782
H	 -2.717793	 -1.238567	 -0.869075
H	 -2.719108	 -1.238472	 0.869576
H	 -3.983727	 0.924403	 -0.876454
H	 -4.852989	 -0.320147	 -0.001515
H	 -3.985140	 0.924399	 0.874841
C	 2.340751	 1.659709	 2.759752
H	 3.100460	 1.286206	 2.089257
H	 2.634884	 1.495731	 3.783698
H	 2.197479	 2.714428	 2.577365

	symmetry c1
}
set optking {
	frozen_dihedral = ("
		9 5 8 12
	")
}

ee,wfn = optimize('scf', return_wfn=True)
oeprop( wfn, 'DIPOLE', 'QUADRUPOLE', 'MULLIKEN_CHARGES')
f=open( 'psi4out.xyz', 'w' )
f.write( "20  " )
f.write( str(ee) + "\n" )
f.write( MOL.save_string_xyz() )
f.close()
--------------------------------------------------------------------------

    Molecular point group: c1
  Charge       = 0
  Multiplicity = 1
  Basis Set: CC-PVTZ
  Basis Set:
  @DF-RHF Final Energy:  -384.07778700062164
    Total Energy =                       -384.0777870006214698
    Molecular point group: c1
  Basis Set: CC-PVTZ
  Basis Set:
  Basis Set: CC-PVTZ
  Basis Set:
  @DF-RHF Final Energy:  -384.07810630353987
    Total Energy =                       -384.0781063035400393
  Basis Set: CC-PVTZ
  Basis Set:
  Basis Set: CC-PVTZ
  Basis Set:
  @DF-RHF Final Energy:  -384.07803851842868
    Total Energy =                       -384.0780385184287979
  Basis Set: CC-PVTZ
  Basis Set:
  Basis Set: CC-PVTZ
  Basis Set:
  @DF-RHF Final Energy:  -384.07817600460896
    Total Energy =                       -384.0781760046085083
  Basis Set: CC-PVTZ
  Basis Set:
  Basis Set: CC-PVTZ
  Basis Set:
  @DF-RHF Final Energy:  -384.07817780308346
    Total Energy =                       -384.0781778030839178
  Basis Set: CC-PVTZ
  Basis Set:
  Charge       = 0
  Multiplicity = 1
  Basis Set: CC-PVTZ
  Basis Set:

    Orbital Energies (a.u.)
    -----------------------

    Doubly Occupied:

       1A    -20.596456     2A    -20.534360     3A    -11.364639
       4A    -11.278597     5A    -11.234565     6A    -11.218126
       7A    -11.216980     8A    -11.210345     9A     -1.472347
      10A     -1.365961    11A     -1.088307    12A     -1.024377
      13A     -0.969589    14A     -0.889150    15A     -0.804385
      16A     -0.769163    17A     -0.702645    18A     -0.685873
      19A     -0.676528    20A     -0.633436    21A     -0.608788
      22A     -0.597049    23A     -0.574938    24A     -0.546207
      25A     -0.527091    26A     -0.524661    27A     -0.515871
      28A     -0.475056    29A     -0.474406    30A     -0.466279
      31A     -0.458323    32A     -0.439726

  @DF-RHF Final Energy:  -384.07817829514676

   => Energetics <=

    Nuclear Repulsion Energy =            383.3982562379497381
    One-Electron Energy =               -1283.0644193656833068
    Two-Electron Energy =                 515.5879848325865851
    DFT Exchange-Correlation Energy =       0.0000000000000000
    Empirical Dispersion Energy =           0.0000000000000000
    PCM Polarization Energy =               0.0000000000000000
    EFP Energy =                            0.0000000000000000
    Total Energy =                       -384.0781782951470404
    Molecular point group: c1
  Basis Set: CC-PVTZ
  Basis Set:

  -Total Gradient:
     Atom            X                  Y                   Z
    ------   -----------------  -----------------  -----------------
       1       -0.000003640609    -0.000002731001    -0.000021275645
       2        0.000001054167     0.000003066375     0.000005081748
       3       -0.000000877471     0.000011921407     0.000006724342
       4       -0.000002533791    -0.000003926716     0.000017435642
       5        0.001691145058    -0.002770212733     0.002779330381
       6        0.000003811339    -0.000002813292    -0.000007507453
       7        0.000002279530    -0.000004686327    -0.000005855686
       8       -0.001829967793     0.003010928590    -0.002373429362
       9       -0.001107502615     0.001825234110    -0.001936273088
      10       -0.000001751375     0.000000985214     0.000005282786
      11       -0.000014394020     0.000003643864    -0.000000175073
      12        0.001259020799    -0.002066014614     0.001526868462
      13       -0.000003908893     0.000005379535     0.000000826089
      14        0.000004828590    -0.000007012069    -0.000000254491
      15       -0.000006009358    -0.000002698376     0.000002601620
      16        0.000005987857    -0.000001677507    -0.000000661337
      17        0.000001055032     0.000001033255     0.000000267352
      18        0.000000903109     0.000000037951    -0.000000652777
      19       -0.000000404233    -0.000001269765     0.000001892228
      20        0.000000904675     0.000000812095    -0.000000225734

  **** Optimization is complete! (in 6 steps) ****
    Final optimized geometry and variables:
    Molecular point group: c1

    Geometry (in Angstrom), charge = 0, multiplicity = 1:

    O            1.447505166289     0.942385125899    -0.606179188330
    C            0.997173196318     0.330411616773     0.301441544039
    C           -0.257828561091    -0.503278678181     0.258550360527
    O            1.553862441936     0.299044278732     1.501302719973
    C           -0.942901029895    -0.513696441948    -1.100728927662
    H            0.012644433494    -1.506912521659     0.569013116593
    H           -0.921103815076    -0.124356019156     1.029520747483
    C           -2.257646339045    -1.316575213881    -1.103643261855
    H           -0.261869994263    -0.896164590517    -1.850057489388
    H           -1.140346822577     0.509294267514    -1.398981894742
    C           -3.507553442936    -0.442827458926    -1.077930497476
    H           -2.283997884471    -1.970942169382    -1.967604459076
    H           -2.277791388806    -1.982782672562    -0.245505188744
    H           -3.560960703787     0.185587894863    -1.960061151287
    H           -4.408014218857    -1.045364153127    -1.043159120700
    H           -3.512794826551     0.208830203165    -0.209966700828
    C            2.743386545113     1.039829209131     1.684335755575
    H            3.518775317402     0.686109322140     1.021091239808
    H            3.033916798497     0.887471789770     2.711107330060
    H            2.571584767945     2.089475086600     1.497334371176

  Mulliken Charges: (a.u.)
   Center  Symbol    Alpha    Beta     Spin     Total
       1     O     4.19661  4.19661  0.00000 -0.39323
       2     C     2.80747  2.80747  0.00000  0.38506
       3     C     3.09892  3.09892  0.00000 -0.19784
       4     O     4.14704  4.14704  0.00000 -0.29409
       5     C     3.09055  3.09055  0.00000 -0.18109
       6     H     0.43934  0.43934  0.00000  0.12132
       7     H     0.43973  0.43973  0.00000  0.12055
       8     C     3.09274  3.09274  0.00000 -0.18548
       9     H     0.44091  0.44091  0.00000  0.11819
      10     H     0.44747  0.44747  0.00000  0.10506
      11     C     3.14622  3.14622  0.00000 -0.29244
      12     H     0.44635  0.44635  0.00000  0.10731
      13     H     0.45727  0.45727  0.00000  0.08545
      14     H     0.45277  0.45277  0.00000  0.09446
      15     H     0.44897  0.44897  0.00000  0.10206
      16     H     0.45603  0.45603  0.00000  0.08793
      17     C     3.03769  3.03769  0.00000 -0.07539
      18     H     0.45432  0.45432  0.00000  0.09136
      19     H     0.44529  0.44529  0.00000  0.10942
      20     H     0.45430  0.45430  0.00000  0.09139

   Total alpha = 32.00000, Total beta = 32.00000, Total charge = -0.00000

*** Psi4 exiting successfully. Buy a developer a beer!
