  ==> Input File <==

--------------------------------------------------------------------------
set {
	reference rhf
	basis 6-31G*
}

set_num_threads( 1 )
memory 2 gb

molecule MOL {
0 1

O	 1.849954	 1.290430	 0.114671
C	 1.705091	 0.115954	 0.001797
C	 0.381791	 -0.609817	 0.001258
O	 2.717099	 -0.729632	 -0.146389
C	 -0.823008	 0.326187	 0.001381
H	 0.371250	 -1.265087	 -0.865474
H	 0.370908	 -1.265746	 0.867490
C	 -2.149452	 -0.435131	 -0.000098
H	 -0.770201	 0.977095	 -0.865636
H	 -0.771220	 0.975655	 0.869608
C	 -3.368779	 0.488503	 -0.000883
H	 -2.193746	 -1.087250	 -0.871175
H	 -2.195311	 -1.087803	 0.870418
C	 -4.693822	 -0.272754	 -0.001129
H	 -3.325798	 1.139422	 -0.871284
H	 -3.326423	 1.139959	 0.869145
H	 -4.781274	 -0.907928	 -0.878124
H	 -5.538651	 0.408946	 -0.001420
H	 -4.781694	 -0.907783	 0.875984
C	 4.020040	 -0.175596	 -0.164893
H	 4.125658	 0.519860	 -0.985084
H	 4.693294	 -1.008918	 -0.292089
H	 4.228705	 0.336079	 0.763629

	symmetry c1
}
set optking {
	frozen_dihedral = ("
		15 11 8 12,
		9 5 8 12,
		9 5 3 6,
		1 2 4 20
	")
}

ee = energy('scf')
oeprop('DIPOLE', 'QUADRUPOLE', 'MULLIKEN_CHARGES')
f=open( 'psi4out.xyz', 'w' )
f.write( "23  " )
f.write( str(ee) + "\n" )
f.write( MOL.save_string_xyz() )
f.close()
--------------------------------------------------------------------------

    Molecular point group: c1

    Geometry (in Angstrom), charge = 0, multiplicity = 1:

       Center              X                  Y                   Z               Mass
    ------------   -----------------  -----------------  -----------------  -----------------
           O          1.850655564710     1.289133629992     0.137547088029    15.994914619560
           C          1.705792564710     0.114657629992     0.024673088029    12.000000000000
           C          0.382492564710    -0.611113370008     0.024134088029    12.000000000000
           O          2.717800564710    -0.730928370008    -0.123512911971    15.994914619560
           C         -0.822306435290     0.324890629992     0.024257088029    12.000000000000
           H          0.371951564710    -1.266383370008    -0.842597911971     1.007825032070
           H          0.371609564710    -1.267042370008     0.890366088029     1.007825032070
           C         -2.148750435290    -0.436427370008     0.022778088029    12.000000000000
           H         -0.769499435290     0.975798629992    -0.842759911971     1.007825032070
           H         -0.770518435290     0.974358629992     0.892484088029     1.007825032070
           C         -3.368077435290     0.487206629992     0.021993088029    12.000000000000
           H         -2.193044435290    -1.088546370008    -0.848298911971     1.007825032070
           H         -2.194609435290    -1.089099370008     0.893294088029     1.007825032070
           C         -4.693120435290    -0.274050370008     0.021747088029    12.000000000000
           H         -3.325096435290     1.138125629992    -0.848407911971     1.007825032070
           H         -3.325721435290     1.138662629992     0.892021088029     1.007825032070
           H         -4.780572435290    -0.909224370008    -0.855247911971     1.007825032070
           H         -5.537949435290     0.407649629992     0.021456088029     1.007825032070
           H         -4.780992435290    -0.909079370008     0.898860088029     1.007825032070
           C          4.020741564710    -0.176892370008    -0.142016911971    12.000000000000
           H          4.126359564710     0.518563629992    -0.962207911971     1.007825032070
           H          4.693995564710    -1.010214370008    -0.269212911971     1.007825032070
           H          4.229406564710     0.334782629992     0.786505088029     1.007825032070

  Charge       = 0
  Multiplicity = 1
  Basis Set: 6-31G*
  Basis Set:

    Orbital Energies (a.u.)
    -----------------------

    Doubly Occupied:

       1A    -20.603688     2A    -20.545370     3A    -11.372252
       4A    -11.280843     5A    -11.235502     6A    -11.219395
       7A    -11.217933     8A    -11.216509     9A    -11.209679
      10A     -1.469334    11A     -1.362745    12A     -1.093263
      13A     -1.043684    14A     -0.987059    15A     -0.932125
      16A     -0.843606    17A     -0.795119    18A     -0.767369
      19A     -0.696803    20A     -0.683822    21A     -0.671494
      22A     -0.651808    23A     -0.609220    24A     -0.599414
      25A     -0.572814    26A     -0.559362    27A     -0.555999
      28A     -0.523900    29A     -0.521162    30A     -0.507785
      31A     -0.484378    32A     -0.469888    33A     -0.466272
      34A     -0.461381    35A     -0.455642    36A     -0.435363

  @DF-RHF Final Energy:  -422.97626006164546

   => Energetics <=

    Nuclear Repulsion Energy =            452.1286312344088856
    One-Electron Energy =               -1471.9657966462903005
    Two-Electron Energy =                 596.8609053502352708
    DFT Exchange-Correlation Energy =       0.0000000000000000
    Empirical Dispersion Energy =           0.0000000000000000
    PCM Polarization Energy =               0.0000000000000000
    EFP Energy =                            0.0000000000000000
    Total Energy =                       -422.9762600616461441

  Mulliken Charges: (a.u.)
   Center  Symbol    Alpha    Beta     Spin     Total
       1     O     4.28609  4.28609  0.00000 -0.57218
       2     C     2.60475  2.60475  0.00000  0.79049
       3     C     3.20839  3.20839  0.00000 -0.41677
       4     O     4.30736  4.30736  0.00000 -0.61472
       5     C     3.15262  3.15262  0.00000 -0.30524
       6     H     0.40093  0.40093  0.00000  0.19813
       7     H     0.40028  0.40028  0.00000  0.19943
       8     C     3.15331  3.15331  0.00000 -0.30662
       9     H     0.41300  0.41300  0.00000  0.17399
      10     H     0.41036  0.41036  0.00000  0.17929
      11     C     3.15156  3.15156  0.00000 -0.30313
      12     H     0.42402  0.42402  0.00000  0.15196
      13     H     0.42395  0.42395  0.00000  0.15210
      14     C     3.23959  3.23959  0.00000 -0.47917
      15     H     0.42145  0.42145  0.00000  0.15710
      16     H     0.42121  0.42121  0.00000  0.15759
      17     H     0.42183  0.42183  0.00000  0.15634
      18     H     0.41847  0.41847  0.00000  0.16306
      19     H     0.42179  0.42179  0.00000  0.15642
      20     C     3.09249  3.09249  0.00000 -0.18497
      21     H     0.40901  0.40901  0.00000  0.18199
      22     H     0.40842  0.40842  0.00000  0.18315
      23     H     0.40913  0.40913  0.00000  0.18175

   Total alpha = 36.00000, Total beta = 36.00000, Total charge =  0.00000
