  ==> Input File <==

--------------------------------------------------------------------------
set {
	reference rhf
	basis cc-pvtz
}

set_num_threads( 4 )
memory 2 gb

molecule MOL {
0 1

O	 -0.694481	 1.313155	 -0.204815
C	 -0.862519	 0.151932	 -0.046791
C	 -2.171428	 -0.477048	 0.339095
O	 0.085519	 -0.757083	 -0.192238
H	 -2.467997	 -1.191667	 -0.417688
H	 -2.923379	 0.287970	 0.444097
H	 -2.053854	 -1.015120	 1.270901
C	 -0.279566	 -2.065329	 -0.616134
C	 -0.373806	 -2.159194	 -2.124844
H	 -1.212262	 -2.342553	 -0.150256
H	 0.505249	 -2.703960	 -0.239349
H	 -0.587352	 -3.182501	 -2.412407
H	 -1.166227	 -1.527756	 -2.502651
H	 0.561123	 -1.864082	 -2.585722

	symmetry c1
}
set optking {
	frozen_dihedral = ("
		8 4 2 1
	")
}

ee = optimize('scf')
oeprop('DIPOLE', 'QUADRUPOLE', 'MULLIKEN_CHARGES')
f=open( 'psi4out.xyz', 'w' )
f.write( "14  " )
f.write( str(ee) + "\n" )
f.write( MOL.save_string_xyz() )
f.close()
--------------------------------------------------------------------------

    Molecular point group: c1
  Charge       = 0
  Multiplicity = 1
  Basis Set: CC-PVTZ
  Basis Set:
  @DF-RHF Final Energy:  -305.96470697825589
    Total Energy =                       -305.9647069782556628
    Molecular point group: c1
  Basis Set: CC-PVTZ
  Basis Set:
  Basis Set: CC-PVTZ
  Basis Set:
  @DF-RHF Final Energy:  -305.97143643904832
    Total Energy =                       -305.9714364390480341
  Basis Set: CC-PVTZ
  Basis Set:
  Basis Set: CC-PVTZ
  Basis Set:
  @DF-RHF Final Energy:  -305.97468952276404
    Total Energy =                       -305.9746895227636401
  Basis Set: CC-PVTZ
  Basis Set:
  Basis Set: CC-PVTZ
  Basis Set:
  @DF-RHF Final Energy:  -305.97536650026996
    Total Energy =                       -305.9753665002699563
  Basis Set: CC-PVTZ
  Basis Set:
  @DF-RHF Final Energy:  -305.97551131806347
    Total Energy =                       -305.9755113180637522
  @DF-RHF Final Energy:  -305.97556583088021
    Total Energy =                       -305.9755658308803277
  Basis Set: CC-PVTZ
  Basis Set:
  @DF-RHF Final Energy:  -305.97557894430940
    Total Energy =                       -305.9755789443094045
  Basis Set: CC-PVTZ
  Basis Set:
  Basis Set: CC-PVTZ
  Basis Set:
  @DF-RHF Final Energy:  -305.97559828074901
    Total Energy =                       -305.9755982807493524
  Basis Set: CC-PVTZ
  Basis Set:
  Basis Set: CC-PVTZ
  Basis Set:
  @DF-RHF Final Energy:  -305.97560228615424
    Total Energy =                       -305.9756022861540714
  Basis Set: CC-PVTZ
  Basis Set:
  Charge       = 0
  Multiplicity = 1
  Basis Set: CC-PVTZ
  Basis Set:

    Orbital Energies (a.u.)
    -----------------------

    Doubly Occupied:

       1A    -20.589387     2A    -20.530767     3A    -11.369088
       4A    -11.297486     5A    -11.240318     6A    -11.229614
       7A     -1.464131     8A     -1.368049     9A     -1.049254
      10A     -1.017666    11A     -0.898637    12A     -0.771868
      13A     -0.698830    14A     -0.689240    15A     -0.669277
      16A     -0.617636    17A     -0.597310    18A     -0.585092
      19A     -0.555794    20A     -0.545165    21A     -0.526764
      22A     -0.498306    23A     -0.450389    24A     -0.437211

  @DF-RHF Final Energy:  -305.97560268078223

   => Energetics <=

    Nuclear Repulsion Energy =            248.8447516946025644
    One-Electron Energy =                -910.2461521287773394
    Two-Electron Energy =                 355.4257977533926578
    DFT Exchange-Correlation Energy =       0.0000000000000000
    Empirical Dispersion Energy =           0.0000000000000000
    PCM Polarization Energy =               0.0000000000000000
    EFP Energy =                            0.0000000000000000
    Total Energy =                       -305.9756026807821172
    Molecular point group: c1
  Basis Set: CC-PVTZ
  Basis Set:

  -Total Gradient:
     Atom            X                  Y                   Z
    ------   -----------------  -----------------  -----------------
       1       -0.000572148365    -0.000255102273    -0.002470686495
       2        0.000934109752     0.000762386485     0.002351800027
       3        0.000014046887    -0.000003846330    -0.000017698678
       4       -0.000651446497    -0.001133352728     0.002203921234
       5        0.000001799480     0.000004626451     0.000005683343
       6       -0.000005178062     0.000000366993     0.000002782035
       7        0.000002274231     0.000001546540     0.000004337298
       8        0.000249269181     0.000612070381    -0.002088982068
       9        0.000020716353     0.000003170540     0.000016639603
      10        0.000004650042    -0.000012630012    -0.000004299609
      11        0.000000038972     0.000013377385    -0.000000642725
      12        0.000000458133     0.000002416649     0.000000757422
      13        0.000001294067     0.000003149561     0.000009356321
      14        0.000000115826     0.000001820363    -0.000012967710

  **** Optimization is complete! (in 10 steps) ****
    Final optimized geometry and variables:
    Molecular point group: c1

    Geometry (in Angstrom), charge = 0, multiplicity = 1:

    O            0.066879470463     1.945709715594     0.273781115032
    C           -0.182422988652     0.804942953725     0.431757318610
    C           -1.555328993139     0.322670954625     0.834684915966
    O            0.780586151367    -0.105897669841     0.293291622472
    H           -2.019801640490    -0.240983335503     0.035631090254
    H           -2.161172179085     1.186199936079     1.052853863334
    H           -1.497340392111    -0.315911522979     1.706850959343
    C            0.537000285382    -1.427555267386    -0.142891845406
    C            0.372660367431    -1.499449031982    -1.648240328853
    H           -0.318562495653    -1.851468590481     0.365510044642
    H            1.407375667916    -1.985879157176     0.166621918782
    H            0.257782631563    -2.532207583610    -1.957078114094
    H           -0.499833648153    -0.949250664646    -1.981075193712
    H            1.241599235516    -1.084618245559    -2.141777203423

  Mulliken Charges: (a.u.)
   Center  Symbol    Alpha    Beta     Spin     Total
       1     O     4.17845  4.17845  0.00000 -0.35691
       2     C     2.81293  2.81293  0.00000  0.37414
       3     C     3.16394  3.16394  0.00000 -0.32788
       4     O     4.14174  4.14174  0.00000 -0.28348
       5     H     0.44890  0.44890  0.00000  0.10220
       6     H     0.42737  0.42737  0.00000  0.14525
       7     H     0.44452  0.44452  0.00000  0.11095
       8     C     2.99955  2.99955  0.00000  0.00089
       9     C     3.14013  3.14013  0.00000 -0.28025
      10     H     0.45947  0.45947  0.00000  0.08105
      11     H     0.43698  0.43698  0.00000  0.12605
      12     H     0.45008  0.45008  0.00000  0.09984
      13     H     0.45394  0.45394  0.00000  0.09212
      14     H     0.44199  0.44199  0.00000  0.11602

   Total alpha = 24.00000, Total beta = 24.00000, Total charge = -0.00000
