  ==> Input File <==

--------------------------------------------------------------------------
set {
	reference rhf
	basis 6-31G*
}

set_num_threads( 1 )
memory 2 gb

molecule MOL {
0 1

H	 1.898200	 2.859677	 2.877021
N	 1.060651	 2.312039	 2.830668
C	 0.824609	 1.844099	 1.472418
H	 0.310590	 2.904198	 3.133301
C	 -0.396102	 0.931278	 1.423663
H	 1.701922	 1.286601	 1.158770
H	 0.697582	 2.657924	 0.754120
C	 -0.679275	 0.379305	 0.025956
H	 -0.243188	 0.116335	 2.125318
H	 -1.267110	 1.482748	 1.776595
C	 -1.903357	 -0.536963	 -0.023547
H	 0.191959	 -0.169442	 -0.328552
H	 -0.822615	 1.204711	 -0.669749
C	 -3.225172	 0.228290	 0.028445
H	 -1.867824	 -1.134999	 -0.931459
H	 -1.860449	 -1.239604	 0.805977
H	 -3.313397	 0.915643	 -0.808262
H	 -4.073500	 -0.448134	 -0.008893
H	 -3.306061	 0.809945	 0.942516

	symmetry c1
}
set optking {
	frozen_dihedral = ("
		6 3 5 9,
		12 8 5 9,
		1 2 3 6
	")
}

ee = energy('scf')
oeprop('DIPOLE', 'QUADRUPOLE', 'MULLIKEN_CHARGES')
f=open( 'psi4out.xyz', 'w' )
f.write( "19  " )
f.write( str(ee) + "\n" )
f.write( MOL.save_string_xyz() )
f.close()
--------------------------------------------------------------------------

    Molecular point group: c1

    Geometry (in Angstrom), charge = 0, multiplicity = 1:

       Center              X                  Y                   Z               Mass
    ------------   -----------------  -----------------  -----------------  -----------------
           H          2.607077358586     1.965795584280     1.893462156470     1.007825032070
           N          1.769528358586     1.418157584280     1.847109156470    14.003074004780
           C          1.533486358586     0.950217584280     0.488859156470    12.000000000000
           H          1.019467358586     2.010316584280     2.149742156470     1.007825032070
           C          0.312775358586     0.037396584280     0.440104156470    12.000000000000
           H          2.410799358586     0.392719584280     0.175211156470     1.007825032070
           H          1.406459358586     1.764042584280    -0.229438843530     1.007825032070
           C          0.029602358586    -0.514576415720    -0.957602843530    12.000000000000
           H          0.465689358586    -0.777546415720     1.141759156470     1.007825032070
           H         -0.558232641414     0.588866584280     0.793036156470     1.007825032070
           C         -1.194479641414    -1.430844415720    -1.007105843530    12.000000000000
           H          0.900836358586    -1.063323415720    -1.312110843530     1.007825032070
           H         -0.113737641414     0.310829584280    -1.653307843530     1.007825032070
           C         -2.516294641414    -0.665591415720    -0.955113843530    12.000000000000
           H         -1.158946641414    -2.028880415720    -1.915017843530     1.007825032070
           H         -1.151571641414    -2.133485415720    -0.177581843530     1.007825032070
           H         -2.604519641414     0.021761584280    -1.791820843530     1.007825032070
           H         -3.364622641414    -1.342015415720    -0.992451843530     1.007825032070
           H         -2.597183641414    -0.083936415720    -0.041042843530     1.007825032070

  Charge       = 0
  Multiplicity = 1
  Basis Set: 6-31G*
  Basis Set:

    Orbital Energies (a.u.)
    -----------------------

    Doubly Occupied:

       1A    -15.532430     2A    -11.239656     3A    -11.213621
       4A    -11.212367     5A    -11.209147     6A    -11.207270
       7A     -1.176557     8A     -1.074137     9A     -0.995164
      10A     -0.902688    11A     -0.821105    12A     -0.780202
      13A     -0.664110    14A     -0.634567    15A     -0.614048
      16A     -0.604214    17A     -0.563114    18A     -0.554039
      19A     -0.519956    20A     -0.498313    21A     -0.490554
      22A     -0.463766    23A     -0.453303    24A     -0.450561
      25A     -0.380895

  @DF-RHF Final Energy:  -251.34958938145624

   => Energetics <=

    Nuclear Repulsion Energy =            249.0248013039962132
    One-Electron Energy =                -832.2373774483753550
    Two-Electron Energy =                 331.8629867629232422
    DFT Exchange-Correlation Energy =       0.0000000000000000
    Empirical Dispersion Energy =           0.0000000000000000
    PCM Polarization Energy =               0.0000000000000000
    EFP Energy =                            0.0000000000000000
    Total Energy =                       -251.3495893814558713

  Mulliken Charges: (a.u.)
   Center  Symbol    Alpha    Beta     Spin     Total
       1     H     0.33251  0.33251  0.00000  0.33498
       2     N     3.92187  3.92187  0.00000 -0.84374
       3     C     3.05990  3.05990  0.00000 -0.11979
       4     H     0.33540  0.33540  0.00000  0.32921
       5     C     3.15307  3.15307  0.00000 -0.30614
       6     H     0.42089  0.42089  0.00000  0.15821
       7     H     0.43479  0.43479  0.00000  0.13041
       8     C     3.15730  3.15730  0.00000 -0.31459
       9     H     0.41298  0.41298  0.00000  0.17404
      10     H     0.42661  0.42661  0.00000  0.14679
      11     C     3.15289  3.15289  0.00000 -0.30577
      12     H     0.42148  0.42148  0.00000  0.15704
      13     H     0.42467  0.42467  0.00000  0.15066
      14     C     3.24087  3.24087  0.00000 -0.48175
      15     H     0.42083  0.42083  0.00000  0.15834
      16     H     0.42165  0.42165  0.00000  0.15670
      17     H     0.42234  0.42234  0.00000  0.15533
      18     H     0.41917  0.41917  0.00000  0.16166
      19     H     0.42079  0.42079  0.00000  0.15842

   Total alpha = 25.00000, Total beta = 25.00000, Total charge =  0.00000
