                              Psi4 1.0.54 Driver

  ==> Input File <==

--------------------------------------------------------------------------
set {
	reference rhf
	basis cc-pvtz
}

set_num_threads( 4 )
memory 2 gb

molecule MOL {
0 1

H	 2.382121	 -1.786960	 0.762548
N	 1.401982	 -1.607833	 0.774778
C	 0.818346	 -1.864136	 -0.526576
C	 1.134115	 -0.255690	 1.221766
H	 1.018643	 -2.890623	 -0.808636
H	 1.232645	 -1.216200	 -1.301271
C	 -0.681559	 -1.641071	 -0.458742
H	 1.563225	 -0.116659	 2.206594
H	 1.568365	 0.493869	 0.557532
C	 -0.366204	 -0.034732	 1.287310
H	 -1.123437	 -2.393823	 0.200576
H	 -1.111862	 -1.774723	 -1.444184
N	 -0.976577	 -0.298712	 -0.000000
H	 -0.568485	 0.993100	 1.564372
H	 -0.786356	 -0.676821	 2.066915
C	 -2.391156	 -0.021003	 -0.000000
H	 -2.853954	 -0.458728	 -0.875714
H	 -2.853954	 -0.458728	 0.875714
H	 -2.614037	 1.049773	 -0.000000

	symmetry c1
}
set optking {
	frozen_dihedral = ("
		7 13 16 19
	")
}

ee,wfn = optimize('scf', return_wfn=True)
oeprop( wfn, 'DIPOLE', 'QUADRUPOLE', 'MULLIKEN_CHARGES')
f=open( 'psi4out.xyz', 'w' )
f.write( "19  " )
f.write( str(ee) + "\n" )
f.write( MOL.save_string_xyz() )
f.close()
--------------------------------------------------------------------------

    Molecular point group: c1
  Charge       = 0
  Multiplicity = 1
  Basis Set: CC-PVTZ
  Basis Set:
  @DF-RHF Final Energy:  -305.30730480483476
    Total Energy =                       -305.3073048048352121
    Molecular point group: c1
  Basis Set: CC-PVTZ
  Basis Set:
  Basis Set: CC-PVTZ
  Basis Set:
  @DF-RHF Final Energy:  -305.30809570992920
    Total Energy =                       -305.3080957099290913
  Basis Set: CC-PVTZ
  Basis Set:
  Basis Set: CC-PVTZ
  Basis Set:
  @DF-RHF Final Energy:  -305.30817306208530
    Total Energy =                       -305.3081730620850749
  Basis Set: CC-PVTZ
  Basis Set:
  Charge       = 0
  Multiplicity = 1
  Basis Set: CC-PVTZ
  Basis Set:

    Orbital Energies (a.u.)
    -----------------------

    Doubly Occupied:

       1A    -15.535242     2A    -15.531211     3A    -11.237158
       4A    -11.237140     5A    -11.235942     6A    -11.235752
       7A    -11.233084     8A     -1.248766     9A     -1.187283
      10A     -1.024197    11A     -0.965856    12A     -0.862076
      13A     -0.858251    14A     -0.756760    15A     -0.692631
      16A     -0.635297    17A     -0.627067    18A     -0.608923
      19A     -0.605106    20A     -0.582040    21A     -0.543651
      22A     -0.531127    23A     -0.511356    24A     -0.490163
      25A     -0.468386    26A     -0.458501    27A     -0.366109
      28A     -0.345212

  @DF-RHF Final Energy:  -305.30817451218212

   => Energetics <=

    Nuclear Repulsion Energy =            340.1705376878524589
    One-Electron Energy =               -1087.7288537406898286
    Two-Electron Energy =                 442.2501415406551928
    DFT Exchange-Correlation Energy =       0.0000000000000000
    Empirical Dispersion Energy =           0.0000000000000000
    PCM Polarization Energy =               0.0000000000000000
    EFP Energy =                            0.0000000000000000
    Total Energy =                       -305.3081745121822337
    Molecular point group: c1
  Basis Set: CC-PVTZ
  Basis Set:

  -Total Gradient:
     Atom            X                  Y                   Z
    ------   -----------------  -----------------  -----------------
       1        0.000007346475     0.000006760677    -0.000000148584
       2        0.000013270530    -0.000014738595     0.000028167440
       3       -0.000031958001     0.000040937388     0.000024003590
       4       -0.000019161065     0.000002955532    -0.000047967475
       5        0.000002341637    -0.000009971670    -0.000000735833
       6       -0.000015239253    -0.000003672393     0.000000945228
       7        0.000196941863     0.000654907600    -0.002356584251
       8        0.000002768429    -0.000006224583     0.000004294389
       9        0.000004929325    -0.000001443353     0.000002025116
      10        0.000003973727     0.000011936179     0.000120593624
      11        0.000021430876     0.000053608090    -0.000009586738
      12       -0.000006775596     0.000011087630    -0.000005501911
      13       -0.000229321425    -0.001062683890     0.002327767920
      14       -0.000002458751     0.000005661008    -0.000003701970
      15       -0.000006410252     0.000004304576    -0.000049526618
      16       -0.000088875021     0.000355277522     0.003201900634
      17        0.000044934205    -0.000009344821    -0.000009914465
      18        0.000018049399    -0.000013141366    -0.000001627416
      19        0.000084212899    -0.000026215534    -0.003224402681

  **** Optimization is complete! (in 4 steps) ****
    Final optimized geometry and variables:
    Molecular point group: c1

    Geometry (in Angstrom), charge = 0, multiplicity = 1:

    H            2.555924250517    -0.924535751553     0.452947492926
    N            1.573304686409    -0.758855174763     0.460167100034
    C            0.996472096221    -1.045918769068    -0.837747133877
    C            1.285642225357     0.596866667218     0.883064906147
    H            1.218837967741    -2.071771338326    -1.105555439175
    H            1.398429800896    -0.399916054382    -1.620734835511
    C           -0.508328174701    -0.853093140945    -0.776937633190
    H            1.714245994208     0.760803889466     1.864368063142
    H            1.707265030311     1.340565263000     0.204112605323
    C           -0.218046856156     0.794146819229     0.947045196746
    H           -0.936068137655    -1.613533367645    -0.116559389173
    H           -0.930259899209    -0.999579102007    -1.763702961898
    N           -0.827739637818     0.486138129278    -0.328483503108
    H           -0.438771870799     1.825297874740     1.198289006095
    H           -0.625500247195     0.165719848490     1.744433360223
    C           -2.240923503855     0.772217996061    -0.347623987516
    H           -2.679074019629     0.382152368318    -1.257755493675
    H           -2.779800997718     0.334705866979     0.496142822666
    H           -2.405998761856     1.843299472451    -0.351576553345

  Mulliken Charges: (a.u.)
   Center  Symbol    Alpha    Beta     Spin     Total
       1     H     0.43994  0.43994  0.00000  0.12013
       2     N     3.64283  3.64283  0.00000 -0.28565
       3     C     3.04143  3.04143  0.00000 -0.08286
       4     C     3.04061  3.04061  0.00000 -0.08123
       5     H     0.45252  0.45252  0.00000  0.09496
       6     H     0.46569  0.46569  0.00000  0.06862
       7     C     3.03232  3.03232  0.00000 -0.06464
       8     H     0.45248  0.45248  0.00000  0.09503
       9     H     0.46558  0.46558  0.00000  0.06885
      10     C     3.03432  3.03432  0.00000 -0.06865
      11     H     0.46990  0.46990  0.00000  0.06021
      12     H     0.45410  0.45410  0.00000  0.09179
      13     N     3.61473  3.61473  0.00000 -0.22945
      14     H     0.45445  0.45445  0.00000  0.09109
      15     H     0.46802  0.46802  0.00000  0.06396
      16     C     3.09642  3.09642  0.00000 -0.19283
      17     H     0.45441  0.45441  0.00000  0.09118
      18     H     0.46889  0.46889  0.00000  0.06222
      19     H     0.45136  0.45136  0.00000  0.09728

   Total alpha = 28.00000, Total beta = 28.00000, Total charge = -0.00000

*** Psi4 exiting successfully. Buy a developer a beer!
