  ==> Input File <==

--------------------------------------------------------------------------
set {
	reference rhf
	basis 6-31G*
}

set_num_threads( 4 )
memory 2 gb

molecule MOL {
0 1

O	 -2.828349	 1.295805	 0.171085
C	 -2.668563	 0.129746	 -0.000350
C	 -3.792069	 -0.845103	 -0.242570
O	 -1.481751	 -0.454642	 0.000584
H	 -4.339855	 -0.532746	 -1.123607
H	 -3.429055	 -1.853732	 -0.374204
H	 -4.474095	 -0.805862	 0.598370
C	 -0.334255	 0.388708	 0.000906
C	 0.891947	 -0.504646	 0.000751
H	 -0.365390	 1.025305	 -0.873475
H	 -0.365484	 1.024911	 0.875569
C	 2.191998	 0.301789	 0.000897
H	 0.855148	 -1.151283	 -0.871571
H	 0.855132	 -1.151660	 0.872805
C	 3.441114	 -0.581407	 0.000108
H	 2.215074	 0.954890	 -0.869742
H	 2.215465	 0.953923	 0.872248
C	 4.739576	 0.224112	 -0.001102
H	 3.419457	 -1.233487	 -0.870178
H	 3.420834	 -1.233096	 0.870717
H	 4.804918	 0.861552	 -0.878265
H	 5.606527	 -0.429058	 -0.001824
H	 4.806469	 0.861674	 0.875853

	symmetry c1
}
set optking {
	frozen_dihedral = ("
		1 2 4 8
	")
}

ee = optimize('scf')
oeprop('DIPOLE', 'QUADRUPOLE', 'MULLIKEN_CHARGES')
f=open( 'psi4out.xyz', 'w' )
f.write( "23  " )
f.write( str(ee) + "\n" )
f.write( MOL.save_string_xyz() )
f.close()
--------------------------------------------------------------------------

    Molecular point group: c1
  Charge       = 0
  Multiplicity = 1
  Basis Set: 6-31G*
  Basis Set:
  @DF-RHF Final Energy:  -422.97883508269558
    Total Energy =                       -422.9788350826958094
    Molecular point group: c1
  Basis Set: 6-31G*
  Basis Set:
  Basis Set: 6-31G*
  Basis Set:
  @DF-RHF Final Energy:  -422.97747295945618
    Total Energy =                       -422.9774729594564633
  Basis Set: 6-31G*
  Basis Set:
  Basis Set: 6-31G*
  Basis Set:
  @DF-RHF Final Energy:  -422.97890771457747
    Total Energy =                       -422.9789077145780993
  Basis Set: 6-31G*
  Basis Set:
  Basis Set: 6-31G*
  Basis Set:
  @DF-RHF Final Energy:  -422.97892370301901
    Total Energy =                       -422.9789237030186086
  Basis Set: 6-31G*
  Basis Set:
  Basis Set: 6-31G*
  Basis Set:
  @DF-RHF Final Energy:  -422.97892747203207
    Total Energy =                       -422.9789274720313870
  Basis Set: 6-31G*
  Basis Set:
  Basis Set: 6-31G*
  Basis Set:
  @DF-RHF Final Energy:  -422.97893079620042
    Total Energy =                       -422.9789307962001885
  Basis Set: 6-31G*
  Basis Set:
  Basis Set: 6-31G*
  Basis Set:
  @DF-RHF Final Energy:  -422.97893447736232
    Total Energy =                       -422.9789344773623725
  Basis Set: 6-31G*
  Basis Set:
  Charge       = 0
  Multiplicity = 1
  Basis Set: 6-31G*
  Basis Set:

    Orbital Energies (a.u.)
    -----------------------

    Doubly Occupied:

       1A    -20.602420     2A    -20.540821     3A    -11.374163
       4A    -11.281808     5A    -11.232410     6A    -11.224538
       7A    -11.223925     8A    -11.221791     9A    -11.213043
      10A     -1.467573    11A     -1.360820    12A     -1.094316
      13A     -1.042173    14A     -1.003540    15A     -0.931021
      16A     -0.841705    17A     -0.802792    18A     -0.774415
      19A     -0.692252    20A     -0.684970    21A     -0.667708
      22A     -0.646756    23A     -0.606235    24A     -0.588525
      25A     -0.582318    26A     -0.566799    27A     -0.558822
      28A     -0.537568    29A     -0.522893    30A     -0.504901
      31A     -0.491202    32A     -0.478076    33A     -0.471269
      34A     -0.466182    35A     -0.450782    36A     -0.435252

  @DF-RHF Final Energy:  -422.97893387661725

   => Energetics <=

    Nuclear Repulsion Energy =            449.5648958950635006
    One-Electron Energy =               -1466.7160868985361049
    Two-Electron Energy =                 594.1722571268544471
    DFT Exchange-Correlation Energy =       0.0000000000000000
    Empirical Dispersion Energy =           0.0000000000000000
    PCM Polarization Energy =               0.0000000000000000
    EFP Energy =                            0.0000000000000000
    Total Energy =                       -422.9789338766181572
    Molecular point group: c1
  Basis Set: 6-31G*
  Basis Set:

  -Total Gradient:
     Atom            X                  Y                   Z
    ------   -----------------  -----------------  -----------------
       1       -0.000353823000    -0.000474706440     0.003588386139
       2        0.000536099976     0.000617816935    -0.006938689570
       3        0.000045728405     0.000006103940     0.000034740049
       4       -0.000320129566    -0.000026270341     0.006117957701
       5       -0.000073178276     0.000010143417     0.000012260254
       6        0.000004017429     0.000005100924    -0.000064049762
       7        0.000053463792    -0.000015229876     0.000018870346
       8        0.000131513912    -0.000120690816    -0.002564966677
       9       -0.000011443064    -0.000001056243    -0.000113676895
      10       -0.000030331107    -0.000059957595    -0.000039083302
      11        0.000014977453     0.000059715076    -0.000026494677
      12       -0.000002076202    -0.000000339921    -0.000005248307
      13        0.000051825026    -0.000048013198    -0.000017284852
      14       -0.000055093111     0.000049411190    -0.000013840604
      15        0.000003265018     0.000004225773    -0.000002360561
      16        0.000012297760     0.000009793698     0.000007213907
      17       -0.000013426283    -0.000011930776     0.000004775703
      18        0.000002378021    -0.000004698144    -0.000012733191
      19       -0.000000654546    -0.000005798414     0.000008119153
      20        0.000003746692     0.000007010748     0.000007891409
      21       -0.000001838041     0.000003956094     0.000001920031
      22        0.000003275881     0.000000640689    -0.000005660032
      23       -0.000000596171    -0.000005226720     0.000001953738

  **** Optimization is complete! (in 8 steps) ****
    Final optimized geometry and variables:
    Molecular point group: c1

    Geometry (in Angstrom), charge = 0, multiplicity = 1:

    O           -2.831464454645     1.303548484067     0.108328462293
    C           -2.668592597561     0.132396053943    -0.018500953645
    C           -3.789574581255    -0.853412202486    -0.225547115851
    O           -1.482604464953    -0.452293297499     0.038758946912
    H           -4.297320431911    -0.611919497952    -1.152192258722
    H           -3.429492816544    -1.870981212181    -0.262054933001
    H           -4.505867892878    -0.741757777324     0.579120219927
    C           -0.333933859627     0.389692829291     0.045773408548
    C            0.891085698737    -0.504836779191     0.020099407012
    H           -0.372227559327     1.039783022587    -0.818729608699
    H           -0.355793678003     1.012283179132     0.930204117976
    C            2.192223880241     0.299795370035     0.027405512905
    H            0.848042562915    -1.135421212424    -0.863669135758
    H            0.858470161845    -1.167547576974     0.880373746720
    C            3.440044555743    -0.584830865933     0.001363570193
    H            2.210814667079     0.969740080356    -0.830512203042
    H            2.222100269348     0.934752138105     0.911100652168
    C            4.739593185408     0.218933707246     0.005915070034
    H            3.411313904805    -1.220658859954    -0.880671070530
    H            3.424895993082    -1.252501334960     0.859876795764
    H            4.799385863732     0.872992885582    -0.859337070138
    H            5.605573328217    -0.435215125832    -0.013756869934
    H            4.813909277162     0.839491457814     0.894387649388

  Mulliken Charges: (a.u.)
   Center  Symbol    Alpha    Beta     Spin     Total
       1     O     4.28320  4.28320  0.00000 -0.56640
       2     C     2.61536  2.61536  0.00000  0.76929
       3     C     3.28792  3.28792  0.00000 -0.57583
       4     O     4.31306  4.31306  0.00000 -0.62613
       5     H     0.39798  0.39798  0.00000  0.20404
       6     H     0.39982  0.39982  0.00000  0.20035
       7     H     0.39706  0.39706  0.00000  0.20588
       8     C     2.99555  2.99555  0.00000  0.00889
       9     C     3.16476  3.16476  0.00000 -0.32951
      10     H     0.41213  0.41213  0.00000  0.17574
      11     H     0.40949  0.40949  0.00000  0.18101
      12     C     3.16004  3.16004  0.00000 -0.32007
      13     H     0.41466  0.41466  0.00000  0.17067
      14     H     0.41374  0.41374  0.00000  0.17253
      15     C     3.15143  3.15143  0.00000 -0.30286
      16     H     0.42099  0.42099  0.00000  0.15802
      17     H     0.42055  0.42055  0.00000  0.15889
      18     C     3.23987  3.23987  0.00000 -0.47975
      19     H     0.42147  0.42147  0.00000  0.15706
      20     H     0.42127  0.42127  0.00000  0.15746
      21     H     0.42090  0.42090  0.00000  0.15820
      22     H     0.41797  0.41797  0.00000  0.16405
      23     H     0.42077  0.42077  0.00000  0.15846

   Total alpha = 36.00000, Total beta = 36.00000, Total charge = -0.00000
