  ==> Input File <==

--------------------------------------------------------------------------
set {
	reference rhf
	basis cc-pvtz
}

set_num_threads( 4 )
memory 2 gb

molecule MOL {
0 1

H	 -2.266619	 1.169943	 0.000098
O	 -1.438073	 1.611259	 0.000041
C	 -0.408657	 0.734701	 0.000005
C	 0.679376	 1.049178	 -0.792900
C	 -0.428782	 -0.431495	 0.756110
H	 0.656660	 1.958182	 -1.361342
C	 1.764759	 0.200301	 -0.841049
C	 0.675283	 -1.265756	 0.688459
C	 -1.616874	 -0.773237	 1.620895
H	 2.605871	 0.450969	 -1.458848
C	 1.768755	 -0.964802	 -0.098789
H	 0.675156	 -2.170949	 1.266900
H	 -2.525964	 -0.875304	 1.034843
H	 -1.458427	 -1.710910	 2.133832
H	 -1.794331	 -0.016079	 2.379542
H	 2.609558	 -1.629906	 -0.131295

	symmetry c1
}
set optking {
	frozen_dihedral = ("
		4 3 2 1
	")
}

ee = optimize('scf')
oeprop('DIPOLE', 'QUADRUPOLE', 'MULLIKEN_CHARGES')
f=open( 'psi4out.xyz', 'w' )
f.write( "16  " )
f.write( str(ee) + "\n" )
f.write( MOL.save_string_xyz() )
f.close()
--------------------------------------------------------------------------

    Molecular point group: c1
  Charge       = 0
  Multiplicity = 1
  Basis Set: CC-PVTZ
  Basis Set:
  @DF-RHF Final Energy:  -344.71776352970005
    Total Energy =                       -344.7177635296997664
    Molecular point group: c1
  Basis Set: CC-PVTZ
  Basis Set:
  Basis Set: CC-PVTZ
  Basis Set:
  @DF-RHF Final Energy:  -344.71796833530431
    Total Energy =                       -344.7179683353041924
  Basis Set: CC-PVTZ
  Basis Set:
  Basis Set: CC-PVTZ
  Basis Set:
  @DF-RHF Final Energy:  -344.71800255123009
    Total Energy =                       -344.7180025512304837
  Basis Set: CC-PVTZ
  Basis Set:
  Basis Set: CC-PVTZ
  Basis Set:
  @DF-RHF Final Energy:  -344.71800810952385
    Total Energy =                       -344.7180081095236233
  Basis Set: CC-PVTZ
  Basis Set:
  Charge       = 0
  Multiplicity = 1
  Basis Set: CC-PVTZ
  Basis Set:

    Orbital Energies (a.u.)
    -----------------------

    Doubly Occupied:

       1A    -20.576815     2A    -11.287476     3A    -11.233940
       4A    -11.228260     5A    -11.227881     6A    -11.227107
       7A    -11.219502     8A    -11.219341     9A     -1.405346
      10A     -1.153657    11A     -1.050793    12A     -1.007725
      13A     -0.941398    14A     -0.828551    15A     -0.819850
      16A     -0.732768    17A     -0.678181    18A     -0.649984
      19A     -0.621753    20A     -0.598536    21A     -0.576234
      22A     -0.572719    23A     -0.553217    24A     -0.539757
      25A     -0.504632    26A     -0.487458    27A     -0.474132
      28A     -0.333436    29A     -0.314896

  @DF-RHF Final Energy:  -344.71800884724036

   => Energetics <=

    Nuclear Repulsion Energy =            350.8444549876399492
    One-Electron Energy =               -1162.9942382165900199
    Two-Electron Energy =                 467.4317743817093742
    DFT Exchange-Correlation Energy =       0.0000000000000000
    Empirical Dispersion Energy =           0.0000000000000000
    PCM Polarization Energy =               0.0000000000000000
    EFP Energy =                            0.0000000000000000
    Total Energy =                       -344.7180088472407533
    Molecular point group: c1
  Basis Set: CC-PVTZ
  Basis Set:

  -Total Gradient:
     Atom            X                  Y                   Z
    ------   -----------------  -----------------  -----------------
       1       -0.000021378212     0.000052686645    -0.001910039163
       2       -0.000354493872    -0.000277111593     0.001882478905
       3        0.001006905601     0.000805002492     0.001112498387
       4       -0.000621847545    -0.000627552363    -0.001082822584
       5       -0.000060140269     0.000036841629    -0.000016646903
       6        0.000005483774    -0.000000747282     0.000014646026
       7        0.000009537386     0.000000806996    -0.000009450840
       8        0.000031972953    -0.000019720785    -0.000040762522
       9        0.000031151637     0.000010580463     0.000045651817
      10        0.000006507986    -0.000014340369     0.000007645260
      11       -0.000009478702     0.000012387439     0.000037572221
      12        0.000000051027     0.000012978702    -0.000002391451
      13       -0.000022290877    -0.000010560324    -0.000010854572
      14       -0.000004660163     0.000012412707    -0.000024572105
      15       -0.000010391518     0.000004187551     0.000011313667
      16        0.000013070792     0.000002148094    -0.000014266144

  **** Optimization is complete! (in 5 steps) ****
    Final optimized geometry and variables:
    Molecular point group: c1

    Geometry (in Angstrom), charge = 0, multiplicity = 1:

    H           -2.309071695926     1.123168535988    -0.153090620114
    O           -1.480590206987     1.567420489630    -0.150709698233
    C           -0.448877367456     0.682041941166    -0.186991873251
    C            0.636934402400     0.998605844313    -0.977851366943
    C           -0.473713753490    -0.488060585490     0.563038853022
    H            0.614253412053     1.909527436204    -1.543206261414
    C            1.726884551960     0.152008174237    -1.024193935745
    C            0.625898580686    -1.326326876948     0.489759501580
    C           -1.661494671198    -0.820309283799     1.429927849876
    H            2.570914241382     0.404992212393    -1.636895252217
    C            1.723210317229    -1.017643860634    -0.291797898650
    H            0.624960260171    -2.235089971636     1.062398575833
    H           -2.557277911450    -0.994943582187     0.839130194045
    H           -1.477667263779    -1.717875739094     2.003309778749
    H           -1.879684066456    -0.015922920473     2.122795543181
    H            2.563856342096    -1.683283238636    -0.325087039381

  Mulliken Charges: (a.u.)
   Center  Symbol    Alpha    Beta     Spin     Total
       1     H     0.38530  0.38530  0.00000  0.22940
       2     O     4.18209  4.18209  0.00000 -0.36419
       3     C     2.87970  2.87970  0.00000  0.24061
       4     C     3.11062  3.11062  0.00000 -0.22123
       5     C     3.00409  3.00409  0.00000 -0.00817
       6     H     0.41840  0.41840  0.00000  0.16320
       7     C     3.06957  3.06957  0.00000 -0.13913
       8     C     3.08828  3.08828  0.00000 -0.17657
       9     C     3.15658  3.15658  0.00000 -0.31317
      10     H     0.42237  0.42237  0.00000  0.15525
      11     C     3.08600  3.08600  0.00000 -0.17200
      12     H     0.42526  0.42526  0.00000  0.14947
      13     H     0.45785  0.45785  0.00000  0.08431
      14     H     0.44826  0.44826  0.00000  0.10348
      15     H     0.44103  0.44103  0.00000  0.11794
      16     H     0.42460  0.42460  0.00000  0.15081

   Total alpha = 29.00000, Total beta = 29.00000, Total charge =  0.00000
