  ==> Input File <==

--------------------------------------------------------------------------
set {
	reference rhf
	basis 6-31G*
}

set_num_threads( 1 )
memory 2 gb

molecule MOL {
0 1

H	 2.465338	 -2.224223	 0.000000
O	 2.784187	 -1.332015	 0.000000
C	 1.765313	 -0.449364	 0.000000
C	 0.522022	 -0.909167	 0.422789
C	 1.919172	 0.864406	 -0.398083
H	 0.428114	 -1.934520	 0.727242
C	 -0.560041	 -0.053776	 0.445348
H	 2.865371	 1.245372	 -0.728382
C	 0.811578	 1.696163	 -0.362939
H	 -1.516260	 -0.417127	 0.773188
C	 -0.431053	 1.271002	 0.050163
N	 0.979813	 3.085032	 -0.785107
H	 -1.261097	 1.946493	 0.062151
O	 2.067337	 3.428813	 -1.138857
O	 0.021611	 3.794263	 -0.751859

	symmetry c1
}
set optking {
	frozen_dihedral = ("
		11 9 12 14
	")
}

ee = energy('scf')
oeprop('DIPOLE', 'QUADRUPOLE', 'MULLIKEN_CHARGES')
f=open( 'psi4out.xyz', 'w' )
f.write( "15  " )
f.write( str(ee) + "\n" )
f.write( MOL.save_string_xyz() )
f.close()
--------------------------------------------------------------------------

    Molecular point group: c1

    Geometry (in Angstrom), charge = 0, multiplicity = 1:

       Center              X                  Y                   Z               Mass
    ------------   -----------------  -----------------  -----------------  -----------------
           H          1.436800242056    -3.411498492384     0.276980051068     1.007825032070
           O          1.755649242056    -2.519290492384     0.276980051068    15.994914619560
           C          0.736775242056    -1.636639492384     0.276980051068    12.000000000000
           C         -0.506515757944    -2.096442492384     0.699769051068    12.000000000000
           C          0.890634242056    -0.322869492384    -0.121102948932    12.000000000000
           H         -0.600423757944    -3.121795492384     1.004222051068     1.007825032070
           C         -1.588578757944    -1.241051492384     0.722328051068    12.000000000000
           H          1.836833242056     0.058096507616    -0.451401948932     1.007825032070
           C         -0.216959757944     0.508887507616    -0.085958948932    12.000000000000
           H         -2.544797757944    -1.604402492384     1.050168051068     1.007825032070
           C         -1.459590757944     0.083726507616     0.327143051068    12.000000000000
           N         -0.048724757944     1.897756507616    -0.508126948932    14.003074004780
           H         -2.289634757944     0.759217507616     0.339131051068     1.007825032070
           O          1.038799242056     2.241537507616    -0.861876948932    15.994914619560
           O         -1.006926757944     2.606987507616    -0.474878948932    15.994914619560

  Charge       = 0
  Multiplicity = 1
  Basis Set: 6-31G*
  Basis Set:

    Orbital Energies (a.u.)
    -----------------------

    Doubly Occupied:

       1A    -20.612592     2A    -20.603407     3A    -20.602799
       4A    -15.857904     5A    -11.330391     6A    -11.310764
       7A    -11.268905     8A    -11.265100     9A    -11.265051
      10A    -11.264276    11A     -1.636558    12A     -1.435217
      13A     -1.419738    14A     -1.200562    15A     -1.094886
      16A     -1.047572    17A     -0.965309    18A     -0.865627
      19A     -0.846210    20A     -0.795705    21A     -0.735469
      22A     -0.733294    23A     -0.721844    24A     -0.711829
      25A     -0.680806    26A     -0.636810    27A     -0.620229
      28A     -0.588597    29A     -0.569590    30A     -0.531424
      31A     -0.514935    32A     -0.491390    33A     -0.488135
      34A     -0.452765    35A     -0.379034    36A     -0.343927

  @DF-RHF Final Energy:  -509.02396926979384

   => Energetics <=

    Nuclear Repulsion Energy =            503.2333616272101153
    One-Electron Energy =               -1692.7371376145260911
    Two-Electron Energy =                 680.4798067175229335
    DFT Exchange-Correlation Energy =       0.0000000000000000
    Empirical Dispersion Energy =           0.0000000000000000
    PCM Polarization Energy =               0.0000000000000000
    EFP Energy =                            0.0000000000000000
    Total Energy =                       -509.0239692697930423

  Mulliken Charges: (a.u.)
   Center  Symbol    Alpha    Beta     Spin     Total
       1     H     0.26695  0.26695  0.00000  0.46610
       2     O     4.37836  4.37836  0.00000 -0.75671
       3     C     2.78751  2.78751  0.00000  0.42498
       4     C     3.13088  3.13088  0.00000 -0.26177
       5     C     3.11672  3.11672  0.00000 -0.23345
       6     H     0.39376  0.39376  0.00000  0.21249
       7     C     3.09995  3.09995  0.00000 -0.19990
       8     H     0.35742  0.35742  0.00000  0.28517
       9     C     2.91244  2.91244  0.00000  0.17512
      10     H     0.38741  0.38741  0.00000  0.22518
      11     C     3.09788  3.09788  0.00000 -0.19577
      12     N     3.24104  3.24104  0.00000  0.51793
      13     H     0.36505  0.36505  0.00000  0.26990
      14     O     4.23203  4.23203  0.00000 -0.46405
      15     O     4.23261  4.23261  0.00000 -0.46521

   Total alpha = 36.00000, Total beta = 36.00000, Total charge =  0.00000
