                              Psi4 1.0.54 Driver

  ==> Input File <==

--------------------------------------------------------------------------
set {
	reference rhf
	basis cc-pvtz
}

set_num_threads( 4 )
memory 2 gb

molecule MOL {
0 1

H	 -2.542064	 0.515806	 0.605286
O	 -2.313989	 -0.142475	 -0.025864
C	 -0.943808	 -0.065018	 -0.330000
H	 -0.812293	 -0.225641	 -1.398673
C	 -0.231030	 -1.182113	 0.407592
C	 -0.353797	 1.300461	 0.050970
H	 -0.312800	 -0.992012	 1.473041
H	 -0.738841	 -2.119564	 0.220514
C	 1.246176	 -1.268044	 -0.015480
H	 -0.539537	 2.008579	 -0.751815
H	 -0.889989	 1.662858	 0.920677
C	 1.153605	 1.231851	 0.356834
H	 1.823096	 -1.684665	 0.802361
H	 1.352335	 -1.958223	 -0.845114
C	 1.826409	 0.100723	 -0.416008
H	 1.622968	 2.181508	 0.128734
H	 1.301983	 1.066493	 1.419367
H	 2.897299	 0.112407	 -0.249665
H	 1.683458	 0.265621	 -1.480024

	symmetry c1
}
set optking {
	frozen_dihedral = ("
		1 2 3 4
	")
}

ee,wfn = optimize('scf', return_wfn=True)
oeprop( wfn, 'DIPOLE', 'QUADRUPOLE', 'MULLIKEN_CHARGES')
f=open( 'psi4out.xyz', 'w' )
f.write( "19  " )
f.write( str(ee) + "\n" )
f.write( MOL.save_string_xyz() )
f.close()
--------------------------------------------------------------------------

    Molecular point group: c1
  Charge       = 0
  Multiplicity = 1
  Basis Set: CC-PVTZ
  Basis Set:
  @DF-RHF Final Energy:  -309.16084385082411
    Total Energy =                       -309.1608438508239942
    Molecular point group: c1
  Basis Set: CC-PVTZ
  Basis Set:
  Basis Set: CC-PVTZ
  Basis Set:
  @DF-RHF Final Energy:  -309.16177514784141
    Total Energy =                       -309.1617751478414107
  Basis Set: CC-PVTZ
  Basis Set:
  Basis Set: CC-PVTZ
  Basis Set:
  @DF-RHF Final Energy:  -309.16196188381059
    Total Energy =                       -309.1619618838109318
  Basis Set: CC-PVTZ
  Basis Set:
  Basis Set: CC-PVTZ
  Basis Set:
  @DF-RHF Final Energy:  -309.16196537098534
    Total Energy =                       -309.1619653709852855
  Basis Set: CC-PVTZ
  Basis Set:
  Charge       = 0
  Multiplicity = 1
  Basis Set: CC-PVTZ
  Basis Set:

    Orbital Energies (a.u.)
    -----------------------

    Doubly Occupied:

       1A    -20.541225     2A    -11.267312     3A    -11.219326
       4A    -11.218385     5A    -11.215466     6A    -11.214344
       7A    -11.207133     8A     -1.361905     9A     -1.111960
      10A     -1.005806    11A     -0.990116    12A     -0.846161
      13A     -0.843725    14A     -0.750133    15A     -0.675676
      16A     -0.667039    17A     -0.615583    18A     -0.609739
      19A     -0.581300    20A     -0.557946    21A     -0.530835
      22A     -0.521844    23A     -0.502888    24A     -0.489345
      25A     -0.469764    26A     -0.450828    27A     -0.429840
      28A     -0.411027

  @DF-RHF Final Energy:  -309.16196575378137

   => Energetics <=

    Nuclear Repulsion Energy =            331.8703200177027384
    One-Electron Energy =               -1077.4512643356347326
    Two-Electron Energy =                 436.4189785641505068
    DFT Exchange-Correlation Energy =       0.0000000000000000
    Empirical Dispersion Energy =           0.0000000000000000
    PCM Polarization Energy =               0.0000000000000000
    EFP Energy =                            0.0000000000000000
    Total Energy =                       -309.1619657537814874
    Molecular point group: c1
  Basis Set: CC-PVTZ
  Basis Set:

  -Total Gradient:
     Atom            X                  Y                   Z
    ------   -----------------  -----------------  -----------------
       1       -0.000214960400     0.000862631785    -0.001024909891
       2        0.000257614488    -0.000869113634     0.001222644182
       3        0.000054061472    -0.001141387597     0.000011057323
       4       -0.000076072841     0.001106236737    -0.000188165570
       5       -0.000025207177    -0.000009409145    -0.000028091674
       6        0.000037703197    -0.000000386689     0.000010260250
       7        0.000002226576    -0.000001524971    -0.000012057948
       8        0.000003542931    -0.000009125509     0.000005601263
       9       -0.000018061147    -0.000009502762     0.000037549452
      10        0.000008922010     0.000017253202    -0.000002030291
      11        0.000015673078     0.000007540323    -0.000002180970
      12       -0.000010326065     0.000028846670    -0.000017269094
      13        0.000007309863    -0.000017031246     0.000002237493
      14       -0.000010029729     0.000000796264     0.000002984562
      15       -0.000018571064     0.000018331396    -0.000026664309
      16       -0.000000575494     0.000013295287     0.000012115310
      17       -0.000008280624     0.000000143060     0.000002705132
      18       -0.000013415417    -0.000003247954     0.000003902019
      19        0.000008446344     0.000005654782    -0.000009687240

  **** Optimization is complete! (in 5 steps) ****
    Final optimized geometry and variables:
    Molecular point group: c1

    Geometry (in Angstrom), charge = 0, multiplicity = 1:

    H           -2.586731027859     0.503654138080     0.583790758327
    O           -2.333278797616    -0.157732687846    -0.032118358739
    C           -0.951562012850    -0.090832515794    -0.286625033502
    H           -0.844647728171    -0.266402897402    -1.351731703847
    C           -0.194305424544    -1.178126409241     0.458686116024
    C           -0.372903029297     1.291622014199     0.038838792647
    H           -0.238874082253    -0.963983039716     1.523341175026
    H           -0.694367261003    -2.127174345474     0.313901640233
    C            1.269025080936    -1.254094274314    -0.014046407039
    H           -0.616835079998     1.977545708218    -0.764718164999
    H           -0.862229899243     1.674421024376     0.931774714392
    C            1.147967561473     1.255384889826     0.278520950739
    H            1.884962698103    -1.629486756530     0.795348551415
    H            1.357776712307    -1.971852832006    -0.821889240435
    C            1.805968494332     0.109745969876    -0.485735848880
    H            1.589203408887     2.204515682497    -0.001424266919
    H            1.347232767060     1.127686793371     1.337968309781
    H            2.882468326803     0.146179341370    -0.366192624839
    H            1.614533865910     0.236290283181    -1.547055715158

  Mulliken Charges: (a.u.)
   Center  Symbol    Alpha    Beta     Spin     Total
       1     H     0.39379  0.39379  0.00000  0.21242
       2     O     4.20871  4.20871  0.00000 -0.41742
       3     C     2.92814  2.92814  0.00000  0.14372
       4     H     0.44868  0.44868  0.00000  0.10264
       5     C     3.09718  3.09718  0.00000 -0.19435
       6     C     3.11886  3.11886  0.00000 -0.23772
       7     H     0.46079  0.46079  0.00000  0.07842
       8     H     0.44104  0.44104  0.00000  0.11793
       9     C     3.11347  3.11347  0.00000 -0.22694
      10     H     0.44345  0.44345  0.00000  0.11310
      11     H     0.45908  0.45908  0.00000  0.08185
      12     C     3.09981  3.09981  0.00000 -0.19961
      13     H     0.44747  0.44747  0.00000  0.10505
      14     H     0.44659  0.44659  0.00000  0.10683
      15     C     3.10263  3.10263  0.00000 -0.20526
      16     H     0.44156  0.44156  0.00000  0.11689
      17     H     0.45324  0.45324  0.00000  0.09352
      18     H     0.44260  0.44260  0.00000  0.11479
      19     H     0.45292  0.45292  0.00000  0.09416

   Total alpha = 28.00000, Total beta = 28.00000, Total charge =  0.00000

*** Psi4 exiting successfully. Buy a developer a beer!
