                              Psi4 1.0.54 Driver

  ==> Input File <==

--------------------------------------------------------------------------
set {
	reference rhf
	basis cc-pvtz
}

set_num_threads( 4 )
memory 2 gb

molecule MOL {
0 1

O	 2.205980	 -0.346622	 0.056477
C	 1.121787	 0.124983	 0.000110
C	 -0.170912	 -0.649867	 -0.000147
O	 0.901382	 1.427537	 -0.071656
C	 -1.413045	 0.229353	 0.001137
H	 -0.152877	 -1.303435	 -0.866175
H	 -0.152278	 -1.305116	 0.864586
C	 -2.702562	 -0.586401	 0.000228
H	 -1.390744	 0.882001	 -0.864365
H	 -1.390549	 0.879837	 0.868264
C	 -3.953810	 0.284959	 -0.000782
H	 -2.717793	 -1.238567	 -0.869075
H	 -2.719108	 -1.238472	 0.869576
H	 -3.983727	 0.924403	 -0.876454
H	 -4.852989	 -0.320147	 -0.001515
H	 -3.985140	 0.924399	 0.874841
C	 2.030642	 2.277255	 -0.080045
H	 2.607627	 2.153639	 0.824407
H	 1.646312	 3.282415	 -0.141787
H	 2.660517	 2.066011	 -0.931431

	symmetry c1
}
set optking {
	frozen_dihedral = ("
		1 2 3 6
	")
}

ee,wfn = optimize('scf', return_wfn=True)
oeprop( wfn, 'DIPOLE', 'QUADRUPOLE', 'MULLIKEN_CHARGES')
f=open( 'psi4out.xyz', 'w' )
f.write( "20  " )
f.write( str(ee) + "\n" )
f.write( MOL.save_string_xyz() )
f.close()
--------------------------------------------------------------------------

    Molecular point group: c1
  Charge       = 0
  Multiplicity = 1
  Basis Set: CC-PVTZ
  Basis Set:
  @DF-RHF Final Energy:  -384.07921208801298
    Total Energy =                       -384.0792120880129232
    Molecular point group: c1
  Basis Set: CC-PVTZ
  Basis Set:
  Basis Set: CC-PVTZ
  Basis Set:
  @DF-RHF Final Energy:  -384.08004779166265
    Total Energy =                       -384.0800477916627642
  Basis Set: CC-PVTZ
  Basis Set:
  Basis Set: CC-PVTZ
  Basis Set:
  @DF-RHF Final Energy:  -384.08064841838058
    Total Energy =                       -384.0806484183806333
  Basis Set: CC-PVTZ
  Basis Set:
  Basis Set: CC-PVTZ
  Basis Set:
  @DF-RHF Final Energy:  -384.08062022407887
    Total Energy =                       -384.0806202240788707
  Basis Set: CC-PVTZ
  Basis Set:
  Basis Set: CC-PVTZ
  Basis Set:
  @DF-RHF Final Energy:  -384.08066394552640
    Total Energy =                       -384.0806639455263394
  Basis Set: CC-PVTZ
  Basis Set:
  Charge       = 0
  Multiplicity = 1
  Basis Set: CC-PVTZ
  Basis Set:

    Orbital Energies (a.u.)
    -----------------------

    Doubly Occupied:

       1A    -20.599494     2A    -20.529293     3A    -11.365073
       4A    -11.279516     5A    -11.234153     6A    -11.221757
       7A    -11.220601     8A    -11.211582     9A     -1.473494
      10A     -1.364124    11A     -1.092574    12A     -1.024788
      13A     -0.967990    14A     -0.893346    15A     -0.806761
      16A     -0.777057    17A     -0.695025    18A     -0.687548
      19A     -0.674660    20A     -0.648759    21A     -0.594312
      22A     -0.593846    23A     -0.582335    24A     -0.543463
      25A     -0.532689    26A     -0.524263    27A     -0.503121
      28A     -0.497074    29A     -0.479472    30A     -0.476179
      31A     -0.455088    32A     -0.430833

  @DF-RHF Final Energy:  -384.08067967561038

   => Energetics <=

    Nuclear Repulsion Energy =            384.2644597977081844
    One-Electron Energy =               -1284.7297388636004598
    Two-Electron Energy =                 516.3845993902818918
    DFT Exchange-Correlation Energy =       0.0000000000000000
    Empirical Dispersion Energy =           0.0000000000000000
    PCM Polarization Energy =               0.0000000000000000
    EFP Energy =                            0.0000000000000000
    Total Energy =                       -384.0806796756103267
    Molecular point group: c1
  Basis Set: CC-PVTZ
  Basis Set:

  -Total Gradient:
     Atom            X                  Y                   Z
    ------   -----------------  -----------------  -----------------
       1       -0.000114361396     0.000094590516    -0.000212671822
       2        0.000192365017    -0.000343039075     0.000351267253
       3       -0.000087414115     0.000224154435    -0.000197689040
       4       -0.000048229772     0.000209302427    -0.000026214853
       5        0.000044549913    -0.000023843083    -0.000005139201
       6        0.000064235572    -0.000140377156     0.000092272231
       7       -0.000002551515    -0.000009629133    -0.000000460373
       8       -0.000022961407     0.000004857805    -0.000002281893
       9       -0.000007531541     0.000004796273     0.000003872035
      10       -0.000010794026     0.000002200923    -0.000007847838
      11       -0.000018475547    -0.000005590243     0.000006259694
      12        0.000012026450     0.000004088529     0.000000393489
      13        0.000008543149     0.000001185606    -0.000001453491
      14       -0.000001348457     0.000000816070    -0.000000962645
      15       -0.000004338116     0.000005059283     0.000001057988
      16       -0.000003710736     0.000003019600    -0.000000381052
      17       -0.000025734243    -0.000062676599     0.000003324745
      18        0.000012036898     0.000017567905     0.000008763036
      19       -0.000005586964    -0.000004274240     0.000000027752
      20        0.000019280831     0.000017790158    -0.000012136015

  **** Optimization is complete! (in 6 steps) ****
    Final optimized geometry and variables:
    Molecular point group: c1

    Geometry (in Angstrom), charge = 0, multiplicity = 1:

    O            2.380595196263    -0.761555549225     0.106540628105
    C            1.334597565848    -0.211230114393     0.026426640542
    C            0.015274087418    -0.948890824450     0.018523901925
    O            1.216016538412     1.099516960560    -0.072918220313
    C           -1.255912605458    -0.108328237848     0.004742653529
    H            0.051219745375    -1.605373352905    -0.844525627133
    H            0.037546272555    -1.601832058783     0.883552756135
    C           -2.513925845855    -0.972697563533     0.008661443576
    H           -1.259781914948     0.533983085085    -0.868632530166
    H           -1.266649274428     0.550677486620     0.866201988637
    C           -3.798017358355    -0.150554741489    -0.004322946181
    H           -2.500469867135    -1.633175496380    -0.854131986690
    H           -2.507229443599    -1.616286637536     0.884132180178
    H           -3.850759099482     0.478389367711    -0.886613338399
    H           -4.672854750384    -0.790167163697    -0.001279001591
    H           -3.857400209785     0.495677905467     0.864964439583
    C            2.409054982741     1.858263930093    -0.081251362361
    H            2.962547509447     1.706535887480     0.833282783825
    H            2.104807286262     2.888759912969    -0.167003731056
    H            3.030452659119     1.580667754124    -0.919460008909

  Mulliken Charges: (a.u.)
   Center  Symbol    Alpha    Beta     Spin     Total
       1     O     4.20481  4.20481  0.00000 -0.40963
       2     C     2.81255  2.81255  0.00000  0.37489
       3     C     3.09276  3.09276  0.00000 -0.18551
       4     O     4.13976  4.13976  0.00000 -0.27952
       5     C     3.08149  3.08149  0.00000 -0.16298
       6     H     0.43925  0.43925  0.00000  0.12150
       7     H     0.43780  0.43780  0.00000  0.12440
       8     C     3.08859  3.08859  0.00000 -0.17718
       9     H     0.44845  0.44845  0.00000  0.10310
      10     H     0.44937  0.44937  0.00000  0.10125
      11     C     3.14972  3.14972  0.00000 -0.29944
      12     H     0.45394  0.45394  0.00000  0.09212
      13     H     0.45380  0.45380  0.00000  0.09241
      14     H     0.45443  0.45443  0.00000  0.09113
      15     H     0.44733  0.44733  0.00000  0.10535
      16     H     0.45442  0.45442  0.00000  0.09116
      17     C     3.03779  3.03779  0.00000 -0.07558
      18     H     0.45325  0.45325  0.00000  0.09350
      19     H     0.44720  0.44720  0.00000  0.10559
      20     H     0.45328  0.45328  0.00000  0.09343

   Total alpha = 32.00000, Total beta = 32.00000, Total charge =  0.00000

*** Psi4 exiting successfully. Buy a developer a beer!
