                              Psi4 1.0.54 Driver

  ==> Input File <==

--------------------------------------------------------------------------
set {
	reference rhf
	basis cc-pvtz
}

set_num_threads( 4 )
memory 2 gb

molecule MOL {
0 1

H	 -0.939693	 0.000281	 1.681345
O	 -0.046262	 -0.000157	 1.387678
C	 -0.000837	 0.000006	 -0.025491
C	 0.939707	 -1.103020	 -0.507009
C	 -1.408013	 -0.207103	 -0.582364
C	 0.535043	 1.371703	 -0.412102
H	 1.023170	 -1.104325	 -1.587669
H	 0.575804	 -2.079507	 -0.201853
H	 1.927280	 -0.964607	 -0.085104
H	 -1.410494	 -0.175549	 -1.665778
H	 -1.804221	 -1.171284	 -0.278313
H	 -2.074478	 0.562467	 -0.213515
H	 0.606765	 1.469177	 -1.488969
H	 1.518351	 1.523680	 0.014769
H	 -0.119423	 2.148709	 -0.037733

	symmetry c1
}
set optking {
	frozen_dihedral = ("
		4 3 2 1
	")
}

ee,wfn = optimize('scf', return_wfn=True)
oeprop( wfn, 'DIPOLE', 'QUADRUPOLE', 'MULLIKEN_CHARGES')
f=open( 'psi4out.xyz', 'w' )
f.write( "15  " )
f.write( str(ee) + "\n" )
f.write( MOL.save_string_xyz() )
f.close()
--------------------------------------------------------------------------

    Molecular point group: c1
  Charge       = 0
  Multiplicity = 1
  Basis Set: CC-PVTZ
  Basis Set:
  @DF-RHF Final Energy:  -232.24395847800463
    Total Energy =                       -232.2439584780047426
    Molecular point group: c1
  Basis Set: CC-PVTZ
  Basis Set:
  Basis Set: CC-PVTZ
  Basis Set:
  @DF-RHF Final Energy:  -232.21828705635534
    Total Energy =                       -232.2182870563551091
  Basis Set: CC-PVTZ
  Basis Set:
  Basis Set: CC-PVTZ
  Basis Set:
  @DF-RHF Final Energy:  -232.24429918083686
    Total Energy =                       -232.2442991808368333
  Basis Set: CC-PVTZ
  Basis Set:
  Basis Set: CC-PVTZ
  Basis Set:
  @DF-RHF Final Energy:  -232.24484186335278
    Total Energy =                       -232.2448418633528036
  Basis Set: CC-PVTZ
  Basis Set:
  Basis Set: CC-PVTZ
  Basis Set:
  @DF-RHF Final Energy:  -232.24484933269349
    Total Energy =                       -232.2448493326933772
  Basis Set: CC-PVTZ
  Basis Set:
  Basis Set: CC-PVTZ
  Basis Set:
  @DF-RHF Final Energy:  -232.24485441221526
    Total Energy =                       -232.2448544122149769
  Basis Set: CC-PVTZ
  Basis Set:
  Charge       = 0
  Multiplicity = 1
  Basis Set: CC-PVTZ
  Basis Set:

    Orbital Energies (a.u.)
    -----------------------

    Doubly Occupied:

       1A    -20.540328     2A    -11.281138     3A    -11.216106
       4A    -11.203711     5A    -11.203307     6A     -1.362864
       7A     -1.065731     8A     -0.946129     9A     -0.936853
      10A     -0.778595    11A     -0.671864    12A     -0.624572
      13A     -0.622884    14A     -0.576390    15A     -0.557469
      16A     -0.534662    17A     -0.517071    18A     -0.511312
      19A     -0.503349    20A     -0.458084    21A     -0.426757

  @DF-RHF Final Energy:  -232.24485525375556

   => Energetics <=

    Nuclear Repulsion Energy =            200.5761677370985865
    One-Electron Energy =                -712.5636909352699604
    Two-Electron Energy =                 279.7426679444159845
    DFT Exchange-Correlation Energy =       0.0000000000000000
    Empirical Dispersion Energy =           0.0000000000000000
    PCM Polarization Energy =               0.0000000000000000
    EFP Energy =                            0.0000000000000000
    Total Energy =                       -232.2448552537554178
    Molecular point group: c1
  Basis Set: CC-PVTZ
  Basis Set:

  -Total Gradient:
     Atom            X                  Y                   Z
    ------   -----------------  -----------------  -----------------
       1        0.000024427603    -0.000912519188     0.000245842144
       2       -0.000141911966     0.001003210668    -0.000320427030
       3        0.000537748866     0.000290156895     0.000023993587
       4       -0.000422522158    -0.000390052888     0.000059373678
       5       -0.000007575867    -0.000001532113     0.000001570064
       6        0.000007829288     0.000018273237     0.000005140946
       7        0.000001123726     0.000001266981    -0.000007137674
       8        0.000003329759    -0.000005017416    -0.000001305123
       9        0.000008920535    -0.000004209182     0.000008023844
      10        0.000001003947    -0.000001969417    -0.000013495312
      11        0.000001392166    -0.000010958953     0.000002106451
      12       -0.000014317183     0.000008993265     0.000005424485
      13        0.000000563082    -0.000006174152    -0.000011621764
      14        0.000002840585     0.000005397051     0.000002247767
      15       -0.000002852384     0.000005135213     0.000000263939

  **** Optimization is complete! (in 7 steps) ****
    Final optimized geometry and variables:
    Molecular point group: c1

    Geometry (in Angstrom), charge = 0, multiplicity = 1:

    H           -1.128514349090     0.391245858680     1.522849225058
    O           -0.211245280552     0.365766556702     1.327095947912
    C            0.006714191343    -0.004344716257    -0.024065773583
    C            1.035395182790    -1.130000058533    -0.013523548491
    C           -1.300669258367    -0.479678341257    -0.651757985288
    C            0.547768022551     1.215707318379    -0.764243736371
    H            1.294681299085    -1.433539692391    -1.021544021383
    H            0.647583725229    -1.990364785358     0.517993926734
    H            1.937388306946    -0.803759457147     0.489075059115
    H           -1.151402976768    -0.777854324299    -1.682050400398
    H           -1.697617448180    -1.331236361697    -0.109755801909
    H           -2.043261079873     0.312236768752    -0.640278771496
    H            0.779864122615     0.979374797742    -1.796791708567
    H            1.449399080298     1.572033203749    -0.282116342521
    H           -0.179056537841     2.019561271709    -0.751697373910

  Mulliken Charges: (a.u.)
   Center  Symbol    Alpha    Beta     Spin     Total
       1     H     0.39193  0.39193  0.00000  0.21615
       2     O     4.21523  4.21523  0.00000 -0.43046
       3     C     2.88039  2.88039  0.00000  0.23921
       4     C     3.13949  3.13949  0.00000 -0.27897
       5     C     3.16285  3.16285  0.00000 -0.32570
       6     C     3.14030  3.14030  0.00000 -0.28060
       7     H     0.45960  0.45960  0.00000  0.08080
       8     H     0.45288  0.45288  0.00000  0.09424
       9     H     0.44764  0.44764  0.00000  0.10472
      10     H     0.45047  0.45047  0.00000  0.09905
      11     H     0.44704  0.44704  0.00000  0.10593
      12     H     0.45051  0.45051  0.00000  0.09898
      13     H     0.45927  0.45927  0.00000  0.08147
      14     H     0.44814  0.44814  0.00000  0.10372
      15     H     0.45426  0.45426  0.00000  0.09147

   Total alpha = 21.00000, Total beta = 21.00000, Total charge =  0.00000

*** Psi4 exiting successfully. Buy a developer a beer!
