  ==> Input File <==

--------------------------------------------------------------------------
set {
	reference rhf
	basis cc-pvtz
}

set_num_threads( 4 )
memory 2 gb

molecule MOL {
0 1

H	 2.336053	 -0.982311	 -0.134014
O	 2.063695	 -0.083403	 -0.105237
C	 0.742924	 0.005675	 0.350750
H	 0.731380	 0.039219	 1.440080
C	 -0.064076	 -1.193495	 -0.124425
C	 -0.047832	 1.190568	 -0.194462
H	 0.194729	 -1.376165	 -1.161308
H	 0.163013	 -2.094508	 0.429933
C	 -1.533112	 -0.752002	 0.006102
H	 0.148003	 1.266545	 -1.259275
H	 0.226235	 2.136493	 0.259722
C	 -1.506634	 0.799189	 0.067162
H	 -2.124360	 -1.110499	 -0.826089
H	 -1.983103	 -1.158030	 0.903403
H	 -2.183808	 1.252169	 -0.644677
H	 -1.813926	 1.138698	 1.049457

	symmetry c1
}
set optking {
	frozen_dihedral = ("
		1 2 3 6
	")
}

ee = optimize('scf')
oeprop('DIPOLE', 'QUADRUPOLE', 'MULLIKEN_CHARGES')
f=open( 'psi4out.xyz', 'w' )
f.write( "16  " )
f.write( str(ee) + "\n" )
f.write( MOL.save_string_xyz() )
f.close()
--------------------------------------------------------------------------

    Molecular point group: c1
  Charge       = 0
  Multiplicity = 1
  Basis Set: CC-PVTZ
  Basis Set:
  @DF-RHF Final Energy:  -270.11426334567903
    Total Energy =                       -270.1142633456787507
    Molecular point group: c1
  Basis Set: CC-PVTZ
  Basis Set:
  Basis Set: CC-PVTZ
  Basis Set:
  @DF-RHF Final Energy:  -270.11563260234971
    Total Energy =                       -270.1156326023498764
  Basis Set: CC-PVTZ
  Basis Set:
  Basis Set: CC-PVTZ
  Basis Set:
  @DF-RHF Final Energy:  -270.11578670784718
    Total Energy =                       -270.1157867078469508
  Basis Set: CC-PVTZ
  Basis Set:
  Basis Set: CC-PVTZ
  Basis Set:
  @DF-RHF Final Energy:  -270.11579175370105
    Total Energy =                       -270.1157917537011599
  Basis Set: CC-PVTZ
  Basis Set:
  @DF-RHF Final Energy:  -270.11579298208335
    Total Energy =                       -270.1157929820835761
  Basis Set: CC-PVTZ
  Basis Set:
  @DF-RHF Final Energy:  -270.11579529387552
    Total Energy =                       -270.1157952938756353
  Basis Set: CC-PVTZ
  Basis Set:
  Basis Set: CC-PVTZ
  Basis Set:
  @DF-RHF Final Energy:  -270.11579863970184
    Total Energy =                       -270.1157986397017225
  Basis Set: CC-PVTZ
  Basis Set:
  Basis Set: CC-PVTZ
  Basis Set:
  @DF-RHF Final Energy:  -270.11580027631555
    Total Energy =                       -270.1158002763155537
  Basis Set: CC-PVTZ
  Basis Set:
  Charge       = 0
  Multiplicity = 1
  Basis Set: CC-PVTZ
  Basis Set:

    Orbital Energies (a.u.)
    -----------------------

    Doubly Occupied:

       1A    -20.544513     2A    -11.267105     3A    -11.217193
       4A    -11.215174     5A    -11.214303     6A    -11.207091
       7A     -1.364822     8A     -1.116421     9A     -0.968735
      10A     -0.949695    11A     -0.795363    12A     -0.780629
      13A     -0.692524    14A     -0.664202    15A     -0.617379
      16A     -0.598119    17A     -0.573033    18A     -0.528521
      19A     -0.502707    20A     -0.483704    21A     -0.472526
      22A     -0.457888    23A     -0.445645    24A     -0.426890

  @DF-RHF Final Energy:  -270.11580052024038

   => Energetics <=

    Nuclear Repulsion Energy =            255.6948750273034534
    One-Electron Energy =                -873.4129873504186889
    Two-Electron Energy =                 347.6023118028743966
    DFT Exchange-Correlation Energy =       0.0000000000000000
    Empirical Dispersion Energy =           0.0000000000000000
    PCM Polarization Energy =               0.0000000000000000
    EFP Energy =                            0.0000000000000000
    Total Energy =                       -270.1158005202408958
    Molecular point group: c1
  Basis Set: CC-PVTZ
  Basis Set:

  -Total Gradient:
     Atom            X                  Y                   Z
    ------   -----------------  -----------------  -----------------
       1       -0.000574118669    -0.000069060332    -0.001785130078
       2        0.000576785001    -0.000155034099     0.001832453399
       3        0.000290034514     0.000841743456     0.000897846696
       4        0.000000068847     0.000003595739     0.000002097429
       5       -0.000003944064    -0.000002222228    -0.000001685114
       6       -0.000302149466    -0.000617360485    -0.000941662316
       7       -0.000000436243    -0.000003883807    -0.000003122514
       8       -0.000000803395     0.000000509870     0.000002598586
       9       -0.000000965158    -0.000005663603     0.000005612412
      10       -0.000001649511    -0.000000292934    -0.000000974399
      11        0.000001519162     0.000003708195    -0.000003437034
      12        0.000009356074    -0.000000242743    -0.000006410048
      13        0.000009000053     0.000002546580    -0.000003348793
      14       -0.000004267814    -0.000002381185    -0.000002239098
      15       -0.000003929884     0.000005102174     0.000004374411
      16        0.000005500548    -0.000001064599     0.000003026462

  **** Optimization is complete! (in 9 steps) ****
    Final optimized geometry and variables:
    Molecular point group: c1

    Geometry (in Angstrom), charge = 0, multiplicity = 1:

    H            2.402737309565    -0.874061599449    -0.145722552745
    O            2.074827020930     0.003094540812    -0.073928844027
    C            0.741146034481    -0.009545347798     0.355026573670
    H            0.714001758927     0.010289194698     1.443975820997
    C           -0.083133537777    -1.192798296532    -0.144541252377
    C           -0.027104812690     1.185407554143    -0.188183879148
    H            0.146681577969    -1.346579036943    -1.194703267672
    H            0.136739552875    -2.116507457953     0.379216884188
    C           -1.542106762740    -0.738738455157     0.028305647245
    H            0.188309650644     1.268800710141    -1.247979937776
    H            0.258614833047     2.119171529955     0.278558496797
    C           -1.496989975112     0.813529552527     0.046891586896
    H           -2.170015449070    -1.118391958895    -0.766701204945
    H           -1.953366677734    -1.116189460139     0.956196903872
    H           -2.147459442606     1.250972234297    -0.698689747643
    H           -1.831359098668     1.184513576925     1.008252973037

  Mulliken Charges: (a.u.)
   Center  Symbol    Alpha    Beta     Spin     Total
       1     H     0.39244  0.39244  0.00000  0.21513
       2     O     4.20450  4.20450  0.00000 -0.40901
       3     C     2.92283  2.92283  0.00000  0.15435
       4     H     0.46302  0.46302  0.00000  0.07397
       5     C     3.11654  3.11654  0.00000 -0.23307
       6     C     3.09474  3.09474  0.00000 -0.18947
       7     H     0.45304  0.45304  0.00000  0.09392
       8     H     0.44472  0.44472  0.00000  0.11056
       9     C     3.11168  3.11168  0.00000 -0.22336
      10     H     0.45429  0.45429  0.00000  0.09142
      11     H     0.44316  0.44316  0.00000  0.11369
      12     C     3.11311  3.11311  0.00000 -0.22623
      13     H     0.44445  0.44445  0.00000  0.11110
      14     H     0.44815  0.44815  0.00000  0.10370
      15     H     0.44384  0.44384  0.00000  0.11232
      16     H     0.44950  0.44950  0.00000  0.10099

   Total alpha = 24.00000, Total beta = 24.00000, Total charge = -0.00000
