  ==> Input File <==

--------------------------------------------------------------------------
set {
	reference rhf
	basis cc-pvtz
}

set_num_threads( 4 )
memory 2 gb

molecule MOL {
0 1

H	 -1.930914	 -0.977100	 0.480031
O	 -1.432053	 -0.565244	 -0.200812
C	 -0.727158	 0.534527	 0.310686
C	 0.680222	 0.664433	 -0.252229
H	 -1.306802	 1.408001	 0.044211
H	 -0.690821	 0.490158	 1.397609
C	 1.605391	 -0.489360	 0.123098
H	 0.615089	 0.745647	 -1.332226
H	 1.101414	 1.597893	 0.110950
H	 1.247627	 -1.432485	 -0.275204
H	 2.601435	 -0.332816	 -0.273062
H	 1.691776	 -0.589902	 1.200774

	symmetry c1
}
set optking {
	frozen_dihedral = ("
		1 2 3 4
	")
}

ee = optimize('scf')
oeprop('DIPOLE', 'QUADRUPOLE', 'MULLIKEN_CHARGES')
f=open( 'psi4out.xyz', 'w' )
f.write( "12  " )
f.write( str(ee) + "\n" )
f.write( MOL.save_string_xyz() )
f.close()
--------------------------------------------------------------------------

    Molecular point group: c1
  Charge       = 0
  Multiplicity = 1
  Basis Set: CC-PVTZ
  Basis Set:
  @DF-RHF Final Energy:  -193.18910153723891
    Total Energy =                       -193.1891015372388836
    Molecular point group: c1
  Basis Set: CC-PVTZ
  Basis Set:
  Basis Set: CC-PVTZ
  Basis Set:
  @DF-RHF Final Energy:  -193.19003482566745
    Total Energy =                       -193.1900348256675386
  Basis Set: CC-PVTZ
  Basis Set:
  Basis Set: CC-PVTZ
  Basis Set:
  @DF-RHF Final Energy:  -193.19022972354929
    Total Energy =                       -193.1902297235491801
  Basis Set: CC-PVTZ
  Basis Set:
  Basis Set: CC-PVTZ
  Basis Set:
  @DF-RHF Final Energy:  -193.19023553748929
    Total Energy =                       -193.1902355374892295
  Basis Set: CC-PVTZ
  Basis Set:
  Basis Set: CC-PVTZ
  Basis Set:
  @DF-RHF Final Energy:  -193.19023884011997
    Total Energy =                       -193.1902388401199744
  Basis Set: CC-PVTZ
  Basis Set:
  Charge       = 0
  Multiplicity = 1
  Basis Set: CC-PVTZ
  Basis Set:

    Orbital Energies (a.u.)
    -----------------------

    Doubly Occupied:

       1A    -20.545803     2A    -11.266553     3A    -11.212917
       4A    -11.203635     5A     -1.363493     6A     -1.048569
       7A     -0.921205     8A     -0.800152     9A     -0.708912
      10A     -0.640839    11A     -0.592614    12A     -0.583857
      13A     -0.527275    14A     -0.507343    15A     -0.486386
      16A     -0.466984    17A     -0.433784

  @DF-RHF Final Energy:  -193.19023889003830

   => Energetics <=

    Nuclear Repulsion Energy =            133.2865548993872835
    One-Electron Energy =                -526.3329411628513981
    Two-Electron Energy =                 199.8561473734256424
    DFT Exchange-Correlation Energy =       0.0000000000000000
    Empirical Dispersion Energy =           0.0000000000000000
    PCM Polarization Energy =               0.0000000000000000
    EFP Energy =                            0.0000000000000000
    Total Energy =                       -193.1902388900384722
    Molecular point group: c1
  Basis Set: CC-PVTZ
  Basis Set:

  -Total Gradient:
     Atom            X                  Y                   Z
    ------   -----------------  -----------------  -----------------
       1        0.001010971860    -0.000735336926     0.000276425345
       2       -0.001149363263     0.000742710646    -0.000114270988
       3       -0.000150719221     0.000436089910    -0.000758076400
       4        0.000283003267    -0.000446798085     0.000606706437
       5        0.000000968161     0.000004569303     0.000003185936
       6        0.000004209095    -0.000001045303    -0.000002318693
       7       -0.000000750298    -0.000001742227    -0.000012555814
       8        0.000001004287    -0.000005870812     0.000004021317
       9        0.000001316976     0.000007583913    -0.000001759981
      10        0.000000758581    -0.000003637277     0.000001596560
      11        0.000001942301    -0.000000582663     0.000001146137
      12       -0.000003341744     0.000004059523    -0.000004099857

  **** Optimization is complete! (in 6 steps) ****
    Final optimized geometry and variables:
    Molecular point group: c1

    Geometry (in Angstrom), charge = 0, multiplicity = 1:

    H           -1.876898151973    -1.023566170121     0.417371291657
    O           -1.374211113774    -0.576410453356    -0.235815610425
    C           -0.722467851626     0.539812851995     0.318360295148
    C            0.678807139695     0.658423798212    -0.252340221386
    H           -1.289776750044     1.437834295689     0.092937098428
    H           -0.669606216186     0.450868178527     1.400588243972
    C            1.593643040347    -0.498155538624     0.133624630787
    H            0.603236356967     0.723032091493    -1.333082405466
    H            1.104313475945     1.597933056242     0.089285239175
    H            1.188062740717    -1.441391260279    -0.207999521667
    H            2.577477067284    -0.376949059288    -0.304491706013
    H            1.717545046107    -0.555454807060     1.210821329871

  Mulliken Charges: (a.u.)
   Center  Symbol    Alpha    Beta     Spin     Total
       1     H     0.39161  0.39161  0.00000  0.21678
       2     O     4.20540  4.20540  0.00000 -0.41080
       3     C     2.97289  2.97289  0.00000  0.05423
       4     C     3.07810  3.07810  0.00000 -0.15620
       5     H     0.46159  0.46159  0.00000  0.07683
       6     H     0.47352  0.47352  0.00000  0.05295
       7     C     3.15316  3.15316  0.00000 -0.30632
       8     H     0.45231  0.45231  0.00000  0.09539
       9     H     0.45581  0.45581  0.00000  0.08838
      10     H     0.44679  0.44679  0.00000  0.10643
      11     H     0.44942  0.44942  0.00000  0.10117
      12     H     0.45941  0.45941  0.00000  0.08118

   Total alpha = 17.00000, Total beta = 17.00000, Total charge =  0.00000
