  ==> Input File <==

--------------------------------------------------------------------------
set {
	reference rhf
	basis 6-31G*
}

set_num_threads( 4 )
memory 2 gb

molecule MOL {
0 1

O	 -2.638852	 0.152351	 0.576039
C	 -2.162373	 -0.911958	 0.321776
C	 -0.904105	 -1.020097	 -0.521654
C	 -2.762234	 -2.196581	 0.848354
C	 0.346238	 -0.709534	 0.316996
H	 -0.986367	 -0.300329	 -1.328792
H	 -0.821125	 -2.010949	 -0.959092
C	 1.631333	 -0.777471	 -0.511575
H	 0.224754	 0.275582	 0.753084
H	 0.416228	 -1.413393	 1.144904
C	 2.915987	 -0.544314	 0.291766
H	 1.575560	 -0.049619	 -1.318945
H	 1.691653	 -1.754906	 -0.985739
C	 3.373361	 0.914346	 0.347591
H	 3.708709	 -1.142521	 -0.150311
H	 2.780642	 -0.921148	 1.303579
H	 3.506512	 1.320010	 -0.651625
H	 4.322697	 0.999599	 0.867103
H	 2.660624	 1.545032	 0.868198
H	 -3.147552	 -2.786038	 0.020504
H	 -3.566383	 -1.975061	 1.536145
H	 -2.006715	 -2.798287	 1.345290

	symmetry c1
}
set optking {
	frozen_dihedral = ("
		12 8 11 15
	")
}

ee = optimize('scf')
oeprop('DIPOLE', 'QUADRUPOLE', 'MULLIKEN_CHARGES')
f=open( 'psi4out.xyz', 'w' )
f.write( "22  " )
f.write( str(ee) + "\n" )
f.write( MOL.save_string_xyz() )
f.close()
--------------------------------------------------------------------------

    Molecular point group: c1
  Charge       = 0
  Multiplicity = 1
  Basis Set: 6-31G*
  Basis Set:
  @DF-RHF Final Energy:  -348.09618427597354
    Total Energy =                       -348.0961842759734282
    Molecular point group: c1
  Basis Set: 6-31G*
  Basis Set:
  Basis Set: 6-31G*
  Basis Set:
  @DF-RHF Final Energy:  -348.09664301029687
    Total Energy =                       -348.0966430102967024
  Basis Set: 6-31G*
  Basis Set:
  Basis Set: 6-31G*
  Basis Set:
  @DF-RHF Final Energy:  -348.09472283131089
    Total Energy =                       -348.0947228313108326
  Basis Set: 6-31G*
  Basis Set:
  Basis Set: 6-31G*
  Basis Set:
  @DF-RHF Final Energy:  -348.09673884526529
    Total Energy =                       -348.0967388452652358
  Basis Set: 6-31G*
  Basis Set:
  @DF-RHF Final Energy:  -348.09653129539373
    Total Energy =                       -348.0965312953939588
  @DF-RHF Final Energy:  -348.09662430687376
    Total Energy =                       -348.0966243068736503
  Basis Set: 6-31G*
  Basis Set:
  @DF-RHF Final Energy:  -348.09675112905495
    Total Energy =                       -348.0967511290548373
  Basis Set: 6-31G*
  Basis Set:
  Basis Set: 6-31G*
  Basis Set:
  @DF-RHF Final Energy:  -348.09678028129224
    Total Energy =                       -348.0967802812922400
  Basis Set: 6-31G*
  Basis Set:
  Basis Set: 6-31G*
  Basis Set:
  @DF-RHF Final Energy:  -348.09678819853758
    Total Energy =                       -348.0967881985377517
  Basis Set: 6-31G*
  Basis Set:
  Charge       = 0
  Multiplicity = 1
  Basis Set: 6-31G*
  Basis Set:

    Orbital Energies (a.u.)
    -----------------------

    Doubly Occupied:

       1A    -20.547342     2A    -11.324491     3A    -11.229871
       4A    -11.229007     5A    -11.228195     6A    -11.222276
       7A    -11.220246     8A    -11.211671     9A     -1.393103
      10A     -1.095347    11A     -1.044194    12A     -0.999743
      13A     -0.937851    14A     -0.852509    15A     -0.792432
      16A     -0.732751    17A     -0.662141    18A     -0.644294
      19A     -0.625588    20A     -0.618911    21A     -0.597947
      22A     -0.580771    23A     -0.563134    24A     -0.546027
      25A     -0.532122    26A     -0.512048    27A     -0.502655
      28A     -0.488364    29A     -0.472184    30A     -0.463690
      31A     -0.458857    32A     -0.396068

  @DF-RHF Final Energy:  -348.09678860758459

   => Energetics <=

    Nuclear Repulsion Energy =            371.8923052116191457
    One-Electron Energy =               -1208.5265289625319838
    Two-Electron Energy =                 488.5374351433279116
    DFT Exchange-Correlation Energy =       0.0000000000000000
    Empirical Dispersion Energy =           0.0000000000000000
    PCM Polarization Energy =               0.0000000000000000
    EFP Energy =                            0.0000000000000000
    Total Energy =                       -348.0967886075849265
    Molecular point group: c1
  Basis Set: 6-31G*
  Basis Set:

  -Total Gradient:
     Atom            X                  Y                   Z
    ------   -----------------  -----------------  -----------------
       1        0.000017050653     0.000007812443     0.000013482435
       2       -0.000028055946    -0.000018776600    -0.000023981086
       3       -0.000008537413    -0.000001290548     0.000017019044
       4       -0.000020267180     0.000004468447    -0.000009035801
       5       -0.000006273892     0.000021717743    -0.000014026759
       6       -0.000003672364    -0.000000944635    -0.000004706810
       7        0.000000450836     0.000001813470     0.000002648213
       8        0.001881649704    -0.003018616186    -0.001816970945
       9       -0.000005830422    -0.000013653839     0.000007723907
      10        0.000003560028     0.000007516917    -0.000002144694
      11        0.000429532556     0.003443637884    -0.002011365652
      12       -0.001642755667     0.001962068775     0.001861144131
      13       -0.000001972697     0.000006711345    -0.000003984991
      14        0.000018018269    -0.000001954110     0.000005797900
      15       -0.000651462884    -0.002400657758     0.001962264831
      16       -0.000000938766    -0.000004541194     0.000004040507
      17        0.000001053641     0.000001256043     0.000006101964
      18        0.000000704178     0.000009617187     0.000003334853
      19        0.000002569747    -0.000004088350    -0.000007834289
      20        0.000006718815    -0.000004209583     0.000002983534
      21        0.000002250670     0.000000316734     0.000002921661
      22        0.000006208142     0.000001795812     0.000004588049

  **** Optimization is complete! (in 10 steps) ****
    Final optimized geometry and variables:
    Molecular point group: c1

    Geometry (in Angstrom), charge = 0, multiplicity = 1:

    O           -2.566322440865     0.814265650590     0.419967020759
    C           -2.121935695576    -0.253294259911     0.124794093038
    C           -0.879334237310    -0.367196472529    -0.740767799340
    C           -2.751919608971    -1.538516629561     0.613851545729
    C            0.391906429482    -0.138999240725     0.092020689156
    H           -0.947012836424     0.389641383284    -1.514557969564
    H           -0.837023306524    -1.340345933586    -1.222040710703
    C            1.669384571985    -0.230456202127    -0.748510527396
    H            0.322071800758     0.835898447392     0.564156957233
    H            0.440476127760    -0.871695505327     0.895435446384
    C            2.943983417116     0.074480412402     0.056642386507
    H            1.584742051157     0.475970658401    -1.571688435818
    H            1.733813150625    -1.222851462735    -1.186795023569
    C            3.298903155055     1.560183548006     0.108194933489
    H            3.777437365782    -0.489439008430    -0.353237444539
    H            2.819997663901    -0.298950213825     1.071328159631
    H            3.504869332765     1.945936314839    -0.886022195011
    H            4.180085054966     1.730694894699     0.718801621636
    H            2.489189666597     2.148803955721     0.529027611034
    H           -3.166273778333    -2.085735696618    -0.228797042191
    H           -3.539352702072    -1.318792812004     1.321253462722
    H           -2.007797588672    -2.179812076179     1.077244689790

  Mulliken Charges: (a.u.)
   Center  Symbol    Alpha    Beta     Spin     Total
       1     O     4.26240  4.26240  0.00000 -0.52480
       2     C     2.73710  2.73710  0.00000  0.52580
       3     C     3.19999  3.19999  0.00000 -0.39999
       4     C     3.28951  3.28951  0.00000 -0.57902
       5     C     3.16367  3.16367  0.00000 -0.32734
       6     H     0.40114  0.40114  0.00000  0.19773
       7     H     0.41702  0.41702  0.00000  0.16596
       8     C     3.15372  3.15372  0.00000 -0.30744
       9     H     0.40546  0.40546  0.00000  0.18909
      10     H     0.42065  0.42065  0.00000  0.15870
      11     C     3.15566  3.15566  0.00000 -0.31131
      12     H     0.41984  0.41984  0.00000  0.16031
      13     H     0.42056  0.42056  0.00000  0.15888
      14     C     3.24073  3.24073  0.00000 -0.48146
      15     H     0.41901  0.41901  0.00000  0.16198
      16     H     0.42191  0.42191  0.00000  0.15617
      17     H     0.42060  0.42060  0.00000  0.15880
      18     H     0.41843  0.41843  0.00000  0.16314
      19     H     0.41889  0.41889  0.00000  0.16221
      20     H     0.40684  0.40684  0.00000  0.18631
      21     H     0.39709  0.39709  0.00000  0.20583
      22     H     0.40978  0.40978  0.00000  0.18044

   Total alpha = 32.00000, Total beta = 32.00000, Total charge =  0.00000
