  ==> Input File <==

--------------------------------------------------------------------------
set {
	reference rhf
	basis 6-31G*
}

set_num_threads( 4 )
memory 2 gb

molecule MOL {
0 1

H	 -2.990929	 3.020914	 -0.870812
C	 -3.459545	 2.199163	 -0.315161
C	 -2.660244	 0.921717	 -0.272021
O	 -4.520604	 2.353152	 0.196885
C	 -1.220012	 1.144545	 0.209990
H	 -3.185097	 0.210802	 0.355544
H	 -2.640982	 0.522114	 -1.285235
C	 -0.252658	 0.041456	 -0.226725
H	 -0.873521	 2.100229	 -0.171974
H	 -1.211708	 1.231594	 1.295398
C	 1.180775	 0.282413	 0.250794
H	 -0.266029	 -0.034465	 -1.312038
H	 -0.597733	 -0.921000	 0.146291
C	 2.148627	 -0.814315	 -0.201312
H	 1.516199	 1.249228	 -0.115937
H	 1.192670	 0.346017	 1.338083
C	 3.580890	 -0.659131	 0.322722
H	 2.166869	 -0.852443	 -1.289387
H	 1.762857	 -1.776509	 0.128956
C	 4.324889	 0.564933	 -0.213704
H	 4.142010	 -1.551473	 0.056605
H	 3.564836	 -0.624694	 1.410140
H	 4.342616	 0.565491	 -1.300421
H	 3.866655	 1.493402	 0.110242
H	 5.353900	 0.572371	 0.132816

	symmetry c1
}
set optking {
	frozen_dihedral = ("
		6 3 5 8
	")
}

ee = optimize('scf')
oeprop('DIPOLE', 'QUADRUPOLE', 'MULLIKEN_CHARGES')
f=open( 'psi4out.xyz', 'w' )
f.write( "25  " )
f.write( str(ee) + "\n" )
f.write( MOL.save_string_xyz() )
f.close()
--------------------------------------------------------------------------

    Molecular point group: c1
  Charge       = 0
  Multiplicity = 1
  Basis Set: 6-31G*
  Basis Set:
  @DF-RHF Final Energy:  -387.12116093353319
    Total Energy =                       -387.1211609335332469
    Molecular point group: c1
  Basis Set: 6-31G*
  Basis Set:
  Basis Set: 6-31G*
  Basis Set:
  @DF-RHF Final Energy:  -387.12090258180626
    Total Energy =                       -387.1209025818063765
  Basis Set: 6-31G*
  Basis Set:
  Basis Set: 6-31G*
  Basis Set:
  @DF-RHF Final Energy:  -387.12003157860960
    Total Energy =                       -387.1200315786090869
  Basis Set: 6-31G*
  Basis Set:
  Basis Set: 6-31G*
  Basis Set:
  @DF-RHF Final Energy:  -387.12131252357187
    Total Energy =                       -387.1213125235723282
  Basis Set: 6-31G*
  Basis Set:
  Basis Set: 6-31G*
  Basis Set:
  @DF-RHF Final Energy:  -387.12125836602866
    Total Energy =                       -387.1212583660288828
  Basis Set: 6-31G*
  Basis Set:
  Basis Set: 6-31G*
  Basis Set:
  @DF-RHF Final Energy:  -387.12137630412286
    Total Energy =                       -387.1213763041223501
  Basis Set: 6-31G*
  Basis Set:
  Basis Set: 6-31G*
  Basis Set:
  @DF-RHF Final Energy:  -387.12137963768021
    Total Energy =                       -387.1213796376798655
  Basis Set: 6-31G*
  Basis Set:
  Charge       = 0
  Multiplicity = 1
  Basis Set: 6-31G*
  Basis Set:

    Orbital Energies (a.u.)
    -----------------------

    Doubly Occupied:

       1A    -20.562127     2A    -11.326017     3A    -11.235777
       4A    -11.234632     5A    -11.226491     6A    -11.221106
       7A    -11.219636     8A    -11.218976     9A    -11.211935
      10A     -1.402051    11A     -1.104718    12A     -1.070613
      13A     -1.015172    14A     -0.944865    15A     -0.875496
      16A     -0.813952    17A     -0.794616    18A     -0.781715
      19A     -0.676474    20A     -0.657949    21A     -0.633168
      22A     -0.621795    23A     -0.609523    24A     -0.591977
      25A     -0.571671    26A     -0.553385    27A     -0.536261
      28A     -0.522405    29A     -0.512705    30A     -0.496865
      31A     -0.486119    32A     -0.479545    33A     -0.466416
      34A     -0.460460    35A     -0.451711    36A     -0.406905

  @DF-RHF Final Energy:  -387.12138056938579

   => Energetics <=

    Nuclear Repulsion Energy =            431.6763799134666897
    One-Electron Energy =               -1379.6050584252550379
    Two-Electron Energy =                 560.8072979424024425
    DFT Exchange-Correlation Energy =       0.0000000000000000
    Empirical Dispersion Energy =           0.0000000000000000
    PCM Polarization Energy =               0.0000000000000000
    EFP Energy =                            0.0000000000000000
    Total Energy =                       -387.1213805693859058
    Molecular point group: c1
  Basis Set: 6-31G*
  Basis Set:

  -Total Gradient:
     Atom            X                  Y                   Z
    ------   -----------------  -----------------  -----------------
       1       -0.000017140570    -0.000023264425     0.000000191960
       2        0.000011009980    -0.000039307181     0.000132005700
       3        0.001582168010    -0.002603782975    -0.003114797174
       4       -0.000037081164     0.000000614047    -0.000065109416
       5       -0.000845450029    -0.001015927525     0.003338335586
       6       -0.000985286732     0.002481828816     0.001794770424
       7       -0.000103704044    -0.000031221895    -0.000096482828
       8        0.000352572060     0.001139767738    -0.001932647577
       9        0.000042955675    -0.000053266576    -0.000055497388
      10        0.000078180734     0.000050788156     0.000027706376
      11        0.000005689720     0.000075432513    -0.000035839895
      12        0.000028367727     0.000015354551    -0.000011581170
      13       -0.000085858243     0.000016728093     0.000018968652
      14       -0.000038846536    -0.000025420671     0.000023594257
      15        0.000058244244     0.000053824355     0.000015759298
      16       -0.000007225752    -0.000023943001    -0.000031490266
      17        0.000024581431    -0.000041091644    -0.000041169475
      18        0.000016054286    -0.000043552838     0.000004649657
      19       -0.000039842407     0.000028354833     0.000022411832
      20       -0.000030985148     0.000023226641     0.000019609495
      21        0.000011190262     0.000022546014    -0.000029121924
      22        0.000020629886    -0.000044370530    -0.000001134635
      23        0.000015642652    -0.000017119296     0.000016080319
      24       -0.000049049638     0.000031938496    -0.000016820104
      25       -0.000006816401     0.000021864303     0.000017608294

  **** Optimization is complete! (in 8 steps) ****
    Final optimized geometry and variables:
    Molecular point group: c1

    Geometry (in Angstrom), charge = 0, multiplicity = 1:

    H           -2.981964529934     2.301648222325    -0.899137829510
    C           -3.383805671857     1.496871546423    -0.271613915987
    C           -2.566957288445     0.228792900436    -0.254973967336
    O           -4.393612824092     1.659247935740     0.333054457322
    C           -1.118873236975     0.489300909094     0.189220435622
    H           -3.067002790476    -0.465480341361     0.409558385372
    H           -2.577605894448    -0.181805557284    -1.263372152572
    C           -0.155988419943    -0.621918490672    -0.232602504030
    H           -0.771182789676     1.427740048976    -0.240509735946
    H           -1.093038354471     0.619969163613     1.267414413308
    C            1.276953869331    -0.389397180914     0.249872150173
    H           -0.163889696021    -0.703429853826    -1.317852323065
    H           -0.515768650341    -1.575972248454     0.148265390668
    C            2.239616685287    -1.493112912407    -0.196605105911
    H            1.620824213661     0.575087145095    -0.115334279397
    H            1.283647641671    -0.325790416786     1.336771756240
    C            3.667784168473    -1.352918368313     0.342560608141
    H            2.269519688429    -1.526649513521    -1.284628313073
    H            1.841820313731    -2.453271793730     0.125415203205
    C            4.421506501348    -0.122869639655    -0.166470474656
    H            4.227629666504    -2.243298646822     0.067462515346
    H            3.641111898098    -1.336107429625     1.430183463786
    H            4.456505427478    -0.108459400622    -1.252586346527
    H            3.959663879819     0.802222091392     0.162251661346
    H            5.444826984352    -0.121326245301     0.195900208767

  Mulliken Charges: (a.u.)
   Center  Symbol    Alpha    Beta     Spin     Total
       1     H     0.43233  0.43233  0.00000  0.13534
       2     C     2.83103  2.83103  0.00000  0.33793
       3     C     3.20765  3.20765  0.00000 -0.41529
       4     O     4.23704  4.23704  0.00000 -0.47407
       5     C     3.16585  3.16585  0.00000 -0.33171
       6     H     0.39861  0.39861  0.00000  0.20277
       7     H     0.40924  0.40924  0.00000  0.18153
       8     C     3.15201  3.15201  0.00000 -0.30401
       9     H     0.41964  0.41964  0.00000  0.16072
      10     H     0.41088  0.41088  0.00000  0.17825
      11     C     3.15491  3.15491  0.00000 -0.30982
      12     H     0.42195  0.42195  0.00000  0.15610
      13     H     0.41976  0.41976  0.00000  0.16048
      14     C     3.15300  3.15300  0.00000 -0.30600
      15     H     0.42083  0.42083  0.00000  0.15834
      16     H     0.42218  0.42218  0.00000  0.15564
      17     C     3.15266  3.15266  0.00000 -0.30531
      18     H     0.42391  0.42391  0.00000  0.15217
      19     H     0.42148  0.42148  0.00000  0.15705
      20     C     3.24153  3.24153  0.00000 -0.48306
      21     H     0.42013  0.42013  0.00000  0.15974
      22     H     0.42270  0.42270  0.00000  0.15461
      23     H     0.42219  0.42219  0.00000  0.15561
      24     H     0.42018  0.42018  0.00000  0.15964
      25     H     0.41832  0.41832  0.00000  0.16335

   Total alpha = 36.00000, Total beta = 36.00000, Total charge = -0.00000
