  ==> Input File <==

--------------------------------------------------------------------------
set {
	reference rhf
	basis 6-31G*
}

set_num_threads( 4 )
memory 2 gb

molecule MOL {
0 1

O	 1.846825	 1.296220	 0.000415
C	 1.705091	 0.115954	 0.001797
C	 0.381791	 -0.609817	 0.001258
O	 2.721346	 -0.737485	 -0.000216
C	 -0.823008	 0.326187	 0.001381
H	 0.371250	 -1.265087	 -0.865474
H	 0.370908	 -1.265746	 0.867490
C	 -2.126111	 -0.405130	 0.327201
H	 -0.902323	 0.807045	 -0.968502
H	 -0.657099	 1.122568	 0.720102
C	 -3.345256	 0.518738	 0.330761
H	 -2.284972	 -1.204736	 -0.394872
H	 -2.039400	 -0.887174	 1.299825
C	 -4.646798	 -0.212312	 0.657571
H	 -3.434777	 0.999117	 -0.641022
H	 -3.188454	 1.317526	 1.052210
H	 -4.849439	 -0.995774	 -0.067231
H	 -5.492014	 0.468890	 0.652659
H	 -4.600967	 -0.675255	 1.639352
C	 4.024888	 -0.184556	 -0.001949
H	 4.179030	 0.422472	 -0.882452
H	 4.701782	 -1.024608	 -0.003642
H	 4.181981	 0.421185	 0.878906

	symmetry c1
}
set optking {
	frozen_dihedral = ("
		9 5 3 6
	")
}

ee = optimize('scf')
oeprop('DIPOLE', 'QUADRUPOLE', 'MULLIKEN_CHARGES')
f=open( 'psi4out.xyz', 'w' )
f.write( "23  " )
f.write( str(ee) + "\n" )
f.write( MOL.save_string_xyz() )
f.close()
--------------------------------------------------------------------------

    Molecular point group: c1
  Charge       = 0
  Multiplicity = 1
  Basis Set: 6-31G*
  Basis Set:
  @DF-RHF Final Energy:  -422.97572489852104
    Total Energy =                       -422.9757248985209799
    Molecular point group: c1
  Basis Set: 6-31G*
  Basis Set:
  Basis Set: 6-31G*
  Basis Set:
  @DF-RHF Final Energy:  -422.97572999731574
    Total Energy =                       -422.9757299973155114
  Basis Set: 6-31G*
  Basis Set:
  Basis Set: 6-31G*
  Basis Set:
  @DF-RHF Final Energy:  -422.97557914205998
    Total Energy =                       -422.9755791420595870
  Basis Set: 6-31G*
  Basis Set:
  Basis Set: 6-31G*
  Basis Set:
  @DF-RHF Final Energy:  -422.97580420804292
    Total Energy =                       -422.9758042080427458
  Basis Set: 6-31G*
  Basis Set:
  Basis Set: 6-31G*
  Basis Set:
  @DF-RHF Final Energy:  -422.97580617814145
    Total Energy =                       -422.9758061781412835
  Basis Set: 6-31G*
  Basis Set:
  Basis Set: 6-31G*
  Basis Set:
  @DF-RHF Final Energy:  -422.97580838952655
    Total Energy =                       -422.9758083895262644
  Basis Set: 6-31G*
  Basis Set:
  Charge       = 0
  Multiplicity = 1
  Basis Set: 6-31G*
  Basis Set:

    Orbital Energies (a.u.)
    -----------------------

    Doubly Occupied:

       1A    -20.603550     2A    -20.545406     3A    -11.372147
       4A    -11.280806     5A    -11.235649     6A    -11.219169
       7A    -11.217706     8A    -11.216355     9A    -11.209579
      10A     -1.469258    11A     -1.362687    12A     -1.092986
      13A     -1.043528    14A     -0.986950    15A     -0.931960
      16A     -0.843537    17A     -0.794874    18A     -0.767077
      19A     -0.696642    20A     -0.683723    21A     -0.671462
      22A     -0.651559    23A     -0.609821    24A     -0.599186
      25A     -0.572445    26A     -0.557919    27A     -0.557407
      28A     -0.523895    29A     -0.521770    30A     -0.506928
      31A     -0.485121    32A     -0.469241    33A     -0.466147
      34A     -0.460904    35A     -0.455742    36A     -0.435206

  @DF-RHF Final Energy:  -422.97580911383017

   => Energetics <=

    Nuclear Repulsion Energy =            452.1676231027251447
    One-Electron Energy =               -1472.0501829797080973
    Two-Electron Energy =                 596.9067507631534681
    DFT Exchange-Correlation Energy =       0.0000000000000000
    Empirical Dispersion Energy =           0.0000000000000000
    PCM Polarization Energy =               0.0000000000000000
    EFP Energy =                            0.0000000000000000
    Total Energy =                       -422.9758091138294276
    Molecular point group: c1
  Basis Set: 6-31G*
  Basis Set:

  -Total Gradient:
     Atom            X                  Y                   Z
    ------   -----------------  -----------------  -----------------
       1       -0.000000201515     0.000008356836    -0.000002468842
       2        0.000005288666    -0.000015425372     0.000001268283
       3       -0.001744864121    -0.002238560519     0.001268022227
       4       -0.000007654778     0.000005121273     0.000001098922
       5        0.001856266591     0.002369773366     0.000575039766
       6        0.001152399539     0.001485956024    -0.001133701992
       7        0.000001645891    -0.000002114761    -0.000001330541
       8        0.000001121469    -0.000002691007    -0.000011798491
       9       -0.001265704440    -0.001610693847    -0.000703916608
      10        0.000000575946    -0.000000838675    -0.000001136720
      11        0.000000142198     0.000003471610     0.000014597948
      12        0.000000142120    -0.000003876698    -0.000001288801
      13       -0.000002184599     0.000001796763    -0.000001961565
      14        0.000000072291    -0.000001605064    -0.000006238917
      15       -0.000001563453    -0.000000777056     0.000002279285
      16        0.000002165556     0.000001676184     0.000001119858
      17        0.000001416608    -0.000003107625     0.000002941795
      18       -0.000000118881    -0.000000633520    -0.000003877762
      19       -0.000001144446     0.000003915837     0.000001940256
      20        0.000003386750     0.000000769151    -0.000000666980
      21       -0.000000435577    -0.000000345519     0.000000321692
      22       -0.000000386452    -0.000000074086    -0.000000061054
      23       -0.000000365374    -0.000000093294    -0.000000181758

  **** Optimization is complete! (in 7 steps) ****
    Final optimized geometry and variables:
    Molecular point group: c1

    Geometry (in Angstrom), charge = 0, multiplicity = 1:

    O            1.844888522561     1.283863304879    -0.136974498930
    C            1.697670210344     0.104299443026    -0.136758746358
    C            0.371717875712    -0.618514826441    -0.110649265397
    O            2.710207751553    -0.753373749583    -0.162101667440
    C           -0.830695367798     0.322448000196    -0.102400800363
    H            0.354834880713    -1.268840515189    -0.980653509857
    H            0.374855278058    -1.270586230149     0.758150945064
    C           -2.138130963863    -0.414934688280     0.195785521466
    H           -0.909536235412     0.807268917343    -1.071043776512
    H           -0.672731586406     1.107818206112     0.628186713544
    C           -3.361448412724     0.502877075624     0.169607061112
    H           -2.277530023445    -1.218111598970    -0.526494930499
    H           -2.069885359875    -0.892815568205     1.171898416450
    C           -4.665667788322    -0.232226858359     0.476157141455
    H           -3.434803272466     0.976365079504    -0.806928425166
    H           -3.222202828318     1.307243854045     0.888447521500
    H           -4.849581712737    -1.022825507856    -0.245957348629
    H           -5.514086351564     0.444401266777     0.448450749856
    H           -4.637421127001    -0.686714513864     1.462512703870
    C            4.015795443050    -0.205918670966    -0.188816843221
    H            4.154807459071     0.402433115603    -1.070915981996
    H            4.688969862710    -1.048842240832    -0.206015384015
    H            4.193193757370     0.397101721525     0.690053110802

  Mulliken Charges: (a.u.)
   Center  Symbol    Alpha    Beta     Spin     Total
       1     O     4.28590  4.28590  0.00000 -0.57181
       2     C     2.60629  2.60629  0.00000  0.78741
       3     C     3.20789  3.20789  0.00000 -0.41579
       4     O     4.30721  4.30721  0.00000 -0.61442
       5     C     3.15289  3.15289  0.00000 -0.30579
       6     H     0.40016  0.40016  0.00000  0.19968
       7     H     0.40044  0.40044  0.00000  0.19912
       8     C     3.15375  3.15375  0.00000 -0.30751
       9     H     0.41486  0.41486  0.00000  0.17028
      10     H     0.40736  0.40736  0.00000  0.18529
      11     C     3.15160  3.15160  0.00000 -0.30321
      12     H     0.42430  0.42430  0.00000  0.15140
      13     H     0.42379  0.42379  0.00000  0.15242
      14     C     3.23954  3.23954  0.00000 -0.47907
      15     H     0.42177  0.42177  0.00000  0.15646
      16     H     0.42105  0.42105  0.00000  0.15790
      17     H     0.42190  0.42190  0.00000  0.15619
      18     H     0.41851  0.41851  0.00000  0.16298
      19     H     0.42174  0.42174  0.00000  0.15652
      20     C     3.09237  3.09237  0.00000 -0.18474
      21     H     0.40908  0.40908  0.00000  0.18185
      22     H     0.40846  0.40846  0.00000  0.18308
      23     H     0.40912  0.40912  0.00000  0.18176

   Total alpha = 36.00000, Total beta = 36.00000, Total charge = -0.00000
