                              Psi4 1.0.54 Driver

  ==> Input File <==

--------------------------------------------------------------------------
set {
	reference rhf
	basis cc-pvtz
}

set_num_threads( 4 )
memory 2 gb

molecule MOL {
0 1

H	 -2.716191	 1.859063	 -1.042470
C	 -1.953955	 1.292609	 -0.548066
C	 -2.105997	 -0.000418	 -0.398703
H	 -1.081433	 1.801620	 -0.188327
O	 -1.189946	 -0.765863	 0.237511
H	 -2.972367	 -0.521933	 -0.762781
C	 0.026572	 -0.995256	 -0.379403
C	 1.057223	 0.049888	 -0.004615
H	 -0.054361	 -1.010670	 -1.459674
H	 0.397526	 -1.952058	 -0.044198
F	 2.203233	 -0.234060	 -0.590375
F	 0.698147	 1.254887	 -0.392621
F	 1.266440	 0.094219	 1.288722

	symmetry c1
}
set optking {
	frozen_dihedral = ("
		6 3 5 7
	")
}

ee,wfn = optimize('scf', return_wfn=True)
oeprop( wfn, 'DIPOLE', 'QUADRUPOLE', 'MULLIKEN_CHARGES')
f=open( 'psi4out.xyz', 'w' )
f.write( "13  " )
f.write( str(ee) + "\n" )
f.write( MOL.save_string_xyz() )
f.close()
--------------------------------------------------------------------------

    Molecular point group: c1
  Charge       = 0
  Multiplicity = 1
  Basis Set: CC-PVTZ
  Basis Set:
  @DF-RHF Final Energy:  -527.72623202442264
    Total Energy =                       -527.7262320244226430
    Molecular point group: c1
  Basis Set: CC-PVTZ
  Basis Set:
  Basis Set: CC-PVTZ
  Basis Set:
  @DF-RHF Final Energy:  -527.73239327899182
    Total Energy =                       -527.7323932789918217
  Basis Set: CC-PVTZ
  Basis Set:
  Basis Set: CC-PVTZ
  Basis Set:
  @DF-RHF Final Energy:  -527.73412922038221
    Total Energy =                       -527.7341292203821013
  Basis Set: CC-PVTZ
  Basis Set:
  Basis Set: CC-PVTZ
  Basis Set:
  @DF-RHF Final Energy:  -527.73486038923966
    Total Energy =                       -527.7348603892394294
  Basis Set: CC-PVTZ
  Basis Set:
  @DF-RHF Final Energy:  -527.73577778729873
    Total Energy =                       -527.7357777872992983
  @DF-RHF Final Energy:  -527.73672526813448
    Total Energy =                       -527.7367252681341370
  @DF-RHF Final Energy:  -527.73689598717021
    Total Energy =                       -527.7368959871703282
  @DF-RHF Final Energy:  -527.73707803726859
    Total Energy =                       -527.7370780372687022
  @DF-RHF Final Energy:  -527.73713702070449
    Total Energy =                       -527.7371370207042673
  Basis Set: CC-PVTZ
  Basis Set:
  @DF-RHF Final Energy:  -527.73716569058251
    Total Energy =                       -527.7371656905825148
  Basis Set: CC-PVTZ
  Basis Set:
  Basis Set: CC-PVTZ
  Basis Set:
  @DF-RHF Final Energy:  -527.73717698768462
    Total Energy =                       -527.7371769876848475
  Basis Set: CC-PVTZ
  Basis Set:
  Basis Set: CC-PVTZ
  Basis Set:
  @DF-RHF Final Energy:  -527.73718094315450
    Total Energy =                       -527.7371809431544989
  Basis Set: CC-PVTZ
  Basis Set:
  Charge       = 0
  Multiplicity = 1
  Basis Set: CC-PVTZ
  Basis Set:

    Orbital Energies (a.u.)
    -----------------------

    Doubly Occupied:

       1A    -26.337375     2A    -26.335783     3A    -26.333598
       4A    -20.592242     5A    -11.493857     6A    -11.314758
       7A    -11.297959     8A    -11.227104     9A     -1.745886
      10A     -1.642253    11A     -1.640764    12A     -1.432003
      13A     -1.083250    14A     -1.024461    15A     -0.931131
      16A     -0.840860    17A     -0.835788    18A     -0.815491
      19A     -0.788339    20A     -0.729504    21A     -0.715244
      22A     -0.703719    23A     -0.677561    24A     -0.664961
      25A     -0.659615    26A     -0.646445    27A     -0.633348
      28A     -0.608965    29A     -0.562566    30A     -0.531813
      31A     -0.472339    32A     -0.380231

  @DF-RHF Final Energy:  -527.73718191875514

   => Energetics <=

    Nuclear Repulsion Energy =            414.5515377334264144
    One-Electron Energy =               -1553.1790174918883167
    Two-Electron Energy =                 610.8902978397067045
    DFT Exchange-Correlation Energy =       0.0000000000000000
    Empirical Dispersion Energy =           0.0000000000000000
    PCM Polarization Energy =               0.0000000000000000
    EFP Energy =                            0.0000000000000000
    Total Energy =                       -527.7371819187552546
    Molecular point group: c1
  Basis Set: CC-PVTZ
  Basis Set:

  -Total Gradient:
     Atom            X                  Y                   Z
    ------   -----------------  -----------------  -----------------
       1       -0.000009890281    -0.000006504650    -0.000004447861
       2        0.000018095223     0.000076564771    -0.000028260142
       3       -0.000787805811     0.000043544458     0.001001743864
       4        0.000004412300    -0.000001229928     0.000001334096
       5        0.000412046988     0.001050198014    -0.000008331211
       6        0.000468229138    -0.000366741643    -0.000808656501
       7       -0.000148575200    -0.000805790437    -0.000161362129
       8       -0.000003757067     0.000054413923    -0.000036582801
       9       -0.000012726212     0.000010422900     0.000006386770
      10        0.000017318829    -0.000020639450     0.000010887289
      11        0.000069094108    -0.000013624271    -0.000026033416
      12       -0.000010315484    -0.000019517039     0.000021571602
      13       -0.000016126528    -0.000001096646     0.000031750438

  **** Optimization is complete! (in 13 steps) ****
    Final optimized geometry and variables:
    Molecular point group: c1

    Geometry (in Angstrom), charge = 0, multiplicity = 1:

    H           -3.252726187788     1.289422385644    -1.875989235560
    C           -2.411621071314     1.035233851081    -1.262489669951
    C           -2.340453294238    -0.157303155837    -0.722820823893
    H           -1.653111846466     1.777400685608    -1.103982387035
    O           -1.328468003737    -0.577218210080     0.084622039992
    H           -3.106097813189    -0.898026884344    -0.863176057418
    C           -0.077907833129    -0.823787804465    -0.469966340370
    C            0.979017791470    -0.065542143372     0.300478462238
    H           -0.022652921260    -0.509601420035    -1.502653884207
    H            0.160405909210    -1.877769094529    -0.402077789137
    F            2.166635621024    -0.329765629049    -0.208574632666
    F            0.798112161794     1.235200408506     0.234924704667
    F            1.003801725532    -0.400674901276     1.568358414576

  Mulliken Charges: (a.u.)
   Center  Symbol    Alpha    Beta     Spin     Total
       1     H     0.42357  0.42357  0.00000  0.15286
       2     C     3.17747  3.17747  0.00000 -0.35494
       3     C     2.98586  2.98586  0.00000  0.02828
       4     H     0.41861  0.41861  0.00000  0.16279
       5     O     4.16618  4.16618  0.00000 -0.33236
       6     H     0.42101  0.42101  0.00000  0.15798
       7     C     3.00716  3.00716  0.00000 -0.01432
       8     C     2.67358  2.67358  0.00000  0.65284
       9     H     0.45268  0.45268  0.00000  0.09463
      10     H     0.44204  0.44204  0.00000  0.11592
      11     F     4.61331  4.61331  0.00000 -0.22662
      12     F     4.61095  4.61095  0.00000 -0.22190
      13     F     4.60758  4.60758  0.00000 -0.21516

   Total alpha = 32.00000, Total beta = 32.00000, Total charge =  0.00000

*** Psi4 exiting successfully. Buy a developer a beer!
