                              Psi4 1.0.54 Driver

  ==> Input File <==

--------------------------------------------------------------------------
set {
	reference rhf
	basis cc-pvtz
}

set_num_threads( 4 )
memory 2 gb

molecule MOL {
0 1

H	 3.889604	 0.356866	 -0.089510
N	 3.091268	 -0.241216	 -0.065538
C	 1.860978	 0.530248	 0.016256
H	 3.192566	 -0.835836	 0.730398
C	 0.644130	 -0.381765	 -0.031064
H	 1.835721	 1.204666	 -0.833114
H	 1.808789	 1.151975	 0.911067
C	 -0.678115	 0.376691	 0.025731
H	 0.693998	 -0.977147	 -0.936845
H	 0.693309	 -1.082142	 0.800523
C	 -0.626092	 1.734914	 -0.668335
H	 -0.966862	 0.518528	 1.064703
H	 -1.462351	 -0.225271	 -0.427576
C	 -1.947933	 2.492704	 -0.603790
H	 0.157139	 2.337696	 -0.217232
H	 -0.341472	 1.595646	 -1.707742
H	 -2.242816	 2.678451	 0.423722
H	 -1.876499	 3.451159	 -1.105054
H	 -2.745402	 1.930280	 -1.078194

	symmetry c1
}
set optking {
	frozen_dihedral = ("
		12 8 5 9
	")
}

ee,wfn = optimize('scf', return_wfn=True)
oeprop( wfn, 'DIPOLE', 'QUADRUPOLE', 'MULLIKEN_CHARGES')
f=open( 'psi4out.xyz', 'w' )
f.write( "19  " )
f.write( str(ee) + "\n" )
f.write( MOL.save_string_xyz() )
f.close()
--------------------------------------------------------------------------

    Molecular point group: c1
  Charge       = 0
  Multiplicity = 1
  Basis Set: CC-PVTZ
  Basis Set:
  @DF-RHF Final Energy:  -251.44074011946401
    Total Energy =                       -251.4407401194639533
    Molecular point group: c1
  Basis Set: CC-PVTZ
  Basis Set:
  Basis Set: CC-PVTZ
  Basis Set:
  @DF-RHF Final Energy:  -251.44131069806809
    Total Energy =                       -251.4413106980681505
  Basis Set: CC-PVTZ
  Basis Set:
  Basis Set: CC-PVTZ
  Basis Set:
  @DF-RHF Final Energy:  -251.44342695499009
    Total Energy =                       -251.4434269549900023
  Basis Set: CC-PVTZ
  Basis Set:
  Basis Set: CC-PVTZ
  Basis Set:
  @DF-RHF Final Energy:  -251.44357383918648
    Total Energy =                       -251.4435738391863424
  Basis Set: CC-PVTZ
  Basis Set:
  Basis Set: CC-PVTZ
  Basis Set:
  @DF-RHF Final Energy:  -251.44358128783563
    Total Energy =                       -251.4435812878356842
  Basis Set: CC-PVTZ
  Basis Set:
  Basis Set: CC-PVTZ
  Basis Set:
  @DF-RHF Final Energy:  -251.44359155676307
    Total Energy =                       -251.4435915567627262
  Basis Set: CC-PVTZ
  Basis Set:
  Basis Set: CC-PVTZ
  Basis Set:
  @DF-RHF Final Energy:  -251.44359388118420
    Total Energy =                       -251.4435938811843698
  Basis Set: CC-PVTZ
  Basis Set:
  Charge       = 0
  Multiplicity = 1
  Basis Set: CC-PVTZ
  Basis Set:

    Orbital Energies (a.u.)
    -----------------------

    Doubly Occupied:

       1A    -15.526310     2A    -11.237747     3A    -11.212415
       4A    -11.210833     5A    -11.208126     6A    -11.205842
       7A     -1.178250     8A     -1.072804     9A     -0.997083
      10A     -0.900435    11A     -0.834808    12A     -0.770694
      13A     -0.665740    14A     -0.639365    15A     -0.614280
      16A     -0.593486    17A     -0.571906    18A     -0.551027
      19A     -0.525959    20A     -0.501991    21A     -0.490423
      22A     -0.459247    23A     -0.455335    24A     -0.448681
      25A     -0.383633

  @DF-RHF Final Energy:  -251.44359398016488

   => Energetics <=

    Nuclear Repulsion Energy =            249.7215299276297458
    One-Electron Energy =                -833.8174080737362601
    Two-Electron Energy =                 332.6522841659415235
    DFT Exchange-Correlation Energy =       0.0000000000000000
    Empirical Dispersion Energy =           0.0000000000000000
    PCM Polarization Energy =               0.0000000000000000
    EFP Energy =                            0.0000000000000000
    Total Energy =                       -251.4435939801650193
    Molecular point group: c1
  Basis Set: CC-PVTZ
  Basis Set:

  -Total Gradient:
     Atom            X                  Y                   Z
    ------   -----------------  -----------------  -----------------
       1        0.000000448112    -0.000006778014     0.000004045491
       2        0.000012274547    -0.000007676441     0.000014430400
       3       -0.000004747369     0.000005683197    -0.000024125417
       4        0.000008176617    -0.000001900245    -0.000001427905
       5        0.002161129640     0.004165795712    -0.003349558981
       6       -0.000009019474     0.000001074677     0.000002972481
       7       -0.000001747033    -0.000001758684    -0.000002570035
       8        0.002927004180     0.004773912767     0.000753041779
       9       -0.002274696820    -0.004229676586     0.002688894375
      10        0.000000670130     0.000000959935    -0.000005145751
      11       -0.000008153931    -0.000010386847    -0.000023900614
      12       -0.002819150632    -0.004702164946    -0.000067968176
      13        0.000003509715     0.000008605329     0.000003470964
      14        0.000002313136     0.000003814337     0.000006521772
      15       -0.000006242038    -0.000003270982    -0.000000135827
      16        0.000001307732     0.000004889024    -0.000003633317
      17       -0.000003790093    -0.000001488623     0.000000991397
      18        0.000001916206    -0.000003002985     0.000004813064
      19        0.000008797374     0.000003369377    -0.000000715701

  **** Optimization is complete! (in 8 steps) ****
    Final optimized geometry and variables:
    Molecular point group: c1

    Geometry (in Angstrom), charge = 0, multiplicity = 1:

    H            3.543434505698    -0.605099913665     0.196945133394
    N            2.695386637297    -1.130642644175     0.185308154889
    C            1.534998756073    -0.255001941901     0.229487017866
    H            2.714189834690    -1.739751373056     0.976375520540
    C            0.254844242059    -1.071047498833     0.132108575915
    H            1.607327024846     0.425804401957    -0.609636344098
    H            1.501524400258     0.359580196443     1.130840894630
    C           -1.057760546816    -0.284864048706     0.260455533946
    H            0.257376671907    -1.652667025947    -0.783494587418
    H            0.271040271726    -1.814214086904     0.927032724715
    C           -1.120437217017     1.052205257186    -0.473073131187
    H           -1.303949768714    -0.152219615204     1.310969451810
    H           -1.853189537929    -0.918577346796    -0.123848680311
    C           -2.499641091951     1.698726787408    -0.392977809514
    H           -0.385154153046     1.737479435943    -0.064691421000
    H           -0.853804327386     0.903239362638    -1.516165146724
    H           -2.786031750718     1.881487708745     0.637563826666
    H           -2.519217734446     2.648803520308    -0.914554373673
    H           -3.257319567788     1.061674029583    -0.836809438193

  Mulliken Charges: (a.u.)
   Center  Symbol    Alpha    Beta     Spin     Total
       1     H     0.43011  0.43011  0.00000  0.13979
       2     N     3.69021  3.69021  0.00000 -0.38042
       3     C     3.02815  3.02815  0.00000 -0.05631
       4     H     0.43098  0.43098  0.00000  0.13804
       5     C     3.08881  3.08881  0.00000 -0.17761
       6     H     0.45345  0.45345  0.00000  0.09311
       7     H     0.46709  0.46709  0.00000  0.06583
       8     C     3.09938  3.09938  0.00000 -0.19876
       9     H     0.44701  0.44701  0.00000  0.10599
      10     H     0.45750  0.45750  0.00000  0.08500
      11     C     3.08959  3.08959  0.00000 -0.17918
      12     H     0.45341  0.45341  0.00000  0.09318
      13     H     0.45145  0.45145  0.00000  0.09710
      14     C     3.15001  3.15001  0.00000 -0.30001
      15     H     0.45260  0.45260  0.00000  0.09480
      16     H     0.45189  0.45189  0.00000  0.09623
      17     H     0.45545  0.45545  0.00000  0.08910
      18     H     0.44848  0.44848  0.00000  0.10305
      19     H     0.45446  0.45446  0.00000  0.09107

   Total alpha = 25.00000, Total beta = 25.00000, Total charge = -0.00000

*** Psi4 exiting successfully. Buy a developer a beer!
