  ==> Input File <==

--------------------------------------------------------------------------
set {
	reference rhf
	basis 6-31G*
}

set_num_threads( 4 )
memory 2 gb

molecule MOL {
0 1

H	 -4.031812	 -0.453478	 -0.009694
C	 -2.967706	 -0.297074	 -0.009982
C	 -2.458608	 0.992819	 -0.021975
C	 -2.109895	 -1.385632	 0.001638
H	 -3.124981	 1.836164	 -0.030979
C	 -1.090266	 1.193125	 -0.022337
H	 -2.506366	 -2.384797	 0.010924
C	 -0.739812	 -1.187526	 0.001298
H	 -0.678577	 2.184135	 -0.031526
C	 -0.226432	 0.104007	 -0.010706
H	 -0.072315	 -2.026983	 0.010264
C	 1.239135	 0.373764	 -0.011629
O	 1.970282	 -0.730723	 0.000018
O	 1.714868	 1.465751	 -0.021739
C	 3.377318	 -0.566646	 -0.000065
H	 3.695437	 -0.028981	 -0.881264
H	 3.789299	 -1.563704	 0.000236
H	 3.695516	 -0.028316	 0.880770

	symmetry c1
}
set optking {
	frozen_dihedral = ("
		12 13 15 16
	")
}

ee = optimize('scf')
oeprop('DIPOLE', 'QUADRUPOLE', 'MULLIKEN_CHARGES')
f=open( 'psi4out.xyz', 'w' )
f.write( "18  " )
f.write( str(ee) + "\n" )
f.write( MOL.save_string_xyz() )
f.close()
--------------------------------------------------------------------------

    Molecular point group: c1
  Charge       = 0
  Multiplicity = 1
  Basis Set: 6-31G*
  Basis Set:
  @DF-RHF Final Energy:  -457.35066724763414
    Total Energy =                       -457.3506672476339645
    Molecular point group: c1
  Basis Set: 6-31G*
  Basis Set:
  Charge       = 0
  Multiplicity = 1
  Basis Set: 6-31G*
  Basis Set:

    Orbital Energies (a.u.)
    -----------------------

    Doubly Occupied:

       1A    -20.607664     2A    -20.544452     3A    -11.377909
       4A    -11.282942     5A    -11.245595     6A    -11.245278
       7A    -11.244156     8A    -11.241715     9A    -11.237478
      10A    -11.236717    11A     -1.472823    12A     -1.363903
      13A     -1.165296    14A     -1.048104    15A     -1.024821
      16A     -0.978134    17A     -0.860195    18A     -0.834326
      19A     -0.777773    20A     -0.739935    21A     -0.683340
      22A     -0.677440    23A     -0.671902    24A     -0.631077
      25A     -0.623953    26A     -0.597793    27A     -0.584633
      28A     -0.561468    29A     -0.529354    30A     -0.516629
      31A     -0.503416    32A     -0.498952    33A     -0.459224
      34A     -0.444420    35A     -0.344861    36A     -0.340995

  @DF-RHF Final Energy:  -457.35066734704219

   => Energetics <=

    Nuclear Repulsion Energy =            493.0118289924433839
    One-Electron Energy =               -1600.3276413432031404
    Two-Electron Energy =                 649.9651450037179075
    DFT Exchange-Correlation Energy =       0.0000000000000000
    Empirical Dispersion Energy =           0.0000000000000000
    PCM Polarization Energy =               0.0000000000000000
    EFP Energy =                            0.0000000000000000
    Total Energy =                       -457.3506673470417354
    Molecular point group: c1
  Basis Set: 6-31G*
  Basis Set:

  -Total Gradient:
     Atom            X                  Y                   Z
    ------   -----------------  -----------------  -----------------
       1        0.000005692800    -0.000001728435     0.000000301464
       2        0.000006482759    -0.000000683724    -0.000000038913
       3        0.000004600453    -0.000000655214    -0.000000601214
       4        0.000007492322    -0.000006798440    -0.000001217512
       5        0.000001285432     0.000003792321    -0.000000049281
       6        0.000001047899     0.000000477360     0.000001452615
       7       -0.000000934832    -0.000001931270    -0.000000089933
       8       -0.000032147349    -0.000029171619     0.000002754579
       9       -0.000001787957    -0.000000685680    -0.000000273994
      10       -0.000002596538     0.000016347867     0.000016457934
      11       -0.000005721942     0.000005637642     0.000000852223
      12       -0.000005045989     0.000052539659    -0.000133268190
      13        0.000013812080    -0.000021611266     0.000134716077
      14        0.000012537794    -0.000020923247     0.000038644653
      15        0.000016528061    -0.000032754364    -0.000095732460
      16        0.000008726557     0.000046785215     0.000030826670
      17       -0.000008674995    -0.000003780067     0.000004233959
      18       -0.000021296556    -0.000004856735     0.000001031322

  **** Optimization is complete! (in 2 steps) ****
    Final optimized geometry and variables:
    Molecular point group: c1

    Geometry (in Angstrom), charge = 0, multiplicity = 1:

    H           -4.031797214958    -0.453279441825    -0.000685582594
    C           -2.967724415163    -0.296955448005    -0.000854816318
    C           -2.458503234981     0.992931573046    -0.012692185296
    C           -2.110111756805    -1.385635690962     0.010772081376
    H           -3.124773385705     1.836405878744    -0.021694198409
    C           -1.090214715188     1.193135255756    -0.012888199896
    H           -2.506746477730    -2.384720712667     0.019947275745
    C           -0.740029524018    -1.187595075455     0.010588971538
    H           -0.678527660889     2.184121321297    -0.021947947862
    C           -0.226481598012     0.103924478942    -0.001265169792
    H           -0.072816220288    -2.027242749872     0.019579784362
    C            1.239220017660     0.373722794949    -0.002006234250
    O            1.970370481418    -0.730652809008     0.009975518811
    O            1.715008292970     1.465752520615    -0.011717167480
    C            3.377281611691    -0.566366975470     0.008835706232
    H            3.695228101184    -0.029350177997    -0.872795629590
    H            3.789230953013    -1.563389930407     0.010384627446
    H            3.695656737467    -0.027047447845     0.889016724296

  Mulliken Charges: (a.u.)
   Center  Symbol    Alpha    Beta     Spin     Total
       1     H     0.39539  0.39539  0.00000  0.20922
       2     C     3.08999  3.08999  0.00000 -0.17998
       3     C     3.10713  3.10713  0.00000 -0.21426
       4     C     3.10717  3.10717  0.00000 -0.21435
       5     H     0.39536  0.39536  0.00000  0.20927
       6     C     3.08640  3.08640  0.00000 -0.17279
       7     H     0.39625  0.39625  0.00000  0.20750
       8     C     3.08716  3.08716  0.00000 -0.17431
       9     H     0.37596  0.37596  0.00000  0.24809
      10     C     3.07712  3.07712  0.00000 -0.15424
      11     H     0.38042  0.38042  0.00000  0.23916
      12     C     2.57968  2.57968  0.00000  0.84064
      13     O     4.31478  4.31478  0.00000 -0.62956
      14     O     4.29185  4.29185  0.00000 -0.58370
      15     C     3.09257  3.09257  0.00000 -0.18513
      16     H     0.40728  0.40728  0.00000  0.18543
      17     H     0.40797  0.40797  0.00000  0.18407
      18     H     0.40753  0.40753  0.00000  0.18494

   Total alpha = 36.00000, Total beta = 36.00000, Total charge = -0.00000
