                              Psi4 1.0.54 Driver

  ==> Input File <==

--------------------------------------------------------------------------
set {
	reference rhf
	basis cc-pvtz
}

set_num_threads( 4 )
memory 2 gb

molecule MOL {
0 1

H	 -2.816458	 -0.841657	 -0.064679
N	 -1.878861	 -0.711874	 0.250184
C	 -1.341419	 0.551458	 -0.220231
H	 -1.333674	 -1.468530	 -0.105118
C	 0.082190	 0.731516	 0.254705
H	 -1.357065	 0.652078	 -1.304747
H	 -1.939897	 1.357530	 0.189797
O	 0.072632	 1.481605	 1.431558
H	 0.537499	 -0.241313	 0.434899
H	 0.661179	 1.242272	 -0.511343
C	 1.332312	 1.777204	 1.936581
H	 1.201014	 2.352842	 2.841450
H	 1.887212	 0.872467	 2.175811
H	 1.916751	 2.362403	 1.230510

	symmetry c1
}
set optking {
	frozen_dihedral = ("
		8 5 3 6
	")
}

ee,wfn = optimize('scf', return_wfn=True)
oeprop( wfn, 'DIPOLE', 'QUADRUPOLE', 'MULLIKEN_CHARGES')
f=open( 'psi4out.xyz', 'w' )
f.write( "14  " )
f.write( str(ee) + "\n" )
f.write( MOL.save_string_xyz() )
f.close()
--------------------------------------------------------------------------

    Molecular point group: c1
  Charge       = 0
  Multiplicity = 1
  Basis Set: CC-PVTZ
  Basis Set:
  @DF-RHF Final Energy:  -248.21870916485631
    Total Energy =                       -248.2187091648560795
    Molecular point group: c1
  Basis Set: CC-PVTZ
  Basis Set:
  Basis Set: CC-PVTZ
  Basis Set:
  @DF-RHF Final Energy:  -248.21940029660794
    Total Energy =                       -248.2194002966080006
  Basis Set: CC-PVTZ
  Basis Set:
  Basis Set: CC-PVTZ
  Basis Set:
  @DF-RHF Final Energy:  -248.21959479220703
    Total Energy =                       -248.2195947922069763
  Basis Set: CC-PVTZ
  Basis Set:
  Basis Set: CC-PVTZ
  Basis Set:
  @DF-RHF Final Energy:  -248.21964018352352
    Total Energy =                       -248.2196401835234383
  Basis Set: CC-PVTZ
  Basis Set:
  Basis Set: CC-PVTZ
  Basis Set:
  @DF-RHF Final Energy:  -248.21965249977023
    Total Energy =                       -248.2196524997702909
  Basis Set: CC-PVTZ
  Basis Set:
  Charge       = 0
  Multiplicity = 1
  Basis Set: CC-PVTZ
  Basis Set:

    Orbital Energies (a.u.)
    -----------------------

    Doubly Occupied:

       1A    -20.545128     2A    -15.528932     3A    -11.263358
       4A    -11.259321     5A    -11.240468     6A     -1.379937
       7A     -1.178998     8A     -0.998605     9A     -0.901364
      10A     -0.821841    11A     -0.680904    12A     -0.670984
      13A     -0.645668    14A     -0.619888    15A     -0.606488
      16A     -0.536418    17A     -0.526186    18A     -0.502377
      19A     -0.467706    20A     -0.414769    21A     -0.386658

  @DF-RHF Final Energy:  -248.21965335914967

   => Energetics <=

    Nuclear Repulsion Energy =            192.3425035794767837
    One-Electron Energy =                -718.7723199718586784
    Two-Electron Energy =                 278.2101630332322202
    DFT Exchange-Correlation Energy =       0.0000000000000000
    Empirical Dispersion Energy =           0.0000000000000000
    PCM Polarization Energy =               0.0000000000000000
    EFP Energy =                            0.0000000000000000
    Total Energy =                       -248.2196533591496745
    Molecular point group: c1
  Basis Set: CC-PVTZ
  Basis Set:

  -Total Gradient:
     Atom            X                  Y                   Z
    ------   -----------------  -----------------  -----------------
       1        0.000011541466    -0.000008695119    -0.000019996771
       2        0.000010313337     0.000035354284     0.000045584193
       3        0.001053533388    -0.003474871081    -0.000851484290
       4       -0.000015872701     0.000008118283    -0.000014673838
       5       -0.000234608823    -0.002199155450     0.002086375641
       6       -0.000858959891     0.003378445623     0.000296679269
       7       -0.000014926379    -0.000010730864    -0.000001766713
       8        0.000046311911     0.002271105435    -0.001544987647
       9        0.000017902430    -0.000015300772    -0.000011821378
      10        0.000000910603    -0.000000540797    -0.000004798854
      11       -0.000018048108     0.000012628569     0.000030728009
      12        0.000014584942     0.000008014251     0.000008644788
      13       -0.000008467932     0.000001027795    -0.000012971080
      14       -0.000004214242    -0.000005400158    -0.000005511329

  **** Optimization is complete! (in 6 steps) ****
    Final optimized geometry and variables:
    Molecular point group: c1

    Geometry (in Angstrom), charge = 0, multiplicity = 1:

    H           -2.430736715412    -1.647477567698    -0.650027598524
    N           -1.450018735381    -1.550104904788    -0.496870143120
    C           -0.967858332674    -0.271026900088    -0.987648038774
    H           -1.000494813422    -2.309376704966    -0.963738965195
    C            0.437286080858     0.036628191609    -0.489211055157
    H           -0.989659396796    -0.179323210740    -2.073036920883
    H           -1.617382903685     0.505129484308    -0.604855787742
    O            0.365141161286     0.786103330207     0.682521963943
    H            0.981157843672    -0.890421537287    -0.315946845689
    H            0.983669420692     0.601115298650    -1.244268521559
    C            1.593804389716     1.042754353431     1.274573416156
    H            1.417906581215     1.638795081223     2.158359765827
    H            2.095664683214     0.123147958820     1.567354446492
    H            2.252165382571     1.595129206018     0.606310282337

  Mulliken Charges: (a.u.)
   Center  Symbol    Alpha    Beta     Spin     Total
       1     H     0.42778  0.42778  0.00000  0.14443
       2     N     3.68975  3.68975  0.00000 -0.37951
       3     C     3.02812  3.02812  0.00000 -0.05624
       4     H     0.43183  0.43183  0.00000  0.13633
       5     C     2.95322  2.95322  0.00000  0.09356
       6     H     0.46671  0.46671  0.00000  0.06657
       7     H     0.45195  0.45195  0.00000  0.09609
       8     O     4.17131  4.17131  0.00000 -0.34261
       9     H     0.47970  0.47970  0.00000  0.04059
      10     H     0.47670  0.47670  0.00000  0.04659
      11     C     3.03071  3.03071  0.00000 -0.06143
      12     H     0.44711  0.44711  0.00000  0.10577
      13     H     0.47100  0.47100  0.00000  0.05800
      14     H     0.47408  0.47408  0.00000  0.05184

   Total alpha = 21.00000, Total beta = 21.00000, Total charge = -0.00000

*** Psi4 exiting successfully. Buy a developer a beer!
