  ==> Input File <==

--------------------------------------------------------------------------
set {
	reference rhf
	basis 6-31G*
}

set_num_threads( 4 )
memory 2 gb

molecule MOL {
0 1

H	 -2.273092	 1.173159	 0.000295
O	 -1.438904	 1.618192	 0.000114
C	 -0.409536	 0.736003	 0.000030
C	 -0.694931	 -0.552438	 0.423904
C	 0.876144	 1.090570	 -0.402771
H	 -1.699630	 -0.783412	 0.725933
C	 0.304361	 -1.506484	 0.450754
C	 1.861188	 0.111136	 -0.365539
C	 1.185536	 2.496924	 -0.864778
H	 0.076425	 -2.504333	 0.780657
C	 1.591301	 -1.179017	 0.055117
H	 2.859646	 0.369134	 -0.673539
H	 0.991917	 3.232506	 -0.086720
H	 2.229085	 2.588988	 -1.137737
H	 0.600073	 2.776105	 -1.738442
H	 2.373461	 -1.915964	 0.073430

	symmetry c1
}
set optking {
	frozen_dihedral = ("
		4 3 2 1
	")
}

ee = optimize('scf')
oeprop('DIPOLE', 'QUADRUPOLE', 'MULLIKEN_CHARGES')
f=open( 'psi4out.xyz', 'w' )
f.write( "16  " )
f.write( str(ee) + "\n" )
f.write( MOL.save_string_xyz() )
f.close()
--------------------------------------------------------------------------

    Molecular point group: c1
  Charge       = 0
  Multiplicity = 1
  Basis Set: 6-31G*
  Basis Set:
  @DF-RHF Final Energy:  -344.59186166470965
    Total Energy =                       -344.5918616647095405
    Molecular point group: c1
  Basis Set: 6-31G*
  Basis Set:
  Basis Set: 6-31G*
  Basis Set:
  @DF-RHF Final Energy:  -344.59427653718114
    Total Energy =                       -344.5942765371809173
  Basis Set: 6-31G*
  Basis Set:
  Basis Set: 6-31G*
  Basis Set:
  @DF-RHF Final Energy:  -344.59449646739796
    Total Energy =                       -344.5944964673976756
  Basis Set: 6-31G*
  Basis Set:
  Basis Set: 6-31G*
  Basis Set:
  @DF-RHF Final Energy:  -344.59451747842274
    Total Energy =                       -344.5945174784228584
  Basis Set: 6-31G*
  Basis Set:
  Basis Set: 6-31G*
  Basis Set:
  @DF-RHF Final Energy:  -344.59452183887578
    Total Energy =                       -344.5945218388758349
  Basis Set: 6-31G*
  Basis Set:
  Charge       = 0
  Multiplicity = 1
  Basis Set: 6-31G*
  Basis Set:

    Orbital Energies (a.u.)
    -----------------------

    Doubly Occupied:

       1A    -20.588086     2A    -11.291771     3A    -11.231320
       4A    -11.229979     5A    -11.227974     6A    -11.225978
       7A    -11.219835     8A    -11.212776     9A     -1.405614
      10A     -1.147987    11A     -1.043456    12A     -1.002615
      13A     -0.928631    14A     -0.843058    15A     -0.798884
      16A     -0.730323    17A     -0.670570    18A     -0.650022
      19A     -0.606846    20A     -0.595066    21A     -0.575356
      22A     -0.557556    23A     -0.544596    24A     -0.538433
      25A     -0.499350    26A     -0.480689    27A     -0.471691
      28A     -0.329216    29A     -0.304702

  @DF-RHF Final Energy:  -344.59452207124752

   => Energetics <=

    Nuclear Repulsion Energy =            350.1545462721313697
    One-Electron Energy =               -1161.5933753332265042
    Two-Electron Energy =                 466.8443069898476097
    DFT Exchange-Correlation Energy =       0.0000000000000000
    Empirical Dispersion Energy =           0.0000000000000000
    PCM Polarization Energy =               0.0000000000000000
    EFP Energy =                            0.0000000000000000
    Total Energy =                       -344.5945220712475248
    Molecular point group: c1
  Basis Set: 6-31G*
  Basis Set:

  -Total Gradient:
     Atom            X                  Y                   Z
    ------   -----------------  -----------------  -----------------
       1        0.000004524376    -0.000026257192    -0.001808975603
       2        0.000104887817     0.000255266382     0.002868644222
       3       -0.000446526256    -0.000529420868    -0.002255940690
       4        0.000301352760     0.000345169864     0.001268281646
       5        0.000024699417    -0.000021540502    -0.000036295065
       6        0.000000445607    -0.000003082717    -0.000002655079
       7        0.000001377155    -0.000033331632    -0.000025351814
       8       -0.000021226598     0.000019189240    -0.000050961075
       9        0.000003221007    -0.000007247834     0.000015501253
      10        0.000006847821    -0.000001870874    -0.000004548341
      11        0.000007663830     0.000013311803     0.000030272875
      12        0.000005788551     0.000004465825     0.000004286646
      13       -0.000000819359    -0.000008896422     0.000000593431
      14        0.000009190613     0.000005038372    -0.000005605266
      15       -0.000000037572    -0.000009384082     0.000000284958
      16       -0.000001389163    -0.000001409363     0.000002467902

  **** Optimization is complete! (in 6 steps) ****
    Final optimized geometry and variables:
    Molecular point group: c1

    Geometry (in Angstrom), charge = 0, multiplicity = 1:

    H           -2.596961462359     0.879952329232     0.072007917520
    O           -1.731845622075     1.264558191449     0.065374388125
    C           -0.779870168448     0.296128893338     0.091406975575
    C           -1.058761212852    -0.987614572614     0.523567540371
    C            0.507991153742     0.660666443613    -0.302482529711
    H           -2.057684763123    -1.240243743344     0.837999422479
    C           -0.053526870735    -1.943343542928     0.552551653425
    C            1.493955349603    -0.310652513752    -0.256672467131
    C            0.790151299324     2.071189827151    -0.757739261390
    H           -0.278985517219    -2.940901173016     0.884792374589
    C            1.227638934244    -1.607711639092     0.163250593912
    H            2.493106985854    -0.049033048153    -0.559011989614
    H            0.581692205194     2.787225341722     0.030299730650
    H            1.828632807106     2.179115230550    -1.048353152736
    H            0.168866921122     2.340721515502    -1.605132281173
    H            2.014267084604    -2.339943742104     0.184562388395

  Mulliken Charges: (a.u.)
   Center  Symbol    Alpha    Beta     Spin     Total
       1     H     0.27180  0.27180  0.00000  0.45640
       2     O     4.38114  4.38114  0.00000 -0.76228
       3     C     2.80889  2.80889  0.00000  0.38222
       4     C     3.13683  3.13683  0.00000 -0.27366
       5     C     3.00783  3.00783  0.00000 -0.01566
       6     H     0.40456  0.40456  0.00000  0.19087
       7     C     3.09611  3.09611  0.00000 -0.19221
       8     C     3.10781  3.10781  0.00000 -0.21563
       9     C     3.24162  3.24162  0.00000 -0.48324
      10     H     0.39932  0.39932  0.00000  0.20136
      11     C     3.10736  3.10736  0.00000 -0.21472
      12     H     0.40097  0.40097  0.00000  0.19806
      13     H     0.40771  0.40771  0.00000  0.18458
      14     H     0.41794  0.41794  0.00000  0.16412
      15     H     0.40899  0.40899  0.00000  0.18202
      16     H     0.40112  0.40112  0.00000  0.19777

   Total alpha = 29.00000, Total beta = 29.00000, Total charge = -0.00000
