  ==> Input File <==

--------------------------------------------------------------------------
set {
	reference rhf
	basis cc-pvtz
}

set_num_threads( 4 )
memory 2 gb

molecule MOL {
0 1

H	 -1.088256	 -1.364742	 0.152233
O	 -1.432053	 -0.565244	 -0.200812
C	 -0.727158	 0.534527	 0.310686
C	 0.680222	 0.664433	 -0.252229
H	 -1.306802	 1.408001	 0.044211
H	 -0.690821	 0.490158	 1.397609
C	 0.755311	 1.459078	 -1.552593
H	 1.311792	 1.128621	 0.498025
H	 1.068465	 -0.336801	 -0.417903
H	 0.431388	 2.484472	 -1.412005
H	 1.770835	 1.493753	 -1.928173
H	 0.134394	 1.012308	 -2.323188

	symmetry c1
}
set optking {
	frozen_dihedral = ("
		8 4 3 2
	")
}

ee = optimize('scf')
oeprop('DIPOLE', 'QUADRUPOLE', 'MULLIKEN_CHARGES')
f=open( 'psi4out.xyz', 'w' )
f.write( "12  " )
f.write( str(ee) + "\n" )
f.write( MOL.save_string_xyz() )
f.close()
--------------------------------------------------------------------------

    Molecular point group: c1
  Charge       = 0
  Multiplicity = 1
  Basis Set: CC-PVTZ
  Basis Set:
  @DF-RHF Final Energy:  -193.18789617424173
    Total Energy =                       -193.1878961742419847
    Molecular point group: c1
  Basis Set: CC-PVTZ
  Basis Set:
  Basis Set: CC-PVTZ
  Basis Set:
  @DF-RHF Final Energy:  -193.18827813767857
    Total Energy =                       -193.1882781376785374
  Basis Set: CC-PVTZ
  Basis Set:
  Basis Set: CC-PVTZ
  Basis Set:
  @DF-RHF Final Energy:  -193.18832691548991
    Total Energy =                       -193.1883269154898812
  Basis Set: CC-PVTZ
  Basis Set:
  Basis Set: CC-PVTZ
  Basis Set:
  @DF-RHF Final Energy:  -193.18828399914003
    Total Energy =                       -193.1882839991400829
  Basis Set: CC-PVTZ
  Basis Set:
  Basis Set: CC-PVTZ
  Basis Set:
  @DF-RHF Final Energy:  -193.18833072659442
    Total Energy =                       -193.1883307265944154
  Basis Set: CC-PVTZ
  Basis Set:
  Charge       = 0
  Multiplicity = 1
  Basis Set: CC-PVTZ
  Basis Set:

    Orbital Energies (a.u.)
    -----------------------

    Doubly Occupied:

       1A    -20.545747     2A    -11.266086     3A    -11.218341
       4A    -11.208872     5A     -1.363992     6A     -1.050208
       7A     -0.920912     8A     -0.819021     9A     -0.683238
      10A     -0.632786    11A     -0.626506    12A     -0.570415
      13A     -0.532722    14A     -0.525425    15A     -0.484957
      16A     -0.468197    17A     -0.431010

  @DF-RHF Final Energy:  -193.18833121987788

   => Energetics <=

    Nuclear Repulsion Energy =            132.3165598568033658
    One-Electron Energy =                -524.3129148910040840
    Two-Electron Energy =                 198.8080238143228371
    DFT Exchange-Correlation Energy =       0.0000000000000000
    Empirical Dispersion Energy =           0.0000000000000000
    PCM Polarization Energy =               0.0000000000000000
    EFP Energy =                            0.0000000000000000
    Total Energy =                       -193.1883312198779095
    Molecular point group: c1
  Basis Set: CC-PVTZ
  Basis Set:

  -Total Gradient:
     Atom            X                  Y                   Z
    ------   -----------------  -----------------  -----------------
       1       -0.000003430054     0.000008949254     0.000002537158
       2        0.001364914328    -0.002342341297     0.002947660052
       3       -0.001579104510     0.002120874886    -0.003581733057
       4       -0.000909216917     0.004846841616    -0.001141044377
       5       -0.000010310150    -0.000014007235    -0.000010918602
       6       -0.000002021669    -0.000010383696    -0.000003077910
       7       -0.000000670523    -0.000020653382    -0.000013663348
       8        0.001134567488    -0.004598799522     0.001806550382
       9        0.000007485152     0.000002889191    -0.000004795416
      10        0.000006671311    -0.000002433426     0.000010349304
      11       -0.000008014419     0.000013994116    -0.000005228774
      12       -0.000000870041    -0.000004930507    -0.000006635412

  **** Optimization is complete! (in 6 steps) ****
    Final optimized geometry and variables:
    Molecular point group: c1

    Geometry (in Angstrom), charge = 0, multiplicity = 1:

    H           -0.797766384861    -1.835965712884     0.454276848240
    O           -1.222858605324    -1.035297258355     0.207317268693
    C           -0.520078070467     0.056314915531     0.740551673570
    C            0.895304137825     0.187625133271     0.180299970579
    H           -1.106853889152     0.935353651905     0.508709946459
    H           -0.480571304400    -0.027326194659     1.823633156063
    C            0.969232833669     0.942827734347    -1.140595846104
    H            1.538687446174     0.637863763632     0.930151932034
    H            1.289983338942    -0.816647337013     0.041891420058
    H            0.651601848236     1.972773665649    -1.017895974323
    H            1.979028243322     0.952281640371    -1.534051891247
    H            0.325302368064     0.481944628525    -1.880534370961

  Mulliken Charges: (a.u.)
   Center  Symbol    Alpha    Beta     Spin     Total
       1     H     0.39464  0.39464  0.00000  0.21071
       2     O     4.20475  4.20475  0.00000 -0.40950
       3     C     2.96895  2.96895  0.00000  0.06211
       4     C     3.08320  3.08320  0.00000 -0.16640
       5     H     0.46080  0.46080  0.00000  0.07839
       6     H     0.46563  0.46563  0.00000  0.06874
       7     C     3.14981  3.14981  0.00000 -0.29961
       8     H     0.45467  0.45467  0.00000  0.09067
       9     H     0.46358  0.46358  0.00000  0.07283
      10     H     0.45570  0.45570  0.00000  0.08861
      11     H     0.45019  0.45019  0.00000  0.09962
      12     H     0.44808  0.44808  0.00000  0.10385

   Total alpha = 17.00000, Total beta = 17.00000, Total charge =  0.00000
