                              Psi4 1.0.54 Driver

  ==> Input File <==

--------------------------------------------------------------------------
set {
	reference rhf
	basis cc-pvtz
}

set_num_threads( 4 )
memory 2 gb

molecule MOL {
0 1

H	 -4.340537	 -0.784487	 0.000000
O	 -3.958786	 0.074640	 0.000000
C	 -2.613554	 0.009900	 0.000000
C	 -2.011372	 -0.809204	 -0.940544
C	 -1.833981	 0.721385	 0.891594
H	 -2.625885	 -1.356557	 -1.627304
C	 -0.638794	 -0.912787	 -0.985216
H	 -2.293885	 1.358907	 1.624139
C	 -0.455749	 0.616226	 0.845371
H	 -0.174842	 -1.546921	 -1.713495
C	 0.136400	 -0.199053	 -0.091194
H	 0.144736	 1.169773	 1.538700
Br	 2.028005	 -0.345301	 -0.156919

	symmetry c1
}
set optking {
	frozen_dihedral = ("
		4 3 2 1
	")
}

ee,wfn = optimize('scf', return_wfn=True)
oeprop( wfn, 'DIPOLE', 'QUADRUPOLE', 'MULLIKEN_CHARGES')
f=open( 'psi4out.xyz', 'w' )
f.write( "13  " )
f.write( str(ee) + "\n" )
f.write( MOL.save_string_xyz() )
f.close()
--------------------------------------------------------------------------

    Molecular point group: c1
  Charge       = 0
  Multiplicity = 1
  Basis Set: CC-PVTZ
  Basis Set:
  @DF-RHF Final Energy: -2877.54285389845290
    Total Energy =                      -2877.5428538984565421
    Molecular point group: c1
  Basis Set: CC-PVTZ
  Basis Set:
  Basis Set: CC-PVTZ
  Basis Set:
  @DF-RHF Final Energy: -2877.54437498493644
    Total Energy =                      -2877.5443749849382584
  Basis Set: CC-PVTZ
  Basis Set:
  Basis Set: CC-PVTZ
  Basis Set:
  @DF-RHF Final Energy: -2877.54449426644351
    Total Energy =                      -2877.5444942664444170
  Basis Set: CC-PVTZ
  Basis Set:
  Basis Set: CC-PVTZ
  Basis Set:
  @DF-RHF Final Energy: -2877.54450659410031
    Total Energy =                      -2877.5445065940994027
  Basis Set: CC-PVTZ
  Basis Set:
  Charge       = 0
  Multiplicity = 1
  Basis Set: CC-PVTZ
  Basis Set:

    Orbital Energies (a.u.)
    -----------------------

    Doubly Occupied:

       1A   -490.019817     2A    -65.160146     3A    -58.515370
       4A    -58.514004     5A    -58.513994     6A    -20.588589
       7A    -11.306781     8A    -11.291290     9A    -11.253070
      10A    -11.251834    11A    -11.242945    12A    -11.239281
      13A     -9.833946    14A     -7.445567    15A     -7.438797
      16A     -7.438754    17A     -3.189258    18A     -3.185709
      19A     -3.185586    20A     -3.176943    21A     -3.176939
      22A     -1.417928    23A     -1.180342    24A     -1.067284
      25A     -1.041907    26A     -0.970556    27A     -0.865183
      28A     -0.827228    29A     -0.755421    30A     -0.684173
      31A     -0.656977    32A     -0.642635    33A     -0.610281
      34A     -0.603019    35A     -0.559251    36A     -0.528588
      37A     -0.502741    38A     -0.499167    39A     -0.431217
      40A     -0.414775    41A     -0.359477    42A     -0.323861

  @DF-RHF Final Energy: -2877.54451024249283

   => Energetics <=

    Nuclear Repulsion Energy =            525.2889112157315594
    One-Electron Energy =               -5041.8455839167809245
    Two-Electron Energy =                1639.0121624585549398
    DFT Exchange-Correlation Energy =       0.0000000000000000
    Empirical Dispersion Energy =           0.0000000000000000
    PCM Polarization Energy =               0.0000000000000000
    EFP Energy =                            0.0000000000000000
    Total Energy =                      -2877.5445102424941979
    Molecular point group: c1
  Basis Set: CC-PVTZ
  Basis Set:

  -Total Gradient:
     Atom            X                  Y                   Z
    ------   -----------------  -----------------  -----------------
       1        0.000079399242     0.000148385362     0.002486245862
       2       -0.000096291424     0.000520689150    -0.003759383186
       3        0.000007616913    -0.001924909858     0.002582530664
       4        0.000030269249     0.001267024838    -0.001345779300
       5       -0.000146948460     0.000013956800     0.000053562481
       6        0.000052855383    -0.000003927488    -0.000000853334
       7       -0.000120521811    -0.000128227635    -0.000099255233
       8       -0.000047020509    -0.000012443342    -0.000015793124
       9        0.000264285389    -0.000046997114    -0.000034525426
      10        0.000036554181    -0.000003432373    -0.000016705593
      11       -0.000001601057     0.000185352605     0.000177558458
      12       -0.000024176794     0.000017333848     0.000009985104
      13       -0.000034419301    -0.000032804749    -0.000037587421

  **** Optimization is complete! (in 5 steps) ****
    Final optimized geometry and variables:
    Molecular point group: c1

    Geometry (in Angstrom), charge = 0, multiplicity = 1:

    H           -4.367408566194    -0.626961767138     0.208381131563
    O           -3.956687078639     0.218385604641     0.169863793232
    C           -2.605339985591     0.101855182813     0.117496566964
    C           -1.985624405694    -0.737431438047    -0.789623531256
    C           -1.844603738492     0.897928420573     0.951358664677
    H           -2.577646549538    -1.335941266311    -1.455734413991
    C           -0.606963896414    -0.800475252175    -0.844959996842
    H           -2.337783503966     1.553103988049     1.641700044918
    C           -0.466198368631     0.847003893156     0.888302413035
    H           -0.127296259980    -1.455078243030    -1.544269474158
    C            0.145472972215    -0.006370759672    -0.006039850793
    H            0.123083797780     1.464585239026     1.535528157462
    BR           2.040155552788    -0.085148212198    -0.087482721187

  Mulliken Charges: (a.u.)
   Center  Symbol    Alpha    Beta     Spin     Total
       1     H     0.38472  0.38472  0.00000  0.23057
       2     O     4.18203  4.18203  0.00000 -0.36405
       3     C     2.87498  2.87498  0.00000  0.25004
       4     C     3.10716  3.10716  0.00000 -0.21432
       5     C     3.09110  3.09110  0.00000 -0.18220
       6     H     0.42086  0.42086  0.00000  0.15828
       7     C     3.08651  3.08651  0.00000 -0.17302
       8     H     0.41356  0.41356  0.00000  0.17288
       9     C     3.08241  3.08241  0.00000 -0.16482
      10     H     0.41047  0.41047  0.00000  0.17905
      11     C     2.97046  2.97046  0.00000  0.05909
      12     H     0.41038  0.41038  0.00000  0.17923
      13    BR    17.56536 17.56536  0.00000 -0.13072

   Total alpha = 42.00000, Total beta = 42.00000, Total charge =  0.00000

*** Psi4 exiting successfully. Buy a developer a beer!
