                              Psi4 1.0.54 Driver

  ==> Input File <==

--------------------------------------------------------------------------
set {
	reference rhf
	basis cc-pvtz
}

set_num_threads( 4 )
memory 2 gb

molecule MOL {
0 1

H	 1.163918	 1.660030	 0.709277
O	 0.352067	 1.176803	 0.738526
C	 0.489979	 0.078084	 0.002623
C	 -0.763662	 -0.754014	 0.000816
O	 1.496436	 -0.181786	 -0.560780
C	 -2.038001	 0.074705	 -0.000833
H	 -0.712945	 -1.405886	 -0.864342
H	 -0.715137	 -1.405770	 0.866182
H	 -2.087267	 0.710831	 -0.874232
H	 -2.903419	 -0.576199	 -0.001922
H	 -2.089467	 0.710909	 0.872389

	symmetry c1
}
set optking {
	frozen_dihedral = ("
		2 3 4 7
	")
}

ee,wfn = optimize('scf', return_wfn=True)
oeprop( wfn, 'DIPOLE', 'QUADRUPOLE', 'MULLIKEN_CHARGES')
f=open( 'psi4out.xyz', 'w' )
f.write( "11  " )
f.write( str(ee) + "\n" )
f.write( MOL.save_string_xyz() )
f.close()
--------------------------------------------------------------------------

    Molecular point group: c1
  Charge       = 0
  Multiplicity = 1
  Basis Set: CC-PVTZ
  Basis Set:
  @DF-RHF Final Energy:  -266.95061785977515
    Total Energy =                       -266.9506178597750932
    Molecular point group: c1
  Basis Set: CC-PVTZ
  Basis Set:
  Basis Set: CC-PVTZ
  Basis Set:
  @DF-RHF Final Energy:  -266.95103225088729
    Total Energy =                       -266.9510322508874651
  Basis Set: CC-PVTZ
  Basis Set:
  Basis Set: CC-PVTZ
  Basis Set:
  @DF-RHF Final Energy:  -266.95102595446735
    Total Energy =                       -266.9510259544672408
  Basis Set: CC-PVTZ
  Basis Set:
  Basis Set: CC-PVTZ
  Basis Set:
  @DF-RHF Final Energy:  -266.95116243243172
    Total Energy =                       -266.9511624324317722
  Basis Set: CC-PVTZ
  Basis Set:
  Basis Set: CC-PVTZ
  Basis Set:
  @DF-RHF Final Energy:  -266.95116775313699
    Total Energy =                       -266.9511677531371561
  Basis Set: CC-PVTZ
  Basis Set:
  Charge       = 0
  Multiplicity = 1
  Basis Set: CC-PVTZ
  Basis Set:

    Orbital Energies (a.u.)
    -----------------------

    Doubly Occupied:

       1A    -20.606680     2A    -20.539077     3A    -11.374327
       4A    -11.242822     5A    -11.225051     6A     -1.479214
       7A     -1.369073     8A     -1.068076     9A     -0.911709
      10A     -0.824522    11A     -0.705887    12A     -0.682811
      13A     -0.655885    14A     -0.605975    15A     -0.591620
      16A     -0.552879    17A     -0.526367    18A     -0.513593
      19A     -0.479697    20A     -0.443521

  @DF-RHF Final Energy:  -266.95116871673002

   => Energetics <=

    Nuclear Repulsion Energy =            180.4147011703074099
    One-Electron Energy =                -721.9341647093615393
    Two-Electron Energy =                 274.5682948223240487
    DFT Exchange-Correlation Energy =       0.0000000000000000
    Empirical Dispersion Energy =           0.0000000000000000
    PCM Polarization Energy =               0.0000000000000000
    EFP Energy =                            0.0000000000000000
    Total Energy =                       -266.9511687167301375
    Molecular point group: c1
  Basis Set: CC-PVTZ
  Basis Set:

  -Total Gradient:
     Atom            X                  Y                   Z
    ------   -----------------  -----------------  -----------------
       1        0.000009842163    -0.000003396606     0.000001009895
       2       -0.000257897132     0.000399649447    -0.000540390445
       3        0.000242000919    -0.000402036512     0.000637441992
       4        0.000386266171    -0.000564700991     0.000384421298
       5        0.000028065954    -0.000010494504    -0.000014151118
       6       -0.000013460490    -0.000009127182    -0.000003107549
       7       -0.000367839616     0.000590769417    -0.000469782717
       8       -0.000006778778    -0.000007078809     0.000001191328
       9        0.000001385576    -0.000000886678     0.000000986820
      10       -0.000019954379     0.000001525484    -0.000001472699
      11       -0.000001630388     0.000005776936     0.000003853195

  **** Optimization is complete! (in 6 steps) ****
    Final optimized geometry and variables:
    Molecular point group: c1

    Geometry (in Angstrom), charge = 0, multiplicity = 1:

    H            1.304510155133     1.524758743104     0.659020369550
    O            0.467548961541     1.085337264510     0.678265118529
    C            0.566066433181    -0.029452785365    -0.038044564553
    C           -0.700565656420    -0.845934384744    -0.051104812929
    O            1.569574368340    -0.338158732879    -0.582872015706
    C           -1.995343722235    -0.038821721641    -0.067813917666
    H           -0.634809557073    -1.498071598181    -0.909611732831
    H           -0.664841299807    -1.474926180738     0.833294052693
    H           -2.041396137328     0.609983129523    -0.934265145675
    H           -2.843608341422    -0.710397748753    -0.109443562091
    H           -2.090805293756     0.575716799156     0.815983316449

  Mulliken Charges: (a.u.)
   Center  Symbol    Alpha    Beta     Spin     Total
       1     H     0.38082  0.38082  0.00000  0.23835
       2     O     4.15929  4.15929  0.00000 -0.31857
       3     C     2.80567  2.80567  0.00000  0.38865
       4     C     3.09233  3.09233  0.00000 -0.18467
       5     O     4.19442  4.19442  0.00000 -0.38884
       6     C     3.14411  3.14411  0.00000 -0.28822
       7     H     0.43426  0.43426  0.00000  0.13148
       8     H     0.44445  0.44445  0.00000  0.11110
       9     H     0.45047  0.45047  0.00000  0.09906
      10     H     0.44844  0.44844  0.00000  0.10312
      11     H     0.44574  0.44574  0.00000  0.10852

   Total alpha = 20.00000, Total beta = 20.00000, Total charge =  0.00000

*** Psi4 exiting successfully. Buy a developer a beer!
