  ==> Input File <==

--------------------------------------------------------------------------
set {
	reference rhf
	basis 6-31G*
}

set_num_threads( 4 )
memory 2 gb

molecule MOL {
0 1

O	 3.225979	 0.970355	 -0.599647
C	 2.701189	 0.057885	 -0.047330
C	 1.245376	 -0.013843	 0.345420
O	 3.347903	 -1.046386	 0.304773
C	 0.455112	 1.231400	 -0.050772
H	 0.838542	 -0.913825	 -0.103701
H	 1.208210	 -0.175333	 1.419774
C	 -0.998893	 1.219485	 0.433193
H	 0.482531	 1.345121	 -1.130325
H	 0.957290	 2.103070	 0.354729
C	 -1.883438	 0.145884	 -0.207175
H	 -1.431207	 2.195402	 0.224832
H	 -1.019646	 1.105716	 1.516076
C	 -3.347647	 0.245583	 0.225435
H	 -1.822183	 0.231698	 -1.291012
H	 -1.510341	 -0.844814	 0.042401
C	 -4.239992	 -0.825570	 -0.404234
H	 -3.732888	 1.230466	 -0.033079
H	 -3.408585	 0.170602	 1.310038
C	 -4.287048	 -2.118147	 0.409850
H	 -5.248525	 -0.433266	 -0.516494
H	 -3.884923	 -1.045225	 -1.408952
H	 -4.927079	 -2.857446	 -0.061747
H	 -4.671326	 -1.937837	 1.409857
H	 -3.297100	 -2.554093	 0.510983
C	 4.728119	 -1.109107	 -0.004993
H	 4.882018	 -1.033965	 -1.071845
H	 5.068212	 -2.067527	 0.355250
H	 5.265056	 -0.311663	 0.488280

	symmetry c1
}
set optking {
	frozen_dihedral = ("
		21 17 14 11
	")
}

ee = optimize('scf')
oeprop('DIPOLE', 'QUADRUPOLE', 'MULLIKEN_CHARGES')
f=open( 'psi4out.xyz', 'w' )
f.write( "29  " )
f.write( str(ee) + "\n" )
f.write( MOL.save_string_xyz() )
f.close()
--------------------------------------------------------------------------

    Molecular point group: c1
  Charge       = 0
  Multiplicity = 1
  Basis Set: 6-31G*
  Basis Set:
  @DF-RHF Final Energy:  -501.04093408293488
    Total Energy =                       -501.0409340829348821
    Molecular point group: c1
  Basis Set: 6-31G*
  Basis Set:
  Basis Set: 6-31G*
  Basis Set:
  @DF-RHF Final Energy:  -501.04113082309584
    Total Energy =                       -501.0411308230957275
  Basis Set: 6-31G*
  Basis Set:
  Basis Set: 6-31G*
  Basis Set:
  @DF-RHF Final Energy:  -501.04118265079137
    Total Energy =                       -501.0411826507917112
  Basis Set: 6-31G*
  Basis Set:
  Charge       = 0
  Multiplicity = 1
  Basis Set: 6-31G*
  Basis Set:

    Orbital Energies (a.u.)
    -----------------------

    Doubly Occupied:

       1A    -20.603394     2A    -20.545215     3A    -11.372031
       4A    -11.280676     5A    -11.234785     6A    -11.219084
       7A    -11.217547     8A    -11.216043     9A    -11.215766
      10A    -11.214402    11A    -11.209727    12A     -1.469089
      13A     -1.362533    14A     -1.097918    15A     -1.066025
      16A     -1.018470    17A     -0.976352    18A     -0.928343
      19A     -0.866883    20A     -0.801566    21A     -0.785050
      22A     -0.764012    23A     -0.700796    24A     -0.682366
      25A     -0.672074    26A     -0.643165    27A     -0.628351
      28A     -0.608706    29A     -0.595699    30A     -0.587637
      31A     -0.560568    32A     -0.553874    33A     -0.533543
      34A     -0.526499    35A     -0.520373    36A     -0.509254
      37A     -0.497331    38A     -0.475581    39A     -0.474158
      40A     -0.463227    41A     -0.456130    42A     -0.451400
      43A     -0.441228    44A     -0.435508

  @DF-RHF Final Energy:  -501.04118296148170

   => Energetics <=

    Nuclear Repulsion Energy =            615.6379748072391749
    One-Electron Energy =               -1902.3935558730177036
    Two-Electron Energy =                 785.7143981042975156
    DFT Exchange-Correlation Energy =       0.0000000000000000
    Empirical Dispersion Energy =           0.0000000000000000
    PCM Polarization Energy =               0.0000000000000000
    EFP Energy =                            0.0000000000000000
    Total Energy =                       -501.0411829614811268
    Molecular point group: c1
  Basis Set: 6-31G*
  Basis Set:

  -Total Gradient:
     Atom            X                  Y                   Z
    ------   -----------------  -----------------  -----------------
       1       -0.000032474427    -0.000046955557    -0.000114520060
       2        0.000081499530     0.000136077663     0.000316276542
       3       -0.000044961734    -0.000042515012    -0.000098786686
       4       -0.000022266635    -0.000036498161    -0.000088795362
       5       -0.000002980338    -0.000058567248     0.000059345591
       6       -0.000088530923    -0.000023601322    -0.000011682878
       7        0.000017542321     0.000002929377    -0.000010982579
       8       -0.000059560818    -0.000007103963     0.000107334715
       9       -0.000028798177    -0.000002415037     0.000018384133
      10       -0.000007958993     0.000006542687     0.000013813985
      11       -0.000365540720     0.001184021719    -0.002007791114
      12        0.000063548922     0.000042740062    -0.000033347686
      13       -0.000016236389     0.000072441676     0.000011594836
      14        0.000743968421    -0.001566102493     0.001987999538
      15       -0.000122339806     0.000048640254    -0.000013537608
      16        0.000203579872    -0.000020289623    -0.000096249754
      17       -0.001100261881    -0.000915464887     0.002968457210
      18       -0.000027417237    -0.000098428570    -0.000118319129
      19       -0.000093180615     0.000030842365     0.000020233457
      20        0.000017887931     0.000063218686     0.000153835606
      21        0.000870332638     0.001000977570    -0.002911271307
      22        0.000029549631     0.000171801805    -0.000117179988
      23       -0.000003372663     0.000088421262    -0.000061815747
      24        0.000029501829    -0.000018024065     0.000063279975
      25       -0.000041164701    -0.000009918167    -0.000031713635
      26        0.000000211388    -0.000002143947    -0.000001483646
      27        0.000003299817    -0.000000907715    -0.000001270521
      28       -0.000000335632    -0.000000274940    -0.000002168385
      29       -0.000003540622     0.000000555582     0.000000360497

  **** Optimization is complete! (in 4 steps) ****
    Final optimized geometry and variables:
    Molecular point group: c1

    Geometry (in Angstrom), charge = 0, multiplicity = 1:

    O            3.096237896407     1.111649202824    -0.614110914525
    C            2.566310622590     0.191341304969    -0.080006054315
    C            1.108126550247     0.116500246449     0.303239565522
    O            3.208003437626    -0.921084203664     0.255174670550
    C            0.323041898371     1.370248245889    -0.076010993793
    H            0.701582030655    -0.774593662165    -0.163567540659
    H            1.064465551472    -0.063311482090     1.374434793024
    C           -1.133242309910     1.353742973513     0.400639592326
    H            0.355924990641     1.501697168628    -1.153383041836
    H            0.825314328091     2.233851550638     0.346279923761
    C           -2.015937738346     0.290583266808    -0.259132962753
    H           -1.563104123571     2.333400044017     0.204241704220
    H           -1.159361783897     1.224738663137     1.481656643534
    C           -3.483383731590     0.391254928251     0.168239043302
    H           -1.957157002980     0.395947618647    -1.341030565123
    H           -1.637500988099    -0.702400350793    -0.027894310388
    C           -4.378455347463    -0.706181849020    -0.429795180854
    H           -3.858635021134     1.364734830168    -0.138994169331
    H           -3.554954099464     0.370072175297     1.254067726083
    C           -4.411093413166    -1.994928023965     0.391362934551
    H           -5.388035757491    -0.324050263097    -0.553000339646
    H           -4.034521445937    -0.931329959370    -1.437633374618
    H           -5.032133942162    -2.747003924560    -0.085468443340
    H           -4.812817798686    -1.814313454445     1.384385347242
    H           -3.417695262070    -2.417664291621     0.509892588714
    C            4.589523882409    -0.982464045661    -0.049036033092
    H            4.748834093585    -0.888582919695    -1.113611864939
    H            4.924967572556    -1.948260260859     0.295499652934
    H            5.126422697174    -0.195696693412     0.461131798202

  Mulliken Charges: (a.u.)
   Center  Symbol    Alpha    Beta     Spin     Total
       1     O     4.28595  4.28595  0.00000 -0.57190
       2     C     2.60479  2.60479  0.00000  0.79042
       3     C     3.20979  3.20979  0.00000 -0.41958
       4     O     4.30746  4.30746  0.00000 -0.61492
       5     C     3.15366  3.15366  0.00000 -0.30732
       6     H     0.39892  0.39892  0.00000  0.20216
       7     H     0.40123  0.40123  0.00000  0.19754
       8     C     3.15684  3.15684  0.00000 -0.31368
       9     H     0.41312  0.41312  0.00000  0.17375
      10     H     0.40874  0.40874  0.00000  0.18253
      11     C     3.15619  3.15619  0.00000 -0.31238
      12     H     0.41832  0.41832  0.00000  0.16336
      13     H     0.42373  0.42373  0.00000  0.15253
      14     C     3.15330  3.15330  0.00000 -0.30660
      15     H     0.42214  0.42214  0.00000  0.15573
      16     H     0.42308  0.42308  0.00000  0.15384
      17     C     3.15473  3.15473  0.00000 -0.30947
      18     H     0.42116  0.42116  0.00000  0.15767
      19     H     0.42291  0.42291  0.00000  0.15418
      20     C     3.23967  3.23967  0.00000 -0.47933
      21     H     0.41993  0.41993  0.00000  0.16013
      22     H     0.42263  0.42263  0.00000  0.15473
      23     H     0.41929  0.41929  0.00000  0.16142
      24     H     0.42140  0.42140  0.00000  0.15721
      25     H     0.42189  0.42189  0.00000  0.15621
      26     C     3.09241  3.09241  0.00000 -0.18482
      27     H     0.40907  0.40907  0.00000  0.18185
      28     H     0.40850  0.40850  0.00000  0.18299
      29     H     0.40913  0.40913  0.00000  0.18175

   Total alpha = 44.00000, Total beta = 44.00000, Total charge =  0.00000
