  ==> Input File <==

--------------------------------------------------------------------------
set {
	reference rhf
	basis cc-pvtz
}

set_num_threads( 4 )
memory 2 gb

molecule MOL {
0 1

H	 0.970104	 1.011877	 -1.897296
O	 1.211962	 1.401222	 -1.076098
C	 0.706474	 0.636793	 -0.025501
C	 -0.793473	 0.591216	 0.050087
H	 1.096386	 1.073134	 0.886573
H	 1.087262	 -0.381940	 -0.068906
C	 -1.534243	 -0.493009	 -0.013340
H	 -1.266611	 1.552628	 0.164437
H	 -1.101195	 -1.466332	 -0.144046
H	 -2.604242	 -0.437780	 0.050785

	symmetry c1
}
set optking {
	frozen_dihedral = ("
		5 3 4 7
	")
}

ee = optimize('scf')
oeprop('DIPOLE', 'QUADRUPOLE', 'MULLIKEN_CHARGES')
f=open( 'psi4out.xyz', 'w' )
f.write( "10  " )
f.write( str(ee) + "\n" )
f.write( MOL.save_string_xyz() )
f.close()
--------------------------------------------------------------------------

    Molecular point group: c1
  Charge       = 0
  Multiplicity = 1
  Basis Set: CC-PVTZ
  Basis Set:
  @DF-RHF Final Energy:  -191.99852562377816
    Total Energy =                       -191.9985256237781925
    Molecular point group: c1
  Basis Set: CC-PVTZ
  Basis Set:
  Basis Set: CC-PVTZ
  Basis Set:
  @DF-RHF Final Energy:  -191.99905721844186
    Total Energy =                       -191.9990572184418340
  Basis Set: CC-PVTZ
  Basis Set:
  Basis Set: CC-PVTZ
  Basis Set:
  @DF-RHF Final Energy:  -191.99911995759894
    Total Energy =                       -191.9991199575991345
  Basis Set: CC-PVTZ
  Basis Set:
  Basis Set: CC-PVTZ
  Basis Set:
  @DF-RHF Final Energy:  -191.99912575856240
    Total Energy =                       -191.9991257585623998
  Basis Set: CC-PVTZ
  Basis Set:
  Charge       = 0
  Multiplicity = 1
  Basis Set: CC-PVTZ
  Basis Set:

    Orbital Energies (a.u.)
    -----------------------

    Doubly Occupied:

       1A    -20.551652     2A    -11.275694     3A    -11.231423
       4A    -11.225656     5A     -1.370066     6A     -1.068331
       7A     -0.925049     8A     -0.778661     9A     -0.707818
      10A     -0.626508    11A     -0.619622    12A     -0.609062
      13A     -0.532430    14A     -0.492685    15A     -0.449196
      16A     -0.379030

  @DF-RHF Final Energy:  -191.99912631206945

   => Energetics <=

    Nuclear Repulsion Energy =            117.7645584329649608
    One-Electron Energy =                -493.8416039281006533
    Two-Electron Energy =                 184.0779191830661716
    DFT Exchange-Correlation Energy =       0.0000000000000000
    Empirical Dispersion Energy =           0.0000000000000000
    PCM Polarization Energy =               0.0000000000000000
    EFP Energy =                            0.0000000000000000
    Total Energy =                       -191.9991263120695066
    Molecular point group: c1
  Basis Set: CC-PVTZ
  Basis Set:

  -Total Gradient:
     Atom            X                  Y                   Z
    ------   -----------------  -----------------  -----------------
       1       -0.000004462612    -0.000006580706     0.000016962688
       2        0.000037154232     0.000054643493    -0.000000448676
       3        0.000006200217    -0.000373021431    -0.000033388975
       4       -0.000043698006     0.000015241892     0.000427552802
       5       -0.000017575156     0.000272242652    -0.000167408669
       6       -0.000003090460    -0.000010775532     0.000033497215
       7        0.000022799227     0.000053068999    -0.000251547691
       8        0.000003520386    -0.000003111536     0.000000621049
       9       -0.000004337466     0.000004717152    -0.000002295654
      10        0.000003489639    -0.000006424982    -0.000023544089

  **** Optimization is complete! (in 5 steps) ****
    Final optimized geometry and variables:
    Molecular point group: c1

    Geometry (in Angstrom), charge = 0, multiplicity = 1:

    H            0.914259453101     0.502319632692    -1.571839066864
    O            1.237645518937     0.834660693444    -0.753663294426
    C            0.743732765287     0.051332003482     0.299464881877
    C           -0.756362025426     0.044004251502     0.345644042267
    H            1.138678949500     0.496760417531     1.203379361042
    H            1.119222777075    -0.965877137092     0.241064979931
    C           -1.496216972564    -1.042197113890     0.289840664340
    H           -1.224477239825     1.011221677916     0.416432337654
    H           -1.056184803207    -2.020418797361     0.211568827477
    H           -2.568258056563    -0.996566662686     0.328292385303

  Mulliken Charges: (a.u.)
   Center  Symbol    Alpha    Beta     Spin     Total
       1     H     0.39395  0.39395  0.00000  0.21210
       2     O     4.20018  4.20018  0.00000 -0.40035
       3     C     2.94916  2.94916  0.00000  0.10167
       4     C     3.08230  3.08230  0.00000 -0.16461
       5     H     0.45937  0.45937  0.00000  0.08127
       6     H     0.46977  0.46977  0.00000  0.06047
       7     C     3.17187  3.17187  0.00000 -0.34374
       8     H     0.41818  0.41818  0.00000  0.16364
       9     H     0.42907  0.42907  0.00000  0.14186
      10     H     0.42616  0.42616  0.00000  0.14769

   Total alpha = 16.00000, Total beta = 16.00000, Total charge = -0.00000
