  ==> Input File <==

--------------------------------------------------------------------------
set {
	reference rhf
	basis 6-31G*
}

set_num_threads( 4 )
memory 2 gb

molecule MOL {
0 1

H	 0.663642	 3.768237	 -0.000000
O	 1.421650	 3.199797	 -0.000000
C	 1.058466	 1.901616	 0.000000
C	 2.076847	 0.953543	 -0.000000
C	 -0.262841	 1.498776	 -0.000000
H	 3.095849	 1.291911	 0.000000
C	 1.769121	 -0.391213	 0.000000
H	 -1.067389	 2.207457	 -0.000000
C	 -0.536158	 0.140425	 0.000000
H	 2.561600	 -1.116358	 0.000000
C	 0.448970	 -0.821380	 0.000000
N	 -1.935604	 -0.280333	 0.000000
H	 0.194536	 -1.860932	 0.000000
O	 -2.161694	 -1.452901	 0.000000
O	 -2.770341	 0.571417	 0.000000

	symmetry c1
}
set optking {
	frozen_dihedral = ("
		11 9 12 14
	")
}

ee = optimize('scf')
oeprop('DIPOLE', 'QUADRUPOLE', 'MULLIKEN_CHARGES')
f=open( 'psi4out.xyz', 'w' )
f.write( "15  " )
f.write( str(ee) + "\n" )
f.write( MOL.save_string_xyz() )
f.close()
--------------------------------------------------------------------------

    Molecular point group: c1
  Charge       = 0
  Multiplicity = 1
  Basis Set: 6-31G*
  Basis Set:
  @DF-RHF Final Energy:  -509.02776265983056
    Total Energy =                       -509.0277626598301595
    Molecular point group: c1
  Basis Set: 6-31G*
  Basis Set:
  Basis Set: 6-31G*
  Basis Set:
  @DF-RHF Final Energy:  -509.02776806845100
    Total Energy =                       -509.0277680684508823
  Basis Set: 6-31G*
  Basis Set:
  Charge       = 0
  Multiplicity = 1
  Basis Set: 6-31G*
  Basis Set:

    Orbital Energies (a.u.)
    -----------------------

    Doubly Occupied:

       1A    -20.615789     2A    -20.605158     3A    -20.604604
       4A    -15.859543     5A    -11.330578     6A    -11.311206
       7A    -11.267275     8A    -11.266836     9A    -11.263690
      10A    -11.260796    11A     -1.638347    12A     -1.436496
      13A     -1.421596    14A     -1.200553    15A     -1.095053
      16A     -1.046481    17A     -0.966229    18A     -0.878697
      19A     -0.828635    20A     -0.791180    21A     -0.752006
      22A     -0.737254    23A     -0.724070    24A     -0.707848
      25A     -0.673244    26A     -0.635197    27A     -0.615885
      28A     -0.594705    29A     -0.558657    30A     -0.545101
      31A     -0.515295    32A     -0.492276    33A     -0.490152
      34A     -0.454994    35A     -0.377476    36A     -0.342946

  @DF-RHF Final Energy:  -509.02776879939620

   => Energetics <=

    Nuclear Repulsion Energy =            503.4854182966080316
    One-Electron Energy =               -1693.2146780198336273
    Two-Electron Energy =                 680.7014909238293967
    DFT Exchange-Correlation Energy =       0.0000000000000000
    Empirical Dispersion Energy =           0.0000000000000000
    PCM Polarization Energy =               0.0000000000000000
    EFP Energy =                            0.0000000000000000
    Total Energy =                       -509.0277687993961990
    Molecular point group: c1
  Basis Set: 6-31G*
  Basis Set:

  -Total Gradient:
     Atom            X                  Y                   Z
    ------   -----------------  -----------------  -----------------
       1        0.000000975128    -0.000006697216    -0.000000000000
       2        0.000009202140     0.000005412879     0.000000000000
       3        0.000005354895     0.000013552596    -0.000000000001
       4       -0.000001023599     0.000004266781    -0.000000000000
       5        0.000010857754     0.000008017360     0.000000000003
       6        0.000000893191    -0.000000993744     0.000000000000
       7       -0.000004365344     0.000012988628    -0.000000000001
       8        0.000011338429    -0.000003266684    -0.000000000000
       9        0.000007691433     0.000001527228     0.000000000020
      10        0.000000886437    -0.000000572537    -0.000000000000
      11        0.000014023722    -0.000007219558     0.000000000004
      12        0.000084140206    -0.000040642931    -0.000000000097
      13        0.000001795149     0.000007145535     0.000000000001
      14       -0.000087686404     0.000065953743     0.000000000035
      15       -0.000054083137    -0.000059472091     0.000000000036

  **** Optimization is complete! (in 3 steps) ****
    Final optimized geometry and variables:
    Molecular point group: c1

    Geometry (in Angstrom), charge = 0, multiplicity = 1:

    H            0.829582715987     3.215074481408    -0.000000000041
    O            1.587630787369     2.646729050291    -0.000000000008
    C            1.224609717753     1.348499693768    -0.000000000023
    C            2.243102630181     0.400602209380     0.000000000021
    C           -0.096612957533     0.945502104946    -0.000000000075
    H            3.262139311072     0.739088961569     0.000000000063
    C            1.935590189548    -0.944147659028     0.000000000016
    H           -0.901235886309     1.654111252578    -0.000000000105
    C           -0.369733641363    -0.412852426150    -0.000000000092
    H            2.728189439239    -1.669164687463     0.000000000057
    C            0.615455817676    -1.374614373089    -0.000000000036
    N           -1.769092755376    -0.833785238642    -0.000000000121
    H            0.361181537871    -2.414155811325    -0.000000000036
    O           -1.995723534982    -2.004651461582    -0.000000000095
    O           -2.604439838373     0.019557377298     0.000000000355

  Mulliken Charges: (a.u.)
   Center  Symbol    Alpha    Beta     Spin     Total
       1     H     0.26725  0.26725  0.00000  0.46549
       2     O     4.37577  4.37577  0.00000 -0.75155
       3     C     2.79129  2.79129  0.00000  0.41742
       4     C     3.10848  3.10848  0.00000 -0.21696
       5     C     3.13723  3.13723  0.00000 -0.27446
       6     H     0.38086  0.38086  0.00000  0.23828
       7     C     3.10057  3.10057  0.00000 -0.20114
       8     H     0.36792  0.36792  0.00000  0.26417
       9     C     2.91368  2.91368  0.00000  0.17264
      10     H     0.38657  0.38657  0.00000  0.22687
      11     C     3.09782  3.09782  0.00000 -0.19564
      12     N     3.24018  3.24018  0.00000  0.51963
      13     H     0.36519  0.36519  0.00000  0.26961
      14     O     4.23165  4.23165  0.00000 -0.46331
      15     O     4.23553  4.23553  0.00000 -0.47106

   Total alpha = 36.00000, Total beta = 36.00000, Total charge =  0.00000
