  ==> Input File <==

--------------------------------------------------------------------------
set {
	reference rhf
	basis 6-31G*
}

set_num_threads( 4 )
memory 2 gb

molecule MOL {
0 1

H	 2.335935	 -0.112599	 -0.157377
O	 1.586534	 -0.678666	 -0.000226
C	 0.489431	 0.077273	 0.000046
C	 -0.764129	 -0.759190	 0.000191
O	 0.537743	 1.263962	 0.000257
C	 -2.038368	 0.075731	 -0.000248
H	 -0.717284	 -1.412404	 -0.866059
H	 -0.717458	 -1.411724	 0.866967
H	 -2.086483	 0.712501	 -0.875098
H	 -2.908485	 -0.571682	 -0.000042
H	 -2.086576	 0.713280	 0.874068

	symmetry c1
}
set optking {
	frozen_dihedral = ("
		1 2 3 5
	")
}

ee = optimize('scf')
oeprop('DIPOLE', 'QUADRUPOLE', 'MULLIKEN_CHARGES')
f=open( 'psi4out.xyz', 'w' )
f.write( "11  " )
f.write( str(ee) + "\n" )
f.write( MOL.save_string_xyz() )
f.close()
--------------------------------------------------------------------------

    Molecular point group: c1
  Charge       = 0
  Multiplicity = 1
  Basis Set: 6-31G*
  Basis Set:
  @DF-RHF Final Energy:  -266.84552294438049
    Total Energy =                       -266.8455229443804910
    Molecular point group: c1
  Basis Set: 6-31G*
  Basis Set:
  Basis Set: 6-31G*
  Basis Set:
  @DF-RHF Final Energy:  -266.84404942601611
    Total Energy =                       -266.8440494260161131
  Basis Set: 6-31G*
  Basis Set:
  Basis Set: 6-31G*
  Basis Set:
  @DF-RHF Final Energy:  -266.84557946981454
    Total Energy =                       -266.8455794698150498
  Basis Set: 6-31G*
  Basis Set:
  Basis Set: 6-31G*
  Basis Set:
  @DF-RHF Final Energy:  -266.84558546748241
    Total Energy =                       -266.8455854674823513
  Basis Set: 6-31G*
  Basis Set:
  Basis Set: 6-31G*
  Basis Set:
  @DF-RHF Final Energy:  -266.84558690906340
    Total Energy =                       -266.8455869090632859
  Basis Set: 6-31G*
  Basis Set:
  Charge       = 0
  Multiplicity = 1
  Basis Set: 6-31G*
  Basis Set:

    Orbital Energies (a.u.)
    -----------------------

    Doubly Occupied:

       1A    -20.613304     2A    -20.553063     3A    -11.382147
       4A    -11.244132     5A    -11.220424     6A     -1.475299
       7A     -1.367113     8A     -1.065235     9A     -0.916936
      10A     -0.801311    11A     -0.702000    12A     -0.690420
      13A     -0.662293    14A     -0.598155    15A     -0.590357
      16A     -0.531971    17A     -0.525925    18A     -0.505327
      19A     -0.480195    20A     -0.445941

  @DF-RHF Final Energy:  -266.84558718835308

   => Energetics <=

    Nuclear Repulsion Energy =            179.7611681968701021
    One-Electron Energy =                -720.4704115505503523
    Two-Electron Energy =                 273.8636561653268586
    DFT Exchange-Correlation Energy =       0.0000000000000000
    Empirical Dispersion Energy =           0.0000000000000000
    PCM Polarization Energy =               0.0000000000000000
    EFP Energy =                            0.0000000000000000
    Total Energy =                       -266.8455871883533632
    Molecular point group: c1
  Basis Set: 6-31G*
  Basis Set:

  -Total Gradient:
     Atom            X                  Y                   Z
    ------   -----------------  -----------------  -----------------
       1       -0.000273759040    -0.000632247869    -0.003889148225
       2        0.000291554045     0.000790776631     0.006392571959
       3        0.000086185666    -0.000208265766    -0.006018565481
       4        0.000006702075    -0.000009788726    -0.000037391219
       5       -0.000106829637     0.000053764508     0.003540387300
       6        0.000000718625    -0.000005568984    -0.000009169202
       7        0.000007721711    -0.000009626864     0.000006998768
       8       -0.000012639309     0.000017913434     0.000016484840
       9       -0.000002055230     0.000001873129    -0.000001980378
      10        0.000000889556     0.000001408914    -0.000000961263
      11        0.000001511535    -0.000000238408     0.000000772901

  **** Optimization is complete! (in 6 steps) ****
    Final optimized geometry and variables:
    Molecular point group: c1

    Geometry (in Angstrom), charge = 0, multiplicity = 1:

    H            2.341947304445    -0.115876076007    -0.111235507252
    O            1.587010118438    -0.677854855377     0.032828297920
    C            0.489525340282     0.077719111053    -0.012324003395
    C           -0.763823985050    -0.758991453459    -0.000931717555
    O            0.537037244885     1.264079510291    -0.030669212369
    C           -2.038389450846     0.075218392561     0.015469122188
    H           -0.726133378148    -1.408347310630    -0.870702658084
    H           -0.707277463362    -1.415533409991     0.862096960325
    H           -2.094936989222     0.717277617636    -0.854957130454
    H           -2.908210046892    -0.572603395604     0.020087741686
    H           -2.078781512653     0.707452442236     0.894089749915

  Mulliken Charges: (a.u.)
   Center  Symbol    Alpha    Beta     Spin     Total
       1     H     0.26755  0.26755  0.00000  0.46491
       2     O     4.35072  4.35072  0.00000 -0.70144
       3     C     2.62536  2.62536  0.00000  0.74929
       4     C     3.20822  3.20822  0.00000 -0.41644
       5     O     4.27774  4.27774  0.00000 -0.55549
       6     C     3.23950  3.23950  0.00000 -0.47900
       7     H     0.39862  0.39862  0.00000  0.20275
       8     H     0.39761  0.39761  0.00000  0.20478
       9     H     0.40890  0.40890  0.00000  0.18220
      10     H     0.41668  0.41668  0.00000  0.16664
      11     H     0.40909  0.40909  0.00000  0.18181

   Total alpha = 20.00000, Total beta = 20.00000, Total charge = -0.00000
