  ==> Input File <==

--------------------------------------------------------------------------
set {
	reference rhf
	basis 6-31G*
}

set_num_threads( 4 )
memory 2 gb

molecule MOL {
0 1

O	 -2.821601	 1.309235	 -0.001213
C	 -2.668563	 0.129746	 -0.000350
C	 -3.801572	 -0.864014	 -0.000442
O	 -1.481751	 -0.454642	 0.000584
H	 -4.417280	 -0.689587	 -0.874708
H	 -3.443784	 -1.883046	 -0.000565
H	 -4.417179	 -0.689832	 0.873954
C	 -0.334255	 0.388708	 0.000906
C	 0.891947	 -0.504646	 0.000751
H	 -0.365390	 1.025305	 -0.873475
H	 -0.365484	 1.024911	 0.875569
C	 2.191998	 0.301789	 0.000897
H	 0.855148	 -1.151283	 -0.871571
H	 0.855132	 -1.151660	 0.872805
C	 3.441114	 -0.581407	 0.000108
H	 2.215074	 0.954890	 -0.869742
H	 2.215465	 0.953923	 0.872248
C	 3.450600	 -1.597886	 -1.140745
H	 3.511689	 -1.104670	 0.951050
H	 4.325782	 0.047622	 -0.068849
H	 2.594775	 -2.264104	 -1.079649
H	 4.347518	 -2.208698	 -1.114605
H	 3.415332	 -1.103166	 -2.107191

	symmetry c1
}
set optking {
	frozen_dihedral = ("
		19 15 12 16
	")
}

ee = optimize('scf')
oeprop('DIPOLE', 'QUADRUPOLE', 'MULLIKEN_CHARGES')
f=open( 'psi4out.xyz', 'w' )
f.write( "23  " )
f.write( str(ee) + "\n" )
f.write( MOL.save_string_xyz() )
f.close()
--------------------------------------------------------------------------

    Molecular point group: c1
  Charge       = 0
  Multiplicity = 1
  Basis Set: 6-31G*
  Basis Set:
  @DF-RHF Final Energy:  -422.97636569083454
    Total Energy =                       -422.9763656908347684
    Molecular point group: c1
  Basis Set: 6-31G*
  Basis Set:
  Basis Set: 6-31G*
  Basis Set:
  @DF-RHF Final Energy:  -422.97698550820445
    Total Energy =                       -422.9769855082049617
  Basis Set: 6-31G*
  Basis Set:
  Basis Set: 6-31G*
  Basis Set:
  @DF-RHF Final Energy:  -422.97764752838049
    Total Energy =                       -422.9776475283808850
  Basis Set: 6-31G*
  Basis Set:
  Basis Set: 6-31G*
  Basis Set:
  @DF-RHF Final Energy:  -422.97769449205799
    Total Energy =                       -422.9776944920582764
  Basis Set: 6-31G*
  Basis Set:
  Basis Set: 6-31G*
  Basis Set:
  @DF-RHF Final Energy:  -422.97739144246424
    Total Energy =                       -422.9773914424641816
  Basis Set: 6-31G*
  Basis Set:
  Basis Set: 6-31G*
  Basis Set:
  @DF-RHF Final Energy:  -422.97770512900394
    Total Energy =                       -422.9777051290036525
  Basis Set: 6-31G*
  Basis Set:
  Basis Set: 6-31G*
  Basis Set:
  @DF-RHF Final Energy:  -422.97770780118657
    Total Energy =                       -422.9777078011870799
  Basis Set: 6-31G*
  Basis Set:
  Charge       = 0
  Multiplicity = 1
  Basis Set: 6-31G*
  Basis Set:

    Orbital Energies (a.u.)
    -----------------------

    Doubly Occupied:

       1A    -20.602984     2A    -20.540525     3A    -11.374081
       4A    -11.281498     5A    -11.232391     6A    -11.224447
       7A    -11.223691     8A    -11.222029     9A    -11.213056
      10A     -1.467949    11A     -1.360732    12A     -1.094077
      13A     -1.041026    14A     -1.001836    15A     -0.931398
      16A     -0.855291    17A     -0.792077    18A     -0.771055
      19A     -0.691340    20A     -0.684983    21A     -0.669905
      22A     -0.636817    23A     -0.614681    24A     -0.600421
      25A     -0.575258    26A     -0.571016    27A     -0.547872
      28A     -0.538179    29A     -0.525926    30A     -0.507881
      31A     -0.497416    32A     -0.469770    33A     -0.467983
      34A     -0.466387    35A     -0.451241    36A     -0.435322

  @DF-RHF Final Energy:  -422.97770827441309

   => Energetics <=

    Nuclear Repulsion Energy =            454.3350152125412933
    One-Electron Energy =               -1476.2603633214703223
    Two-Electron Energy =                 598.9476398345160533
    DFT Exchange-Correlation Energy =       0.0000000000000000
    Empirical Dispersion Energy =           0.0000000000000000
    PCM Polarization Energy =               0.0000000000000000
    EFP Energy =                            0.0000000000000000
    Total Energy =                       -422.9777082744129757
    Molecular point group: c1
  Basis Set: 6-31G*
  Basis Set:

  -Total Gradient:
     Atom            X                  Y                   Z
    ------   -----------------  -----------------  -----------------
       1       -0.000001230905    -0.000001863488    -0.000003475113
       2       -0.000000990893     0.000002014021     0.000011116761
       3        0.000001463835     0.000000922985     0.000001551767
       4       -0.000000108544    -0.000002214055    -0.000012571056
       5       -0.000000181448    -0.000001559373    -0.000002564609
       6        0.000000645545     0.000000054581    -0.000000643424
       7        0.000001148926     0.000002455445    -0.000002192199
       8       -0.000002874069    -0.000004857213     0.000006229279
       9       -0.000015097145    -0.000009481210     0.000011867457
      10       -0.000003481817     0.000003545100    -0.000003118703
      11        0.000005861199    -0.000002052255    -0.000003292868
      12       -0.000788381608    -0.001275706047    -0.001038687610
      13       -0.000006853198     0.000001498344     0.000006779526
      14       -0.000011018154    -0.000001995164     0.000004105606
      15       -0.000934765659    -0.001440865046    -0.000638976447
      16        0.000832930399     0.001311079306     0.000979270430
      17        0.000009280012     0.000000830120    -0.000000256770
      18        0.000001094163    -0.000010254522    -0.000005542379
      19        0.000900908246     0.001432167254     0.000686304432
      20        0.000001937590     0.000001356747     0.000007193354
      21        0.000010972058    -0.000007948191    -0.000002101071
      22        0.000003599726     0.000003181569    -0.000003167024
      23       -0.000004858259    -0.000000308911     0.000002170661

  **** Optimization is complete! (in 8 steps) ****
    Final optimized geometry and variables:
    Molecular point group: c1

    Geometry (in Angstrom), charge = 0, multiplicity = 1:

    O           -2.673902586406     1.542693623926     0.224144336829
    C           -2.538591689615     0.362406027484     0.167191605128
    C           -3.686263501023    -0.614138376503     0.145083126538
    O           -1.360986618387    -0.238159385193     0.116279423943
    H           -4.317587095047    -0.389888683208    -0.706380439832
    H           -3.344033255156    -1.636989218040     0.089361322536
    H           -4.280562414709    -0.472811501953     1.039912754502
    C           -0.201026656790     0.587899243114     0.131539852177
    C            1.011361134092    -0.321913274648     0.063660111563
    H           -0.240059112654     1.264793593139    -0.711828126040
    H           -0.205049330209     1.183167481079     1.034990623772
    C            2.317338104393     0.476054738706     0.053238395885
    H            0.930307960335    -0.937840380263    -0.825652622229
    H            0.993670092512    -0.995352789593     0.916784604152
    C            3.589194727096    -0.377049008608     0.126473330298
    H            2.359214686287     1.107040654968    -0.832893319626
    H            2.320627633137     1.158318963870     0.901301143661
    C            3.739892329156    -1.406247694440    -0.994110440865
    H            3.633288968613    -0.873354056389     1.093489656345
    H            4.443983202130     0.294350732285     0.101257085113
    H            2.977861597659    -2.176713859437    -0.944197207975
    H            4.705044959864    -1.899225935244    -0.933861969168
    H            3.671350574388    -0.934009334382    -1.970563911662

  Mulliken Charges: (a.u.)
   Center  Symbol    Alpha    Beta     Spin     Total
       1     O     4.28391  4.28391  0.00000 -0.56781
       2     C     2.61536  2.61536  0.00000  0.76929
       3     C     3.28774  3.28774  0.00000 -0.57548
       4     O     4.31279  4.31279  0.00000 -0.62558
       5     H     0.39749  0.39749  0.00000  0.20501
       6     H     0.39990  0.39990  0.00000  0.20019
       7     H     0.39750  0.39750  0.00000  0.20500
       8     C     2.99531  2.99531  0.00000  0.00939
       9     C     3.16694  3.16694  0.00000 -0.33388
      10     H     0.41065  0.41065  0.00000  0.17869
      11     H     0.41065  0.41065  0.00000  0.17871
      12     C     3.16180  3.16180  0.00000 -0.32361
      13     H     0.41167  0.41167  0.00000  0.17666
      14     H     0.41493  0.41493  0.00000  0.17015
      15     C     3.15190  3.15190  0.00000 -0.30381
      16     H     0.42060  0.42060  0.00000  0.15879
      17     H     0.41962  0.41962  0.00000  0.16077
      18     C     3.24276  3.24276  0.00000 -0.48551
      19     H     0.42148  0.42148  0.00000  0.15703
      20     H     0.41922  0.41922  0.00000  0.16156
      21     H     0.41875  0.41875  0.00000  0.16250
      22     H     0.41764  0.41764  0.00000  0.16472
      23     H     0.42139  0.42139  0.00000  0.15723

   Total alpha = 36.00000, Total beta = 36.00000, Total charge = -0.00000
