  ==> Input File <==

--------------------------------------------------------------------------
set {
	reference rhf
	basis cc-pvtz
}

set_num_threads( 4 )
memory 2 gb

molecule MOL {
0 1

H	 -2.209894	 0.700117	 2.374260
C	 -1.659297	 0.116345	 3.108384
O	 -0.432634	 -0.300933	 2.609670
H	 -1.471315	 0.734648	 3.973978
H	 -2.276849	 -0.727947	 3.409524
C	 -0.517204	 -1.120138	 1.490121
C	 0.867018	 -1.424733	 0.974856
H	 -1.013101	 -2.056799	 1.744523
H	 -1.093636	 -0.638407	 0.703297
O	 1.401606	 -0.295166	 0.366636
H	 1.493500	 -1.748935	 1.803013
H	 0.804792	 -2.244739	 0.259531
C	 2.714315	 -0.441627	 -0.061017
H	 2.765292	 -0.641548	 -1.128869
H	 3.305661	 0.447341	 0.150952
H	 3.143725	 -1.278506	 0.470147

	symmetry c1
}
set optking {
	frozen_dihedral = ("
		7 10 13 14
	")
}

ee = optimize('scf')
oeprop('DIPOLE', 'QUADRUPOLE', 'MULLIKEN_CHARGES')
f=open( 'psi4out.xyz', 'w' )
f.write( "16  " )
f.write( str(ee) + "\n" )
f.write( MOL.save_string_xyz() )
f.close()
--------------------------------------------------------------------------

    Molecular point group: c1
  Charge       = 0
  Multiplicity = 1
  Basis Set: CC-PVTZ
  Basis Set:
  @DF-RHF Final Energy:  -307.09399520038016
    Total Energy =                       -307.0939952003798794
    Molecular point group: c1
  Basis Set: CC-PVTZ
  Basis Set:
  Basis Set: CC-PVTZ
  Basis Set:
  @DF-RHF Final Energy:  -307.09497786197613
    Total Energy =                       -307.0949778619760764
  Basis Set: CC-PVTZ
  Basis Set:
  Basis Set: CC-PVTZ
  Basis Set:
  @DF-RHF Final Energy:  -307.09524617624430
    Total Energy =                       -307.0952461762440748
  Basis Set: CC-PVTZ
  Basis Set:
  Basis Set: CC-PVTZ
  Basis Set:
  @DF-RHF Final Energy:  -307.09524860862558
    Total Energy =                       -307.0952486086256386
  Basis Set: CC-PVTZ
  Basis Set:
  Charge       = 0
  Multiplicity = 1
  Basis Set: CC-PVTZ
  Basis Set:

    Orbital Energies (a.u.)
    -----------------------

    Doubly Occupied:

       1A    -20.547509     2A    -20.545189     3A    -11.267737
       4A    -11.266671     5A    -11.261407     6A    -11.261105
       7A     -1.390048     8A     -1.372290     9A     -1.031888
      10A     -0.937358    11A     -0.892092    12A     -0.824015
      13A     -0.685079    14A     -0.681514    15A     -0.658972
      16A     -0.637133    17A     -0.630594    18A     -0.597766
      19A     -0.553698    20A     -0.537136    21A     -0.509251
      22A     -0.479319    23A     -0.464029    24A     -0.421565
      25A     -0.410959

  @DF-RHF Final Energy:  -307.09524883160987

   => Energetics <=

    Nuclear Repulsion Energy =            258.7002015255581000
    One-Electron Energy =                -931.8622500954829775
    Two-Electron Energy =                 366.0667997383151828
    DFT Exchange-Correlation Energy =       0.0000000000000000
    Empirical Dispersion Energy =           0.0000000000000000
    PCM Polarization Energy =               0.0000000000000000
    EFP Energy =                            0.0000000000000000
    Total Energy =                       -307.0952488316096947
    Molecular point group: c1
  Basis Set: CC-PVTZ
  Basis Set:

  -Total Gradient:
     Atom            X                  Y                   Z
    ------   -----------------  -----------------  -----------------
       1        0.000000192077    -0.000000391542    -0.000000126168
       2       -0.000000936468     0.000000573656     0.000001846280
       3        0.000003647937    -0.000002267934    -0.000001642510
       4       -0.000000994215     0.000000438513     0.000000207518
       5        0.000000343205     0.000000070558    -0.000000561255
       6       -0.000005356593    -0.000006405741    -0.000003754563
       7        0.000657334475     0.000636460412     0.001869981153
       8       -0.000002971279    -0.000000682893     0.000002468972
       9        0.000002986438    -0.000001799791    -0.000000405415
      10       -0.000921786982    -0.000213929997    -0.002798084687
      11        0.000002488341    -0.000000342917     0.000002242040
      12        0.000002654704     0.000011108099     0.000000009209
      13        0.000148762415    -0.002945678590     0.001355320688
      14        0.000099912128     0.002525051216    -0.000426778252
      15        0.000008990129    -0.000000855579    -0.000002296639
      16        0.000004733691    -0.000001347467     0.000001573633

  **** Optimization is complete! (in 5 steps) ****
    Final optimized geometry and variables:
    Molecular point group: c1

    Geometry (in Angstrom), charge = 0, multiplicity = 1:

    H           -2.591813095928     1.298186400151     0.953188374632
    C           -2.050929659511     0.705670634044     1.687520999632
    O           -0.829688645898     0.271217493360     1.190304780079
    H           -1.855474055758     1.320191602222     2.554163737519
    H           -2.681208616592    -0.129904784517     1.986694557126
    C           -0.924284011777    -0.545148637032     0.069490488149
    C            0.456282880374    -0.868821422241    -0.444236665722
    H           -1.433143872171    -1.475400040987     0.322149759509
    H           -1.493286629597    -0.054575719290    -0.717164929487
    O            1.008094088930     0.258949857463    -1.041797753007
    H            1.074431803950    -1.206266576492     0.383781418332
    H            0.379042811471    -1.685155619000    -1.162369853933
    C            2.326537933272     0.134300375701    -1.472802569858
    H            2.368746939245    -0.049358708937    -2.542725912804
    H            2.841009285343     1.065434483298    -1.273393200529
    H            2.851060379382    -0.662783279643    -0.955815261210

  Mulliken Charges: (a.u.)
   Center  Symbol    Alpha    Beta     Spin     Total
       1     H     0.47018  0.47018  0.00000  0.05964
       2     C     3.03202  3.03202  0.00000 -0.06405
       3     O     4.17031  4.17031  0.00000 -0.34062
       4     H     0.44644  0.44644  0.00000  0.10711
       5     H     0.47374  0.47374  0.00000  0.05253
       6     C     2.96274  2.96274  0.00000  0.07453
       7     C     2.95930  2.95930  0.00000  0.08140
       8     H     0.47623  0.47623  0.00000  0.04755
       9     H     0.47094  0.47094  0.00000  0.05812
      10     O     4.17379  4.17379  0.00000 -0.34758
      11     H     0.46946  0.46946  0.00000  0.06108
      12     H     0.47706  0.47706  0.00000  0.04587
      13     C     3.02847  3.02847  0.00000 -0.05694
      14     H     0.46437  0.46437  0.00000  0.07127
      15     H     0.45136  0.45136  0.00000  0.09728
      16     H     0.47359  0.47359  0.00000  0.05283

   Total alpha = 25.00000, Total beta = 25.00000, Total charge = -0.00000
