  ==> Input File <==

--------------------------------------------------------------------------
set {
	reference rhf
	basis cc-pvtz
}

set_num_threads( 4 )
memory 2 gb

molecule MOL {
0 1

H	 3.721907	 -0.933076	 -0.066039
O	 2.824271	 -1.154299	 0.131461
C	 2.076458	 -0.067370	 -0.038225
C	 0.626018	 -0.337582	 0.258241
O	 2.538288	 0.965419	 -0.381593
C	 -0.267326	 0.883135	 0.076490
H	 0.325620	 -1.161483	 -0.378003
H	 0.574537	 -0.713685	 1.275261
C	 -1.726822	 0.642622	 0.463839
H	 -0.210803	 1.217591	 -0.953497
H	 0.129920	 1.693110	 0.675679
C	 -2.480891	 -0.340606	 -0.429852
H	 -2.243098	 1.597649	 0.438609
H	 -1.776542	 0.301208	 1.495542
C	 -3.917089	 -0.571292	 0.029055
H	 -2.484792	 0.035457	 -1.449457
H	 -1.963668	 -1.294368	 -0.457673
H	 -4.429791	 -1.269867	 -0.621954
H	 -4.480901	 0.355430	 0.030115
H	 -3.945809	 -0.975337	 1.035572

	symmetry c1
}
set optking {
	frozen_dihedral = ("
		16 12 9 6
	")
}

ee = optimize('scf')
oeprop('DIPOLE', 'QUADRUPOLE', 'MULLIKEN_CHARGES')
f=open( 'psi4out.xyz', 'w' )
f.write( "20  " )
f.write( str(ee) + "\n" )
f.write( MOL.save_string_xyz() )
f.close()
--------------------------------------------------------------------------

    Molecular point group: c1
  Charge       = 0
  Multiplicity = 1
  Basis Set: CC-PVTZ
  Basis Set:
  @DF-RHF Final Energy:  -384.09489881336754
    Total Energy =                       -384.0948988133668536
    Molecular point group: c1
  Basis Set: CC-PVTZ
  Basis Set:
  Basis Set: CC-PVTZ
  Basis Set:
  @DF-RHF Final Energy:  -384.09486828039070
    Total Energy =                       -384.0948682803910970
  Basis Set: CC-PVTZ
  Basis Set:
  Basis Set: CC-PVTZ
  Basis Set:
  @DF-RHF Final Energy:  -384.09491670468424
    Total Energy =                       -384.0949167046841239
  Basis Set: CC-PVTZ
  Basis Set:
  Basis Set: CC-PVTZ
  Basis Set:
  @DF-RHF Final Energy:  -384.09487687608265
    Total Energy =                       -384.0948768760824237
  Basis Set: CC-PVTZ
  Basis Set:
  Charge       = 0
  Multiplicity = 1
  Basis Set: CC-PVTZ
  Basis Set:

    Orbital Energies (a.u.)
    -----------------------

    Doubly Occupied:

       1A    -20.603882     2A    -20.540497     3A    -11.373457
       4A    -11.238725     5A    -11.221040     6A    -11.218775
       7A    -11.218156     8A    -11.210492     9A     -1.477469
      10A     -1.368975    11A     -1.097486    12A     -1.042354
      13A     -0.962481    14A     -0.870343    15A     -0.817370
      16A     -0.778526    17A     -0.703694    18A     -0.693197
      19A     -0.666449    20A     -0.637103    21A     -0.605991
      22A     -0.595959    23A     -0.577466    24A     -0.555745
      25A     -0.541862    26A     -0.513202    27A     -0.496559
      28A     -0.484575    29A     -0.471223    30A     -0.468561
      31A     -0.458123    32A     -0.446534

  @DF-RHF Final Energy:  -384.09492531911155

   => Energetics <=

    Nuclear Repulsion Energy =            376.5701602090312008
    One-Electron Energy =               -1269.4176335124584512
    Two-Electron Energy =                 508.7525479843156972
    DFT Exchange-Correlation Energy =       0.0000000000000000
    Empirical Dispersion Energy =           0.0000000000000000
    PCM Polarization Energy =               0.0000000000000000
    EFP Energy =                            0.0000000000000000
    Total Energy =                       -384.0949253191115531
    Molecular point group: c1
  Basis Set: CC-PVTZ
  Basis Set:

  -Total Gradient:
     Atom            X                  Y                   Z
    ------   -----------------  -----------------  -----------------
       1       -0.000000160373     0.000000184740    -0.000000068898
       2       -0.000002752470    -0.000000930183    -0.000023526029
       3        0.000002986192     0.000013557267     0.000071336632
       4        0.000013495831     0.000004351198    -0.000025617068
       5        0.000002367297    -0.000004469539    -0.000025076940
       6        0.000237792373    -0.000582937428     0.000452139200
       7       -0.000005109629     0.000004534716     0.000001175896
       8        0.000009374280    -0.000001975844     0.000002132389
       9       -0.000507492245     0.000903617998    -0.000577246755
      10       -0.000006550988     0.000002065777    -0.000006590039
      11       -0.000007318250    -0.000012689397    -0.000001779154
      12        0.001069033102    -0.000812383632    -0.000026448623
      13        0.000012834884     0.000013498051    -0.000005616968
      14       -0.000017262107     0.000004997806    -0.000002690265
      15        0.000035766868    -0.000000224353    -0.000015599744
      16       -0.000855136810     0.000485471532     0.000175545556
      17        0.000015672990    -0.000008385650    -0.000001908576
      18       -0.000000067486    -0.000000716541     0.000004651521
      19        0.000001464632    -0.000006718560     0.000000390595
      20        0.000001061899    -0.000000847958     0.000004797269

  **** Optimization is complete! (in 5 steps) ****
    Final optimized geometry and variables:
    Molecular point group: c1

    Geometry (in Angstrom), charge = 0, multiplicity = 1:

    H            3.725310091275    -0.906706693007    -0.070431263957
    O            2.829969704902    -1.129427463792     0.135674791107
    C            2.074899933749    -0.050078447834    -0.049909522410
    C            0.627562801019    -0.323844546730     0.258532523873
    O            2.528577002864     0.978991345027    -0.414767968730
    C           -0.273739748821     0.888461260664     0.060498401622
    H            0.329512182084    -1.160830364079    -0.361438781941
    H            0.583402040203    -0.682232622467     1.282241337839
    C           -1.731205319645     0.644924156649     0.454870942215
    H           -0.220121160835     1.209306806574    -0.974061833414
    H            0.120099835952     1.708830795587     0.647702545721
    C           -2.493279551951    -0.326399836676    -0.445134581857
    H           -2.249193262389     1.599155365229     0.449076648039
    H           -1.770396214689     0.288182268906     1.481974142694
    C           -3.930257337887    -0.549891194444     0.016192635780
    H           -2.502959852218     0.063304447124    -1.459478979616
    H           -1.983972096539    -1.283598439573    -0.485752394351
    H           -4.453832188024    -1.229739128278    -0.645913163268
    H           -4.483664993898     0.382946948073     0.037485618528
    H           -3.959479300512    -0.972762258741     1.014892828903

  Mulliken Charges: (a.u.)
   Center  Symbol    Alpha    Beta     Spin     Total
       1     H     0.38237  0.38237  0.00000  0.23526
       2     O     4.16029  4.16029  0.00000 -0.32057
       3     C     2.80329  2.80329  0.00000  0.39342
       4     C     3.11183  3.11183  0.00000 -0.22366
       5     O     4.19127  4.19127  0.00000 -0.38254
       6     C     3.09240  3.09240  0.00000 -0.18479
       7     H     0.43742  0.43742  0.00000  0.12515
       8     H     0.43784  0.43784  0.00000  0.12433
       9     C     3.09970  3.09970  0.00000 -0.19939
      10     H     0.44582  0.44582  0.00000  0.10837
      11     H     0.43942  0.43942  0.00000  0.12116
      12     C     3.08549  3.08549  0.00000 -0.17099
      13     H     0.44479  0.44479  0.00000  0.11042
      14     H     0.45480  0.45480  0.00000  0.09039
      15     C     3.14977  3.14977  0.00000 -0.29955
      16     H     0.45253  0.45253  0.00000  0.09495
      17     H     0.45464  0.45464  0.00000  0.09071
      18     H     0.44770  0.44770  0.00000  0.10461
      19     H     0.45372  0.45372  0.00000  0.09256
      20     H     0.45491  0.45491  0.00000  0.09017

   Total alpha = 32.00000, Total beta = 32.00000, Total charge =  0.00000
