                              Psi4 1.0.54 Driver

  ==> Input File <==

--------------------------------------------------------------------------
set {
	reference rhf
	basis cc-pvtz
}

set_num_threads( 4 )
memory 2 gb

molecule MOL {
0 1

O	 -1.510770	 1.240811	 -0.054933
C	 -1.081510	 0.147522	 0.122720
C	 0.327029	 -0.064006	 0.641890
C	 -1.903028	 -1.084121	 -0.174656
C	 1.349460	 -0.017068	 -0.500215
H	 0.399029	 -1.014606	 1.159950
H	 0.538021	 0.726928	 1.350471
C	 2.755460	 0.308971	 -0.009700
H	 1.361911	 -0.970442	 -1.020563
H	 1.029464	 0.726324	 -1.220838
H	 3.454883	 0.347107	 -0.836370
H	 3.110815	 -0.438748	 0.691293
H	 2.780025	 1.270688	 0.490668
H	 -1.341891	 -1.779207	 -0.789259
H	 -2.820449	 -0.808163	 -0.671328
H	 -2.133314	 -1.593056	 0.755831

	symmetry c1
}
set optking {
	frozen_dihedral = ("
		9 5 3 2
	")
}

ee,wfn = optimize('scf', return_wfn=True)
oeprop( wfn, 'DIPOLE', 'QUADRUPOLE', 'MULLIKEN_CHARGES')
f=open( 'psi4out.xyz', 'w' )
f.write( "16  " )
f.write( str(ee) + "\n" )
f.write( MOL.save_string_xyz() )
f.close()
--------------------------------------------------------------------------

    Molecular point group: c1
  Charge       = 0
  Multiplicity = 1
  Basis Set: CC-PVTZ
  Basis Set:
  @DF-RHF Final Energy:  -270.12780165906838
    Total Energy =                       -270.1278016590679840
    Molecular point group: c1
  Basis Set: CC-PVTZ
  Basis Set:
  Basis Set: CC-PVTZ
  Basis Set:
  @DF-RHF Final Energy:  -270.12798155613746
    Total Energy =                       -270.1279815561373994
  Basis Set: CC-PVTZ
  Basis Set:
  Basis Set: CC-PVTZ
  Basis Set:
  @DF-RHF Final Energy:  -270.12749700739107
    Total Energy =                       -270.1274970073911845
  Basis Set: CC-PVTZ
  Basis Set:
  Basis Set: CC-PVTZ
  Basis Set:
  @DF-RHF Final Energy:  -270.12804207775139
    Total Energy =                       -270.1280420777515019
  Basis Set: CC-PVTZ
  Basis Set:
  @DF-RHF Final Energy:  -270.12805841925234
    Total Energy =                       -270.1280584192520564
  Basis Set: CC-PVTZ
  Basis Set:
  @DF-RHF Final Energy:  -270.12806837367049
    Total Energy =                       -270.1280683736706010
  Basis Set: CC-PVTZ
  Basis Set:
  Basis Set: CC-PVTZ
  Basis Set:
  @DF-RHF Final Energy:  -270.12807484176409
    Total Energy =                       -270.1280748417643736
  Basis Set: CC-PVTZ
  Basis Set:
  Basis Set: CC-PVTZ
  Basis Set:
  @DF-RHF Final Energy:  -270.12807988217833
    Total Energy =                       -270.1280798821783833
  Basis Set: CC-PVTZ
  Basis Set:
  Charge       = 0
  Multiplicity = 1
  Basis Set: CC-PVTZ
  Basis Set:

    Orbital Energies (a.u.)
    -----------------------

    Doubly Occupied:

       1A    -20.537436     2A    -11.319651     3A    -11.232853
       4A    -11.228274     5A    -11.226913     6A    -11.217535
       7A     -1.397517     8A     -1.083812     9A     -1.013463
      10A     -0.950216    11A     -0.830644    12A     -0.736568
      13A     -0.662675    14A     -0.648487    15A     -0.617630
      16A     -0.608414    17A     -0.576715    18A     -0.556140
      19A     -0.541432    20A     -0.518292    21A     -0.503119
      22A     -0.485881    23A     -0.475566    24A     -0.400514

  @DF-RHF Final Energy:  -270.12808018325370

   => Energetics <=

    Nuclear Repulsion Energy =            237.5344377248915464
    One-Electron Energy =                -836.5855421720218601
    Two-Electron Energy =                 328.9230242638766413
    DFT Exchange-Correlation Energy =       0.0000000000000000
    Empirical Dispersion Energy =           0.0000000000000000
    PCM Polarization Energy =               0.0000000000000000
    EFP Energy =                            0.0000000000000000
    Total Energy =                       -270.1280801832537009
    Molecular point group: c1
  Basis Set: CC-PVTZ
  Basis Set:

  -Total Gradient:
     Atom            X                  Y                   Z
    ------   -----------------  -----------------  -----------------
       1        0.000009084432    -0.000017755423    -0.000004667903
       2        0.000252883861     0.002462267397     0.000137731723
       3        0.000199663471    -0.003572456502     0.000365220453
       4       -0.000008370905    -0.000008198197     0.000038265016
       5       -0.002921743166     0.002097293036    -0.002602739305
       6        0.000000178352     0.000009033723     0.000001051940
       7       -0.000004559813    -0.000017799491    -0.000017427083
       8        0.000002154010    -0.000003303592    -0.000008040159
       9        0.002455082620    -0.000960432323     0.002129736408
      10        0.000008237525     0.000002541957    -0.000006695981
      11        0.000005296835     0.000000364913    -0.000003818718
      12       -0.000004768313    -0.000004336797    -0.000000143717
      13       -0.000005623522     0.000003223502    -0.000002047264
      14       -0.000011002949     0.000006371532     0.000003344534
      15        0.000011705102     0.000000225525    -0.000000777890
      16        0.000011782463     0.000002960739    -0.000028992054

  **** Optimization is complete! (in 9 steps) ****
    Final optimized geometry and variables:
    Molecular point group: c1

    Geometry (in Angstrom), charge = 0, multiplicity = 1:

    O           -1.582379468097     1.145218447963     0.100094350308
    C           -1.081465814234     0.069612218144     0.155820090928
    C            0.343979009085    -0.104063817021     0.640377905618
    C           -1.827884641215    -1.173108045573    -0.268762873445
    C            1.343485893550    -0.132511417585    -0.528435042986
    H            0.439709942348    -1.009907107306     1.229401669898
    H            0.559306763267     0.741929640583     1.279660615252
    C            2.764150830463     0.187890069792    -0.072377745860
    H            1.346764018979    -1.117737197673    -0.982941247914
    H            1.038705991387     0.579247095228    -1.286923264829
    H            3.460064375353     0.126446882579    -0.900754343507
    H            3.095820877542    -0.507402728963     0.691621548707
    H            2.824110450114     1.188249629200     0.340613057674
    H           -1.237841129612    -1.754241712380    -0.968367627109
    H           -2.771907907152    -0.904036427390    -0.717010687717
    H           -2.004711364812    -1.799174220358     0.599825598705

  Mulliken Charges: (a.u.)
   Center  Symbol    Alpha    Beta     Spin     Total
       1     O     4.17546  4.17546  0.00000 -0.35092
       2     C     2.85889  2.85889  0.00000  0.28222
       3     C     3.09750  3.09750  0.00000 -0.19501
       4     C     3.15454  3.15454  0.00000 -0.30909
       5     C     3.09356  3.09356  0.00000 -0.18711
       6     H     0.44859  0.44859  0.00000  0.10283
       7     H     0.44039  0.44039  0.00000  0.11922
       8     C     3.14696  3.14696  0.00000 -0.29393
       9     H     0.45269  0.45269  0.00000  0.09462
      10     H     0.44364  0.44364  0.00000  0.11272
      11     H     0.44693  0.44693  0.00000  0.10614
      12     H     0.45471  0.45471  0.00000  0.09059
      13     H     0.45049  0.45049  0.00000  0.09901
      14     H     0.45083  0.45083  0.00000  0.09834
      15     H     0.43578  0.43578  0.00000  0.12845
      16     H     0.44904  0.44904  0.00000  0.10192

   Total alpha = 24.00000, Total beta = 24.00000, Total charge = -0.00000

*** Psi4 exiting successfully. Buy a developer a beer!
