  ==> Input File <==

--------------------------------------------------------------------------
set {
	reference rhf
	basis cc-pvtz
}

set_num_threads( 4 )
memory 2 gb

molecule MOL {
0 1

O	 -0.466383	 0.133050	 -0.703727
C	 0.485107	 0.171416	 -0.000134
C	 1.606966	 -0.836201	 0.000174
O	 0.691433	 1.122109	 0.894404
C	 2.988788	 -0.202529	 -0.000115
H	 1.465110	 -1.474645	 -0.864821
H	 1.465209	 -1.474077	 0.865596
H	 3.131767	 0.419673	 -0.873407
H	 3.750876	 -0.972315	 0.000098
H	 3.131883	 0.420264	 0.872742
C	 -0.285516	 2.147064	 1.009837
C	 0.171826	 3.101503	 2.087971
H	 -1.238944	 1.700089	 1.253837
H	 -0.388802	 2.645426	 0.056270
H	 0.272623	 2.591233	 3.037622
H	 -0.553408	 3.898492	 2.202326
H	 1.127561	 3.542010	 1.833227

	symmetry c1
}
set optking {
	frozen_dihedral = ("
		4 2 3 6
	")
}

ee = optimize('scf')
oeprop('DIPOLE', 'QUADRUPOLE', 'MULLIKEN_CHARGES')
f=open( 'psi4out.xyz', 'w' )
f.write( "17  " )
f.write( str(ee) + "\n" )
f.write( MOL.save_string_xyz() )
f.close()
--------------------------------------------------------------------------

    Molecular point group: c1
  Charge       = 0
  Multiplicity = 1
  Basis Set: CC-PVTZ
  Basis Set:
  @DF-RHF Final Energy:  -345.03845267652684
    Total Energy =                       -345.0384526765272994
    Molecular point group: c1
  Basis Set: CC-PVTZ
  Basis Set:
  Basis Set: CC-PVTZ
  Basis Set:
  @DF-RHF Final Energy:  -345.03851974969837
    Total Energy =                       -345.0385197496981391
  Basis Set: CC-PVTZ
  Basis Set:
  Basis Set: CC-PVTZ
  Basis Set:
  @DF-RHF Final Energy:  -345.03876543116991
    Total Energy =                       -345.0387654311701908
  Basis Set: CC-PVTZ
  Basis Set:
  Basis Set: CC-PVTZ
  Basis Set:
  @DF-RHF Final Energy:  -345.03883884970890
    Total Energy =                       -345.0388388497086112
  Basis Set: CC-PVTZ
  Basis Set:
  Charge       = 0
  Multiplicity = 1
  Basis Set: CC-PVTZ
  Basis Set:

    Orbital Energies (a.u.)
    -----------------------

    Doubly Occupied:

       1A    -20.594586     2A    -20.531053     3A    -11.363038
       4A    -11.283004     5A    -11.235567     6A    -11.221602
       7A    -11.220911     8A     -1.470701     9A     -1.363648
      10A     -1.073679    11A     -1.031095    12A     -0.907470
      13A     -0.859273    14A     -0.779802    15A     -0.694394
      16A     -0.680758    17A     -0.675207    18A     -0.625443
      19A     -0.587938    20A     -0.574781    21A     -0.553533
      22A     -0.546535    23A     -0.525213    24A     -0.512021
      25A     -0.505640    26A     -0.494860    27A     -0.455794
      28A     -0.434350

  @DF-RHF Final Energy:  -345.03884045011262

   => Energetics <=

    Nuclear Repulsion Energy =            317.8188151633748930
    One-Electron Energy =               -1100.1115152975446563
    Two-Electron Energy =                 437.2538596840567493
    DFT Exchange-Correlation Energy =       0.0000000000000000
    Empirical Dispersion Energy =           0.0000000000000000
    PCM Polarization Energy =               0.0000000000000000
    EFP Energy =                            0.0000000000000000
    Total Energy =                       -345.0388404501130140
    Molecular point group: c1
  Basis Set: CC-PVTZ
  Basis Set:

  -Total Gradient:
     Atom            X                  Y                   Z
    ------   -----------------  -----------------  -----------------
       1        0.000053624565     0.000140665076     0.000131080061
       2       -0.000364747318    -0.000502482517     0.000313273664
       3       -0.000167318763    -0.000236302891     0.000296471387
       4        0.000204521462     0.000331534199    -0.000402508243
       5       -0.000097619519    -0.000059512695    -0.000036880308
       6        0.000360741824     0.000349043506    -0.000343729572
       7       -0.000030123475    -0.000053783310     0.000009854724
       8        0.000014181218     0.000003501486     0.000028158196
       9        0.000019890133    -0.000003263042     0.000005492326
      10        0.000000730884     0.000016833030    -0.000008716905
      11        0.000055323316    -0.000022256815    -0.000008425801
      12       -0.000027013383     0.000030568051     0.000005842482
      13       -0.000021928524    -0.000004179016     0.000003878426
      14       -0.000001934969     0.000006378230     0.000005589280
      15       -0.000001390457    -0.000002936380    -0.000006939248
      16        0.000002646026     0.000009196651     0.000009911223
      17        0.000000416981    -0.000003003561    -0.000002351694

  **** Optimization is complete! (in 5 steps) ****
    Final optimized geometry and variables:
    Molecular point group: c1

    Geometry (in Angstrom), charge = 0, multiplicity = 1:

    O           -1.198019666149    -0.687975773186    -1.173947952259
    C           -0.243131643028    -0.638444345010    -0.474876386275
    C            0.867724573583    -1.659644993119    -0.483114210054
    O           -0.047391870876     0.315856536902     0.417445521393
    C            2.274215962564    -1.065600525278    -0.485318070572
    H            0.708722729669    -2.282808137309    -1.350689228162
    H            0.731137010324    -2.280349317553     0.396975351558
    H            2.426950907346    -0.426472917932    -1.347222081685
    H            3.008836723614    -1.860038539096    -0.527477137584
    H            2.456857472032    -0.480009242965     0.404405371209
    C           -1.041788976828     1.323507337589     0.538684840664
    C           -0.594051025476     2.288561267391     1.611397186189
    H           -1.984940581213     0.859476009776     0.790419971034
    H           -1.161035295286     1.817329331777    -0.415210000063
    H           -0.476285929366     1.782389310295     2.561313451018
    H           -1.333521865459     3.071714133823     1.729926870482
    H            0.350909478054     2.747168564706     1.348370675166

  Mulliken Charges: (a.u.)
   Center  Symbol    Alpha    Beta     Spin     Total
       1     O     4.19938  4.19938  0.00000 -0.39875
       2     C     2.80990  2.80990  0.00000  0.38020
       3     C     3.08539  3.08539  0.00000 -0.17078
       4     O     4.15269  4.15269  0.00000 -0.30537
       5     C     3.14715  3.14715  0.00000 -0.29429
       6     H     0.43571  0.43571  0.00000  0.12858
       7     H     0.44786  0.44786  0.00000  0.10427
       8     H     0.45142  0.45142  0.00000  0.09716
       9     H     0.44840  0.44840  0.00000  0.10319
      10     H     0.44599  0.44599  0.00000  0.10802
      11     C     2.97787  2.97787  0.00000  0.04425
      12     C     3.13405  3.13405  0.00000 -0.26810
      13     H     0.45342  0.45342  0.00000  0.09316
      14     H     0.45418  0.45418  0.00000  0.09165
      15     H     0.45154  0.45154  0.00000  0.09692
      16     H     0.45373  0.45373  0.00000  0.09255
      17     H     0.45133  0.45133  0.00000  0.09734

   Total alpha = 28.00000, Total beta = 28.00000, Total charge =  0.00000
