  ==> Input File <==

--------------------------------------------------------------------------
set {
	reference rhf
	basis 6-31G*
}

set_num_threads( 1 )
memory 2 gb

molecule MOL {
0 1

H	 3.893188	 0.355400	 -0.101367
N	 3.092854	 -0.246221	 -0.068770
C	 1.865559	 0.531981	 0.018834
H	 3.199514	 -0.826043	 0.741946
C	 0.645745	 -0.382037	 -0.029944
H	 1.841966	 1.207024	 -0.831236
H	 1.815756	 1.155410	 0.915079
C	 -0.679275	 0.379305	 0.025956
H	 0.698998	 -0.976915	 -0.937203
H	 0.693479	 -1.083846	 0.802235
C	 -1.901500	 -0.540046	 0.062464
H	 -0.753660	 1.037904	 -0.838083
H	 -0.691847	 1.025159	 0.902633
C	 -3.223448	 0.224998	 0.114159
H	 -1.891770	 -1.185360	 -0.813144
H	 -1.831249	 -1.197623	 0.926358
H	 -3.339167	 0.866863	 -0.754712
H	 -4.070455	 -0.453665	 0.138630
H	 -3.278276	 0.854216	 0.998167

	symmetry c1
}
set optking {
	frozen_dihedral = ("
		6 3 5 9,
		12 8 11 15,
		1 2 3 6
	")
}

ee = energy('scf')
oeprop('DIPOLE', 'QUADRUPOLE', 'MULLIKEN_CHARGES')
f=open( 'psi4out.xyz', 'w' )
f.write( "19  " )
f.write( str(ee) + "\n" )
f.write( MOL.save_string_xyz() )
f.close()
--------------------------------------------------------------------------

    Molecular point group: c1

    Geometry (in Angstrom), charge = 0, multiplicity = 1:

       Center              X                  Y                   Z               Mass
    ------------   -----------------  -----------------  -----------------  -----------------
           H          3.892592693981     0.356465646324    -0.129986926228     1.007825032070
           N          3.092258693981    -0.245155353676    -0.097389926228    14.003074004780
           C          1.864963693981     0.533046646324    -0.009785926228    12.000000000000
           H          3.198918693981    -0.824977353676     0.713326073772     1.007825032070
           C          0.645149693981    -0.380971353676    -0.058563926228    12.000000000000
           H          1.841370693981     1.208089646324    -0.859855926228     1.007825032070
           H          1.815160693981     1.156475646324     0.886459073772     1.007825032070
           C         -0.679870306019     0.380370646324    -0.002663926228    12.000000000000
           H          0.698402693981    -0.975849353676    -0.965822926228     1.007825032070
           H          0.692883693981    -1.082780353676     0.773615073772     1.007825032070
           C         -1.902095306019    -0.538980353676     0.033844073772    12.000000000000
           H         -0.754255306019     1.038969646324    -0.866702926228     1.007825032070
           H         -0.692442306019     1.026224646324     0.874013073772     1.007825032070
           C         -3.224043306019     0.226063646324     0.085539073772    12.000000000000
           H         -1.892365306019    -1.184294353676    -0.841763926228     1.007825032070
           H         -1.831844306019    -1.196557353676     0.897738073772     1.007825032070
           H         -3.339762306019     0.867928646324    -0.783331926228     1.007825032070
           H         -4.071050306019    -0.452599353676     0.110010073772     1.007825032070
           H         -3.278871306019     0.855281646324     0.969547073772     1.007825032070

  Charge       = 0
  Multiplicity = 1
  Basis Set: 6-31G*
  Basis Set:

    Orbital Energies (a.u.)
    -----------------------

    Doubly Occupied:

       1A    -15.532489     2A    -11.239751     3A    -11.213992
       4A    -11.212730     5A    -11.209447     6A    -11.207526
       7A     -1.176608     8A     -1.072968     9A     -0.998395
      10A     -0.900194    11A     -0.812962    12A     -0.789312
      13A     -0.664902    14A     -0.641952    15A     -0.616443
      16A     -0.588990    17A     -0.564301    18A     -0.548249
      19A     -0.530744    20A     -0.498306    21A     -0.480961
      22A     -0.464966    23A     -0.461092    24A     -0.449597
      25A     -0.381013

  @DF-RHF Final Energy:  -251.35169716279501

   => Energetics <=

    Nuclear Repulsion Energy =            245.6509852998011070
    One-Electron Energy =                -825.4895332179271463
    Two-Electron Energy =                 328.4868507553309200
    DFT Exchange-Correlation Energy =       0.0000000000000000
    Empirical Dispersion Energy =           0.0000000000000000
    PCM Polarization Energy =               0.0000000000000000
    EFP Energy =                            0.0000000000000000
    Total Energy =                       -251.3516971627951762

  Mulliken Charges: (a.u.)
   Center  Symbol    Alpha    Beta     Spin     Total
       1     H     0.33248  0.33248  0.00000  0.33504
       2     N     3.92192  3.92192  0.00000 -0.84383
       3     C     3.06024  3.06024  0.00000 -0.12047
       4     H     0.33536  0.33536  0.00000  0.32928
       5     C     3.15155  3.15155  0.00000 -0.30310
       6     H     0.42087  0.42087  0.00000  0.15826
       7     H     0.43473  0.43473  0.00000  0.13054
       8     C     3.15491  3.15491  0.00000 -0.30982
       9     H     0.41298  0.41298  0.00000  0.17403
      10     H     0.42781  0.42781  0.00000  0.14438
      11     C     3.15089  3.15089  0.00000 -0.30178
      12     H     0.42333  0.42333  0.00000  0.15334
      13     H     0.42499  0.42499  0.00000  0.15002
      14     C     3.23932  3.23932  0.00000 -0.47863
      15     H     0.42190  0.42190  0.00000  0.15620
      16     H     0.42333  0.42333  0.00000  0.15334
      17     H     0.42176  0.42176  0.00000  0.15648
      18     H     0.41937  0.41937  0.00000  0.16125
      19     H     0.42227  0.42227  0.00000  0.15547

   Total alpha = 25.00000, Total beta = 25.00000, Total charge =  0.00000
