                              Psi4 1.0.54 Driver

  ==> Input File <==

--------------------------------------------------------------------------
set {
	reference rhf
	basis cc-pvtz
}

set_num_threads( 4 )
memory 2 gb

molecule MOL {
0 1

O	 0.749630	 1.305591	 -0.000460
C	 0.576499	 0.134701	 -0.003900
C	 -0.765656	 -0.550508	 -0.002152
O	 1.564816	 -0.744612	 -0.000631
C	 -1.945526	 0.411052	 0.000603
H	 -0.794329	 -1.203792	 -0.868145
H	 -0.791555	 -1.205429	 0.862701
C	 -2.289512	 0.901686	 -1.401494
H	 -1.717945	 1.254025	 0.641692
H	 -2.804887	 -0.079187	 0.441674
H	 -1.453013	 1.424960	 -1.852898
H	 -3.130428	 1.584105	 -1.376479
H	 -2.553258	 0.076581	 -2.054921
C	 2.884339	 -0.237801	 0.002883
H	 3.064150	 0.362814	 -0.876312
H	 3.533055	 -1.098529	 0.004958
H	 3.059365	 0.363432	 0.882614

	symmetry c1
}
set optking {
	frozen_dihedral = ("
		9 5 3 6
	")
}

ee,wfn = optimize('scf', return_wfn=True)
oeprop( wfn, 'DIPOLE', 'QUADRUPOLE', 'MULLIKEN_CHARGES')
f=open( 'psi4out.xyz', 'w' )
f.write( "17  " )
f.write( str(ee) + "\n" )
f.write( MOL.save_string_xyz() )
f.close()
--------------------------------------------------------------------------

    Molecular point group: c1
  Charge       = 0
  Multiplicity = 1
  Basis Set: CC-PVTZ
  Basis Set:
  @DF-RHF Final Energy:  -345.03381732652377
    Total Energy =                       -345.0338173265236037
    Molecular point group: c1
  Basis Set: CC-PVTZ
  Basis Set:
  Basis Set: CC-PVTZ
  Basis Set:
  @DF-RHF Final Energy:  -345.03396949989883
    Total Energy =                       -345.0339694998989444
  Basis Set: CC-PVTZ
  Basis Set:
  Basis Set: CC-PVTZ
  Basis Set:
  @DF-RHF Final Energy:  -345.03268705934181
    Total Energy =                       -345.0326870593416402
  Basis Set: CC-PVTZ
  Basis Set:
  Basis Set: CC-PVTZ
  Basis Set:
  @DF-RHF Final Energy:  -345.03409353734673
    Total Energy =                       -345.0340935373467346
  Basis Set: CC-PVTZ
  Basis Set:
  Basis Set: CC-PVTZ
  Basis Set:
  @DF-RHF Final Energy:  -345.03410391512858
    Total Energy =                       -345.0341039151287532
  Basis Set: CC-PVTZ
  Basis Set:
  Basis Set: CC-PVTZ
  Basis Set:
  @DF-RHF Final Energy:  -345.03410671468072
    Total Energy =                       -345.0341067146806608
  Basis Set: CC-PVTZ
  Basis Set:
  Basis Set: CC-PVTZ
  Basis Set:
  @DF-RHF Final Energy:  -345.03410902435405
    Total Energy =                       -345.0341090243542226
  Basis Set: CC-PVTZ
  Basis Set:
  Charge       = 0
  Multiplicity = 1
  Basis Set: CC-PVTZ
  Basis Set:

    Orbital Energies (a.u.)
    -----------------------

    Doubly Occupied:

       1A    -20.597261     2A    -20.535231     3A    -11.365656
       4A    -11.279182     5A    -11.234493     6A    -11.219647
       7A    -11.207207     8A     -1.473350     9A     -1.366818
      10A     -1.080010    11A     -1.000992    12A     -0.938830
      13A     -0.829371    14A     -0.768263    15A     -0.703913
      16A     -0.685315    17A     -0.675961    18A     -0.619619
      19A     -0.616657    20A     -0.568205    21A     -0.567501
      22A     -0.536040    23A     -0.525248    24A     -0.488728
      25A     -0.483640    26A     -0.482513    27A     -0.461046
      28A     -0.441256

  @DF-RHF Final Energy:  -345.03410938060188

   => Energetics <=

    Nuclear Repulsion Energy =            317.6169497958437660
    One-Electron Energy =               -1099.7982108197238631
    Two-Electron Energy =                 437.1471516432781641
    DFT Exchange-Correlation Energy =       0.0000000000000000
    Empirical Dispersion Energy =           0.0000000000000000
    PCM Polarization Energy =               0.0000000000000000
    EFP Energy =                            0.0000000000000000
    Total Energy =                       -345.0341093806019330
    Molecular point group: c1
  Basis Set: CC-PVTZ
  Basis Set:

  -Total Gradient:
     Atom            X                  Y                   Z
    ------   -----------------  -----------------  -----------------
       1        0.000010130038     0.000053360418    -0.000004992150
       2       -0.000005192388    -0.000109053596     0.000007827746
       3       -0.001539410894    -0.001833580607     0.001228707451
       4        0.000007045537     0.000049500007     0.000002528523
       5       -0.000913385704    -0.001074771862     0.002134931004
       6        0.001412553335     0.001704399831    -0.001353418706
       7       -0.000013660134    -0.000000613267     0.000003258898
       8        0.000007546420     0.000009439124    -0.000028481215
       9        0.001035309261     0.001214451134    -0.002005947448
      10       -0.000000807678     0.000004257453     0.000002370089
      11       -0.000002752047    -0.000009471205     0.000000551456
      12        0.000005668371    -0.000009530320     0.000013322148
      13        0.000000124824     0.000009204416     0.000003713380
      14       -0.000033654044    -0.000029630719    -0.000011099512
      15        0.000012594923     0.000011025568    -0.000000871504
      16        0.000007894465     0.000000486859     0.000001694182
      17        0.000009995716     0.000010526767     0.000005905659

  **** Optimization is complete! (in 8 steps) ****
    Final optimized geometry and variables:
    Molecular point group: c1

    Geometry (in Angstrom), charge = 0, multiplicity = 1:

    O            0.608331742106     1.124435681098     0.280892487647
    C            0.430092626477    -0.044611080655     0.223900731679
    C           -0.913740876942    -0.733528292401     0.235566283617
    O            1.415962749721    -0.923193679189     0.150567756046
    C           -2.100306579728     0.226287526766     0.205755536909
    H           -0.923991208282    -1.402243741355    -0.618203861333
    H           -0.930490290195    -1.361815677419     1.119043341501
    C           -2.428342573052     0.728759823546    -1.197876663853
    H           -1.880681080780     1.077306806800     0.836770277785
    H           -2.966288718789    -0.276741632399     0.620710283095
    H           -1.584527081560     1.252350039584    -1.630686927901
    H           -3.266348972105     1.415381621941    -1.175183517954
    H           -2.691470977931    -0.092418425280    -1.857020756781
    C            2.736477288411    -0.419380139087     0.147834465798
    H            2.895299623690     0.229243673680    -0.700838348534
    H            3.382987944366    -1.279556773054     0.084982593207
    H            2.936288404201     0.131711990961     1.054821343796

  Mulliken Charges: (a.u.)
   Center  Symbol    Alpha    Beta     Spin     Total
       1     O     4.19845  4.19845  0.00000 -0.39690
       2     C     2.80517  2.80517  0.00000  0.38966
       3     C     3.10292  3.10292  0.00000 -0.20583
       4     O     4.14660  4.14660  0.00000 -0.29320
       5     C     3.08626  3.08626  0.00000 -0.17251
       6     H     0.44087  0.44087  0.00000  0.11826
       7     H     0.43321  0.43321  0.00000  0.13358
       8     C     3.15041  3.15041  0.00000 -0.30083
       9     H     0.44435  0.44435  0.00000  0.11130
      10     H     0.44746  0.44746  0.00000  0.10509
      11     H     0.44739  0.44739  0.00000  0.10523
      12     H     0.44806  0.44806  0.00000  0.10388
      13     H     0.45823  0.45823  0.00000  0.08353
      14     C     3.03666  3.03666  0.00000 -0.07332
      15     H     0.45436  0.45436  0.00000  0.09128
      16     H     0.44531  0.44531  0.00000  0.10937
      17     H     0.45429  0.45429  0.00000  0.09142

   Total alpha = 28.00000, Total beta = 28.00000, Total charge = -0.00000

*** Psi4 exiting successfully. Buy a developer a beer!
