  ==> Input File <==

--------------------------------------------------------------------------
set {
	reference rhf
	basis cc-pvtz
}

set_num_threads( 4 )
memory 2 gb

molecule MOL {
0 1

H	 -0.963074	 -0.946430	 -0.919693
O	 -1.432053	 -0.565244	 -0.200812
C	 -0.727158	 0.534527	 0.310686
C	 0.680222	 0.664433	 -0.252229
H	 -1.306802	 1.408001	 0.044211
H	 -0.690821	 0.490158	 1.397609
C	 1.605391	 -0.489360	 0.123098
H	 0.615089	 0.745647	 -1.332226
H	 1.101414	 1.597893	 0.110950
H	 1.247627	 -1.432485	 -0.275204
H	 2.601435	 -0.332816	 -0.273062
H	 1.691776	 -0.589902	 1.200774

	symmetry c1
}
set optking {
	frozen_dihedral = ("
		1 2 3 4
	")
}

ee = optimize('scf')
oeprop('DIPOLE', 'QUADRUPOLE', 'MULLIKEN_CHARGES')
f=open( 'psi4out.xyz', 'w' )
f.write( "12  " )
f.write( str(ee) + "\n" )
f.write( MOL.save_string_xyz() )
f.close()
--------------------------------------------------------------------------

    Molecular point group: c1
  Charge       = 0
  Multiplicity = 1
  Basis Set: CC-PVTZ
  Basis Set:
  @DF-RHF Final Energy:  -193.18763474273817
    Total Energy =                       -193.1876347427381688
    Molecular point group: c1
  Basis Set: CC-PVTZ
  Basis Set:
  Basis Set: CC-PVTZ
  Basis Set:
  @DF-RHF Final Energy:  -193.18815350976303
    Total Energy =                       -193.1881535097630831
  Basis Set: CC-PVTZ
  Basis Set:
  Basis Set: CC-PVTZ
  Basis Set:
  @DF-RHF Final Energy:  -193.18836432588236
    Total Energy =                       -193.1883643258823895
  Basis Set: CC-PVTZ
  Basis Set:
  Basis Set: CC-PVTZ
  Basis Set:
  @DF-RHF Final Energy:  -193.18837156634658
    Total Energy =                       -193.1883715663466319
  Basis Set: CC-PVTZ
  Basis Set:
  Basis Set: CC-PVTZ
  Basis Set:
  @DF-RHF Final Energy:  -193.18837584669575
    Total Energy =                       -193.1883758466956351
  Basis Set: CC-PVTZ
  Basis Set:
  Charge       = 0
  Multiplicity = 1
  Basis Set: CC-PVTZ
  Basis Set:

    Orbital Energies (a.u.)
    -----------------------

    Doubly Occupied:

       1A    -20.543641     2A    -11.265478     3A    -11.225230
       4A    -11.216349     5A     -1.362114     6A     -1.055257
       7A     -0.928386     8A     -0.820962     9A     -0.666172
      10A     -0.645976    11A     -0.636907    12A     -0.575259
      13A     -0.549674    14A     -0.512775    15A     -0.492724
      16A     -0.466425    17A     -0.434545

  @DF-RHF Final Energy:  -193.18837617668402

   => Energetics <=

    Nuclear Repulsion Energy =            133.2454240774580398
    One-Electron Energy =                -526.0718507124699954
    Two-Electron Energy =                 199.6380504583280526
    DFT Exchange-Correlation Energy =       0.0000000000000000
    Empirical Dispersion Energy =           0.0000000000000000
    PCM Polarization Energy =               0.0000000000000000
    EFP Energy =                            0.0000000000000000
    Total Energy =                       -193.1883761766839029
    Molecular point group: c1
  Basis Set: CC-PVTZ
  Basis Set:

  -Total Gradient:
     Atom            X                  Y                   Z
    ------   -----------------  -----------------  -----------------
       1        0.000685936768    -0.000857833771     0.000903911310
       2       -0.000973467919     0.001313358532    -0.001398032118
       3        0.000606530425    -0.000955292089     0.001170154220
       4       -0.000310036506     0.000510165636    -0.000657200325
       5       -0.000005485912    -0.000003774856    -0.000007225503
       6        0.000002419877    -0.000004462383    -0.000001051859
       7       -0.000001548481    -0.000000853998    -0.000018419447
       8        0.000003847740    -0.000015863104     0.000013327593
       9       -0.000002040682     0.000012398360    -0.000000203274
      10       -0.000002154706    -0.000008506986    -0.000001195274
      11        0.000007244848     0.000004697169     0.000002367122
      12       -0.000011245452     0.000005967489    -0.000006432445

  **** Optimization is complete! (in 6 steps) ****
    Final optimized geometry and variables:
    Molecular point group: c1

    Geometry (in Angstrom), charge = 0, multiplicity = 1:

    H           -0.978802767045    -0.962374201116    -0.907779964020
    O           -1.441331407192    -0.572394713109    -0.190449229315
    C           -0.729860661528     0.526205088873     0.321037640088
    C            0.680294949149     0.656674943750    -0.232268226784
    H           -1.285541878685     1.431872501087     0.099788873478
    H           -0.695232695799     0.421492978948     1.400301560987
    C            1.608774681768    -0.492949764487     0.151339203306
    H            0.626678452120     0.746836232400    -1.315094712954
    H            1.095683079699     1.591903506066     0.129347657594
    H            1.237643664045    -1.448881455430    -0.200336485892
    H            2.596232432178    -0.349806828648    -0.271054130583
    H            1.713081013454    -0.561604766047     1.228462512767

  Mulliken Charges: (a.u.)
   Center  Symbol    Alpha    Beta     Spin     Total
       1     H     0.39229  0.39229  0.00000  0.21543
       2     O     4.20790  4.20790  0.00000 -0.41579
       3     C     2.95227  2.95227  0.00000  0.09546
       4     C     3.10650  3.10650  0.00000 -0.21301
       5     H     0.46521  0.46521  0.00000  0.06957
       6     H     0.47146  0.47146  0.00000  0.05709
       7     C     3.14228  3.14228  0.00000 -0.28456
       8     H     0.45358  0.45358  0.00000  0.09283
       9     H     0.45073  0.45073  0.00000  0.09853
      10     H     0.45718  0.45718  0.00000  0.08564
      11     H     0.44798  0.44798  0.00000  0.10404
      12     H     0.45262  0.45262  0.00000  0.09477

   Total alpha = 17.00000, Total beta = 17.00000, Total charge = -0.00000
