                              Psi4 1.0.54 Driver

  ==> Input File <==

--------------------------------------------------------------------------
set {
	reference rhf
	basis cc-pvtz
}

set_num_threads( 4 )
memory 2 gb

molecule MOL {
0 1

H	 -0.083868	 -0.213450	 -2.674880
C	 -0.731868	 0.410395	 -2.067792
O	 -0.775228	 0.000056	 -0.739966
H	 -1.738014	 0.325036	 -2.453194
H	 -0.416400	 1.443308	 -2.173634
C	 0.406133	 -0.000384	 0.036994
C	 1.526415	 -0.003194	 -0.997339
C	 0.498772	 1.259027	 0.900673
C	 0.495883	 -1.257378	 0.904465
H	 1.452279	 0.872071	 -1.630204
H	 1.451276	 -0.881020	 -1.626529
H	 2.497919	 -0.002741	 -0.517601
H	 0.368981	 2.144239	 0.289753
H	 1.470064	 1.313479	 1.377660
H	 -0.248448	 1.271586	 1.684297
H	 0.363971	 -2.144195	 0.296316
H	 1.467114	 -1.312636	 1.381470
H	 -0.251246	 -1.265768	 1.688235

	symmetry c1
}
set optking {
	frozen_dihedral = ("
		2 3 6 7
	")
}

ee,wfn = optimize('scf', return_wfn=True)
oeprop( wfn, 'DIPOLE', 'QUADRUPOLE', 'MULLIKEN_CHARGES')
f=open( 'psi4out.xyz', 'w' )
f.write( "18  " )
f.write( str(ee) + "\n" )
f.write( MOL.save_string_xyz() )
f.close()
--------------------------------------------------------------------------

    Molecular point group: c1
  Charge       = 0
  Multiplicity = 1
  Basis Set: CC-PVTZ
  Basis Set:
  @DF-RHF Final Energy:  -271.26050209088226
    Total Energy =                       -271.2605020908820279
    Molecular point group: c1
  Basis Set: CC-PVTZ
  Basis Set:
  Basis Set: CC-PVTZ
  Basis Set:
  @DF-RHF Final Energy:  -271.13274142433124
    Total Energy =                       -271.1327414243313001
  Basis Set: CC-PVTZ
  Basis Set:
  Basis Set: CC-PVTZ
  Basis Set:
  @DF-RHF Final Energy:  -271.23429961631768
    Total Energy =                       -271.2342996163180260
  Basis Set: CC-PVTZ
  Basis Set:
  Basis Set: CC-PVTZ
  Basis Set:
  @DF-RHF Final Energy:  -271.26978257556277
    Total Energy =                       -271.2697825755629992
  Basis Set: CC-PVTZ
  Basis Set:
  @DF-RHF Final Energy:  -271.24833289393666
    Total Energy =                       -271.2483328939367198
  @DF-RHF Final Energy:  -271.27304560016518
    Total Energy =                       -271.2730456001648918
  Basis Set: CC-PVTZ
  Basis Set:
  @DF-RHF Final Energy:  -271.27360576397530
    Total Energy =                       -271.2736057639750697
  Basis Set: CC-PVTZ
  Basis Set:
  Basis Set: CC-PVTZ
  Basis Set:
  @DF-RHF Final Energy:  -271.27364494520390
    Total Energy =                       -271.2736449452037846
  Basis Set: CC-PVTZ
  Basis Set:
  Basis Set: CC-PVTZ
  Basis Set:
  @DF-RHF Final Energy:  -271.27367285148182
    Total Energy =                       -271.2736728514815923
  Basis Set: CC-PVTZ
  Basis Set:
  Charge       = 0
  Multiplicity = 1
  Basis Set: CC-PVTZ
  Basis Set:

    Orbital Energies (a.u.)
    -----------------------

    Doubly Occupied:

       1A    -20.538066     2A    -11.280595     3A    -11.259370
       4A    -11.211234     5A    -11.202846     6A    -11.202220
       7A     -1.370557     8A     -1.075325     9A     -0.951274
      10A     -0.936053    11A     -0.912540    12A     -0.752476
      13A     -0.657713    14A     -0.647914    15A     -0.639027
      16A     -0.585246    17A     -0.576726    18A     -0.550719
      19A     -0.539730    20A     -0.526909    21A     -0.515412
      22A     -0.491468    23A     -0.484950    24A     -0.443461
      25A     -0.400299

  @DF-RHF Final Energy:  -271.27367333796701

   => Energetics <=

    Nuclear Repulsion Energy =            272.2486768898505716
    One-Electron Energy =                -907.5404368969591360
    Two-Electron Energy =                 364.0180866691414394
    DFT Exchange-Correlation Energy =       0.0000000000000000
    Empirical Dispersion Energy =           0.0000000000000000
    PCM Polarization Energy =               0.0000000000000000
    EFP Energy =                            0.0000000000000000
    Total Energy =                       -271.2736733379671250
    Molecular point group: c1
  Basis Set: CC-PVTZ
  Basis Set:

  -Total Gradient:
     Atom            X                  Y                   Z
    ------   -----------------  -----------------  -----------------
       1        0.000002731201    -0.000001001969    -0.000000332026
       2        0.000771586321    -0.002960185430    -0.000032779914
       3       -0.001027289758     0.005598296372    -0.000202873799
       4       -0.000007143734     0.000005855375     0.000001762273
       5        0.000002133553    -0.000002257969    -0.000019218635
       6        0.000026675853    -0.005196115006     0.000406918428
       7        0.000146824202     0.002546377964    -0.000299207914
       8        0.000061574188     0.000015134118     0.000065451455
       9        0.000042840514    -0.000074497593     0.000069871345
      10        0.000019317925     0.000028678708    -0.000038225896
      11       -0.000015817563     0.000014426592     0.000024575186
      12       -0.000016379842    -0.000006721812     0.000002565303
      13        0.000005523036     0.000055082502    -0.000031780418
      14        0.000019373938     0.000023623855     0.000026099630
      15        0.000000086447    -0.000032905976     0.000002067285
      16       -0.000004753140     0.000017707703     0.000022102562
      17       -0.000003364812    -0.000020068294     0.000015782133
      18       -0.000023918324    -0.000011429140    -0.000012776998

  **** Optimization is complete! (in 10 steps) ****
    Final optimized geometry and variables:
    Molecular point group: c1

    Geometry (in Angstrom), charge = 0, multiplicity = 1:

    H            1.026946470351    -0.658103195414    -2.108212496048
    C            0.219687165915     0.061159889684    -2.023714952777
    O           -0.565887177833    -0.146422816613    -0.896607737589
    H           -0.430357137053    -0.058067712426    -2.879044066301
    H            0.642526891472     1.061857172737    -2.060355694160
    C           -0.033259315046    -0.015153257046     0.412410572054
    C            1.491363885133    -0.116976531929     0.469198999660
    C           -0.476613372704     1.346495895435     0.950127742552
    C           -0.666516274265    -1.140435163561     1.222915673251
    H            1.974704839053     0.680450871850    -0.079931276646
    H            1.843104391358    -1.065158826324     0.081198642637
    H            1.811128955339    -0.044908604402     1.501191332574
    H           -0.066169462123     2.147894652271     0.345992455714
    H           -0.147545935979     1.493053044063     1.972858851088
    H           -1.556059453081     1.423217370443     0.920600596405
    H           -0.346498729051    -2.104083293143     0.845642687244
    H           -0.391807923864    -1.070468702480     2.269270714363
    H           -1.745062637797    -1.090349821408     1.145401137714

  Mulliken Charges: (a.u.)
   Center  Symbol    Alpha    Beta     Spin     Total
       1     H     0.46766  0.46766  0.00000  0.06467
       2     C     3.04188  3.04188  0.00000 -0.08376
       3     O     4.19770  4.19770  0.00000 -0.39541
       4     H     0.44258  0.44258  0.00000  0.11484
       5     H     0.47035  0.47035  0.00000  0.05930
       6     C     2.87191  2.87191  0.00000  0.25618
       7     C     3.17591  3.17591  0.00000 -0.35182
       8     C     3.14551  3.14551  0.00000 -0.29102
       9     C     3.14038  3.14038  0.00000 -0.28077
      10     H     0.44427  0.44427  0.00000  0.11145
      11     H     0.44531  0.44531  0.00000  0.10938
      12     H     0.44306  0.44306  0.00000  0.11389
      13     H     0.45124  0.45124  0.00000  0.09752
      14     H     0.45573  0.45573  0.00000  0.08854
      15     H     0.44827  0.44827  0.00000  0.10346
      16     H     0.45193  0.45193  0.00000  0.09615
      17     H     0.45893  0.45893  0.00000  0.08214
      18     H     0.44738  0.44738  0.00000  0.10525

   Total alpha = 25.00000, Total beta = 25.00000, Total charge =  0.00000

*** Psi4 exiting successfully. Buy a developer a beer!
