                              Psi4 1.0.54 Driver

  ==> Input File <==

--------------------------------------------------------------------------
set {
	reference rhf
	basis cc-pvtz
}

set_num_threads( 4 )
memory 2 gb

molecule MOL {
0 1

H	 2.262472	 -1.863595	 0.405282
O	 2.824271	 -1.154299	 0.131461
C	 2.076458	 -0.067370	 -0.038225
C	 0.626018	 -0.337582	 0.258241
O	 2.538288	 0.965419	 -0.381593
C	 -0.267326	 0.883135	 0.076490
H	 0.325620	 -1.161483	 -0.378003
H	 0.574537	 -0.713685	 1.275261
C	 -1.726822	 0.642622	 0.463839
H	 -0.210803	 1.217591	 -0.953497
H	 0.129920	 1.693110	 0.675679
C	 -2.480891	 -0.340606	 -0.429852
H	 -2.243098	 1.597649	 0.438609
H	 -1.776542	 0.301208	 1.495542
C	 -3.955933	 -0.460128	 -0.060472
H	 -2.393755	 -0.020485	 -1.464726
H	 -2.024244	 -1.323637	 -0.374360
H	 -4.467673	 -1.160944	 -0.709827
H	 -4.458917	 0.497287	 -0.144505
H	 -4.076458	 -0.806900	 0.960497

	symmetry c1
}
set optking {
	frozen_dihedral = ("
		1 2 3 5
	")
}

ee,wfn = optimize('scf', return_wfn=True)
oeprop( wfn, 'DIPOLE', 'QUADRUPOLE', 'MULLIKEN_CHARGES')
f=open( 'psi4out.xyz', 'w' )
f.write( "20  " )
f.write( str(ee) + "\n" )
f.write( MOL.save_string_xyz() )
f.close()
--------------------------------------------------------------------------

    Molecular point group: c1
  Charge       = 0
  Multiplicity = 1
  Basis Set: CC-PVTZ
  Basis Set:
  @DF-RHF Final Energy:  -384.08427169511026
    Total Energy =                       -384.0842716951102034
    Molecular point group: c1
  Basis Set: CC-PVTZ
  Basis Set:
  Basis Set: CC-PVTZ
  Basis Set:
  @DF-RHF Final Energy:  -384.08545370934183
    Total Energy =                       -384.0854537093420049
  Basis Set: CC-PVTZ
  Basis Set:
  Basis Set: CC-PVTZ
  Basis Set:
  @DF-RHF Final Energy:  -384.08572597206751
    Total Energy =                       -384.0857259720671664
  Basis Set: CC-PVTZ
  Basis Set:
  Basis Set: CC-PVTZ
  Basis Set:
  @DF-RHF Final Energy:  -384.08572726255733
    Total Energy =                       -384.0857272625574979
  Basis Set: CC-PVTZ
  Basis Set:
  Basis Set: CC-PVTZ
  Basis Set:
  @DF-RHF Final Energy:  -384.08572275156564
    Total Energy =                       -384.0857227515658678
  Basis Set: CC-PVTZ
  Basis Set:
  Basis Set: CC-PVTZ
  Basis Set:
  @DF-RHF Final Energy:  -384.08572892456260
    Total Energy =                       -384.0857289245625452
  Basis Set: CC-PVTZ
  Basis Set:
  Charge       = 0
  Multiplicity = 1
  Basis Set: CC-PVTZ
  Basis Set:

    Orbital Energies (a.u.)
    -----------------------

    Doubly Occupied:

       1A    -20.604224     2A    -20.535632     3A    -11.372308
       4A    -11.249778     5A    -11.226508     6A    -11.223944
       7A    -11.223305     8A    -11.214767     9A     -1.471216
      10A     -1.372882    11A     -1.102557    12A     -1.045364
      13A     -0.961687    14A     -0.867340    15A     -0.833483
      16A     -0.794337    17A     -0.722236    18A     -0.671166
      19A     -0.662628    20A     -0.638209    21A     -0.608724
      22A     -0.605841    23A     -0.576158    24A     -0.564732
      25A     -0.546464    26A     -0.518087    27A     -0.501330
      28A     -0.481462    29A     -0.476533    30A     -0.472868
      31A     -0.463357    32A     -0.442489

  @DF-RHF Final Energy:  -384.08572880547518

   => Energetics <=

    Nuclear Repulsion Energy =            376.6411926891569806
    One-Electron Energy =               -1269.3506088313465625
    Two-Electron Energy =                 508.6236873367143971
    DFT Exchange-Correlation Energy =       0.0000000000000000
    Empirical Dispersion Energy =           0.0000000000000000
    PCM Polarization Energy =               0.0000000000000000
    EFP Energy =                            0.0000000000000000
    Total Energy =                       -384.0857288054752416
    Molecular point group: c1
  Basis Set: CC-PVTZ
  Basis Set:

  -Total Gradient:
     Atom            X                  Y                   Z
    ------   -----------------  -----------------  -----------------
       1        0.000000097874    -0.000005645933    -0.000002293387
       2        0.000009217679    -0.000017220877    -0.000020557813
       3       -0.000006533750     0.000055739532     0.000081653186
       4       -0.000015025599    -0.000004706788    -0.000022313074
       5       -0.000016110366    -0.000024211574    -0.000022505529
       6       -0.000004840006     0.000001460275    -0.000028242621
       7        0.000010700527     0.000007174379     0.000002130005
       8        0.000013539722    -0.000001398802     0.000007130355
       9        0.000015125128    -0.000026127625     0.000012844228
      10        0.000000020656    -0.000001813521    -0.000008913438
      11       -0.000004748790     0.000010718020     0.000000543007
      12       -0.000002832916    -0.000004435219     0.000003996967
      13        0.000014221820     0.000001812384     0.000004259154
      14        0.000004420700    -0.000008665656     0.000001442090
      15       -0.000001543515     0.000009767984    -0.000006729943
      16        0.000002617179    -0.000003248971    -0.000004196943
      17       -0.000017033839     0.000008017825     0.000003540496
      18       -0.000000420788     0.000002693654    -0.000001556259
      19       -0.000003894221     0.000000537579     0.000002019212
      20        0.000003022507    -0.000000446665    -0.000002249694

  **** Optimization is complete! (in 7 steps) ****
    Final optimized geometry and variables:
    Molecular point group: c1

    Geometry (in Angstrom), charge = 0, multiplicity = 1:

    H            2.434025829198    -1.882865614418     0.403173932477
    O            2.900951343602    -1.113584228596     0.128102016013
    C            2.089154910064    -0.064759555284    -0.029759758993
    C            0.629859798037    -0.338390227780     0.260615691575
    O            2.525482582659     0.972405870022    -0.371660002486
    C           -0.263990144803     0.881431523833     0.073668890076
    H            0.321678383026    -1.157768857904    -0.381452433398
    H            0.562333838854    -0.707570350124     1.281532686365
    C           -1.725682195122     0.643280697446     0.453848963199
    H           -0.199118876939     1.212925033187    -0.956248630247
    H            0.133742078777     1.690060325833     0.673481844115
    C           -2.479078818178    -0.336143185477    -0.444799625086
    H           -2.238228472303     1.600024871087     0.426855877314
    H           -1.782265610836     0.301888127025     1.485348525147
    C           -3.955945855056    -0.452471888172    -0.081519468971
    H           -2.386664245406    -0.014609732001    -1.478672239491
    H           -2.025949895444    -1.321237203780    -0.389633208505
    H           -4.466237069741    -1.152914578283    -0.732301923289
    H           -4.456357173996     0.505830973169    -0.169082054997
    H           -4.081821331109    -0.797507223169     0.939404154997

  Mulliken Charges: (a.u.)
   Center  Symbol    Alpha    Beta     Spin     Total
       1     H     0.38847  0.38847  0.00000  0.22307
       2     O     4.14473  4.14473  0.00000 -0.28945
       3     C     2.79989  2.79989  0.00000  0.40022
       4     C     3.13238  3.13238  0.00000 -0.26475
       5     O     4.17646  4.17646  0.00000 -0.35292
       6     C     3.09686  3.09686  0.00000 -0.19373
       7     H     0.44204  0.44204  0.00000  0.11593
       8     H     0.44279  0.44279  0.00000  0.11441
       9     C     3.10005  3.10005  0.00000 -0.20010
      10     H     0.44259  0.44259  0.00000  0.11482
      11     H     0.43628  0.43628  0.00000  0.12744
      12     C     3.08710  3.08710  0.00000 -0.17420
      13     H     0.44436  0.44436  0.00000  0.11128
      14     H     0.45397  0.45397  0.00000  0.09206
      15     C     3.14931  3.14931  0.00000 -0.29862
      16     H     0.45118  0.45118  0.00000  0.09765
      17     H     0.45662  0.45662  0.00000  0.08676
      18     H     0.44732  0.44732  0.00000  0.10536
      19     H     0.45268  0.45268  0.00000  0.09465
      20     H     0.45493  0.45493  0.00000  0.09014

   Total alpha = 32.00000, Total beta = 32.00000, Total charge = -0.00000

*** Psi4 exiting successfully. Buy a developer a beer!
