  ==> Input File <==

--------------------------------------------------------------------------
set {
	reference rhf
	basis cc-pvtz
}

set_num_threads( 4 )
memory 2 gb

molecule MOL {
0 1

H	 -3.020707	 0.071793	 -0.465243
O	 -2.346257	 -0.289210	 0.080372
C	 -1.183935	 0.486039	 -0.009831
C	 0.062853	 -0.375310	 0.027457
H	 -1.178881	 1.094526	 -0.908634
H	 -1.184406	 1.155156	 0.838676
O	 1.172093	 0.457955	 -0.054438
H	 0.052476	 -1.081302	 -0.804627
H	 0.076323	 -0.955658	 0.947560
C	 2.395478	 -0.199028	 -0.000366
H	 2.505946	 -0.901710	 -0.823354
H	 3.174616	 0.545641	 -0.071768
H	 2.513730	 -0.742241	 0.934223

	symmetry c1
}
set optking {
	frozen_dihedral = ("
		1 2 3 5
	")
}

ee = optimize('scf')
oeprop('DIPOLE', 'QUADRUPOLE', 'MULLIKEN_CHARGES')
f=open( 'psi4out.xyz', 'w' )
f.write( "13  " )
f.write( str(ee) + "\n" )
f.write( MOL.save_string_xyz() )
f.close()
--------------------------------------------------------------------------

    Molecular point group: c1
  Charge       = 0
  Multiplicity = 1
  Basis Set: CC-PVTZ
  Basis Set:
  @DF-RHF Final Energy:  -268.06085574144868
    Total Energy =                       -268.0608557414486768
    Molecular point group: c1
  Basis Set: CC-PVTZ
  Basis Set:
  Basis Set: CC-PVTZ
  Basis Set:
  @DF-RHF Final Energy:  -268.06160963045863
    Total Energy =                       -268.0616096304584630
  Basis Set: CC-PVTZ
  Basis Set:
  Basis Set: CC-PVTZ
  Basis Set:
  @DF-RHF Final Energy:  -268.06182602941374
    Total Energy =                       -268.0618260294139077
  Basis Set: CC-PVTZ
  Basis Set:
  Basis Set: CC-PVTZ
  Basis Set:
  @DF-RHF Final Energy:  -268.06183345046765
    Total Energy =                       -268.0618334504675886
  Basis Set: CC-PVTZ
  Basis Set:
  Charge       = 0
  Multiplicity = 1
  Basis Set: CC-PVTZ
  Basis Set:

    Orbital Energies (a.u.)
    -----------------------

    Doubly Occupied:

       1A    -20.552683     2A    -20.551361     3A    -11.267674
       4A    -11.265010     5A    -11.264971     6A     -1.388765
       7A     -1.367612     8A     -1.019483     9A     -0.912073
      10A     -0.833257    11A     -0.714776    12A     -0.682322
      13A     -0.644238    14A     -0.643089    15A     -0.611880
      16A     -0.553928    17A     -0.543872    18A     -0.495325
      19A     -0.475630    20A     -0.442219    21A     -0.421193

  @DF-RHF Final Energy:  -268.06183412665007

   => Energetics <=

    Nuclear Repulsion Energy =            190.5755486502095835
    One-Electron Energy =                -743.9720372751926334
    Two-Electron Energy =                 285.3346544983328954
    DFT Exchange-Correlation Energy =       0.0000000000000000
    Empirical Dispersion Energy =           0.0000000000000000
    PCM Polarization Energy =               0.0000000000000000
    EFP Energy =                            0.0000000000000000
    Total Energy =                       -268.0618341266501261
    Molecular point group: c1
  Basis Set: CC-PVTZ
  Basis Set:

  -Total Gradient:
     Atom            X                  Y                   Z
    ------   -----------------  -----------------  -----------------
       1        0.000350964632    -0.000627793785    -0.000787054644
       2       -0.000545658923     0.001002494105     0.001084358796
       3        0.000647806307    -0.001084241826    -0.000711890908
       4       -0.000020666427    -0.000015651212     0.000010424229
       5       -0.000441224568     0.000682577629     0.000430688000
       6        0.000001543270    -0.000012284963    -0.000003583870
       7        0.000038299504     0.000018267389    -0.000009935328
       8       -0.000008851962     0.000001487236    -0.000011622462
       9       -0.000015986794     0.000026848504    -0.000007478213
      10       -0.000005246405     0.000010371044     0.000011805917
      11       -0.000006045061     0.000002371489    -0.000000079086
      12        0.000006068525    -0.000001173153    -0.000003816916
      13       -0.000001002096    -0.000003272457    -0.000001815517

  **** Optimization is complete! (in 5 steps) ****
    Final optimized geometry and variables:
    Molecular point group: c1

    Geometry (in Angstrom), charge = 0, multiplicity = 1:

    H           -2.997758523110    -0.021323505968    -0.460817212076
    O           -2.307445321887    -0.324523918718     0.096552650035
    C           -1.178748530765     0.500256382929    -0.023670453029
    C            0.055549083931    -0.372722984745     0.005345416991
    H           -1.199029033832     1.071422396058    -0.945455307160
    H           -1.137811174536     1.206818213702     0.798360663221
    O            1.173651334959     0.453131778399    -0.044959227143
    H            0.039999213197    -1.058501345560    -0.839410047927
    H            0.053143397951    -0.970033713051     0.914797514921
    C            2.388647448134    -0.219577868731    -0.006528625387
    H            2.494611144868    -0.897766617529    -0.850281008016
    H            3.177155923498     0.517445577306    -0.051241376139
    H            2.496349838921    -0.793203324433     0.911150000213

  Mulliken Charges: (a.u.)
   Center  Symbol    Alpha    Beta     Spin     Total
       1     H     0.38950  0.38950  0.00000  0.22099
       2     O     4.20471  4.20471  0.00000 -0.40942
       3     C     2.96761  2.96761  0.00000  0.06478
       4     C     2.96071  2.96071  0.00000  0.07859
       5     H     0.47057  0.47057  0.00000  0.05885
       6     H     0.46710  0.46710  0.00000  0.06580
       7     O     4.17647  4.17647  0.00000 -0.35295
       8     H     0.47371  0.47371  0.00000  0.05258
       9     H     0.47052  0.47052  0.00000  0.05895
      10     C     3.03088  3.03088  0.00000 -0.06176
      11     H     0.47096  0.47096  0.00000  0.05808
      12     H     0.44702  0.44702  0.00000  0.10596
      13     H     0.47023  0.47023  0.00000  0.05955

   Total alpha = 21.00000, Total beta = 21.00000, Total charge =  0.00000
