  ==> Input File <==

--------------------------------------------------------------------------
set {
	reference rhf
	basis 6-31G*
}

set_num_threads( 1 )
memory 2 gb

molecule MOL {
0 1

H	 -0.000158	 1.970498	 0.756846
O	 -0.000074	 1.880206	 -0.189275
C	 -0.000015	 0.544847	 -0.545111
C	 -1.278788	 -0.123820	 -0.051541
C	 1.278802	 -0.123718	 -0.051505
H	 -0.000001	 0.490777	 -1.623619
F	 -2.280418	 0.200584	 -0.840872
F	 -1.181290	 -1.436296	 -0.035457
F	 -1.580313	 0.282642	 1.171353
F	 2.323327	 0.466644	 -0.591854
F	 1.326242	 -1.401483	 -0.363667
F	 1.388946	 -0.015632	 1.262939

	symmetry c1
}
set optking {
	frozen_dihedral = ("
		6 3 2 1
	")
}

ee = energy('scf')
oeprop('DIPOLE', 'QUADRUPOLE', 'MULLIKEN_CHARGES')
f=open( 'psi4out.xyz', 'w' )
f.write( "12  " )
f.write( str(ee) + "\n" )
f.write( MOL.save_string_xyz() )
f.close()
--------------------------------------------------------------------------

    Molecular point group: c1

    Geometry (in Angstrom), charge = 0, multiplicity = 1:

       Center              X                  Y                   Z               Mass
    ------------   -----------------  -----------------  -----------------  -----------------
           H          0.000246546854     1.970749560898     0.758235521362     1.007825032070
           O          0.000330546854     1.880457560898    -0.187885478638    15.994914619560
           C          0.000389546854     0.545098560898    -0.543721478638    12.000000000000
           C         -1.278383453146    -0.123568439102    -0.050151478638    12.000000000000
           C          1.279206546854    -0.123466439102    -0.050115478638    12.000000000000
           H          0.000403546854     0.491028560898    -1.622229478638     1.007825032070
           F         -2.280013453146     0.200835560898    -0.839482478638    18.998403224000
           F         -1.180885453146    -1.436044439102    -0.034067478638    18.998403224000
           F         -1.579908453146     0.282893560898     1.172742521362    18.998403224000
           F          2.323731546854     0.466895560898    -0.590464478638    18.998403224000
           F          1.326646546854    -1.401231439102    -0.362277478638    18.998403224000
           F          1.389350546854    -0.015380439102     1.264328521362    18.998403224000

  Charge       = 0
  Multiplicity = 1
  Basis Set: 6-31G*
  Basis Set:

    Orbital Energies (a.u.)
    -----------------------

    Doubly Occupied:

       1A    -26.363607     2A    -26.363473     3A    -26.361931
       4A    -26.359993     5A    -26.358956     6A    -26.357765
       7A    -20.616142     8A    -11.526336     9A    -11.525096
      10A    -11.348810    11A     -1.765068    12A     -1.758757
      13A     -1.662450    14A     -1.658332    15A     -1.657486
      16A     -1.654717    17A     -1.434691    18A     -1.101770
      19A     -0.997095    20A     -0.938422    21A     -0.864437
      22A     -0.862386    23A     -0.852100    24A     -0.844729
      25A     -0.832651    26A     -0.816598    27A     -0.742866
      28A     -0.727730    29A     -0.724653    30A     -0.718536
      31A     -0.688764    32A     -0.687429    33A     -0.682887
      34A     -0.675458    35A     -0.669286    36A     -0.662154
      37A     -0.656621    38A     -0.651460    39A     -0.620931
      40A     -0.551694    41A     -0.505222

  @DF-RHF Final Energy:  -786.27645931148152

   => Energetics <=

    Nuclear Repulsion Energy =            670.6821103316643757
    One-Electron Energy =               -2428.2179603146005320
    Two-Electron Energy =                 971.2593906714521381
    DFT Exchange-Correlation Energy =       0.0000000000000000
    Empirical Dispersion Energy =           0.0000000000000000
    PCM Polarization Energy =               0.0000000000000000
    EFP Energy =                            0.0000000000000000
    Total Energy =                       -786.2764593114841318

  Mulliken Charges: (a.u.)
   Center  Symbol    Alpha    Beta     Spin     Total
       1     H     0.26486  0.26486  0.00000  0.47028
       2     O     4.36322  4.36322  0.00000 -0.72643
       3     C     3.05416  3.05416  0.00000 -0.10833
       4     C     2.43869  2.43869  0.00000  1.12261
       5     C     2.44554  2.44554  0.00000  1.10891
       6     H     0.37382  0.37382  0.00000  0.25236
       7     F     4.67584  4.67584  0.00000 -0.35168
       8     F     4.67333  4.67333  0.00000 -0.34667
       9     F     4.68077  4.68077  0.00000 -0.36155
      10     F     4.67503  4.67503  0.00000 -0.35005
      11     F     4.67351  4.67351  0.00000 -0.34701
      12     F     4.68122  4.68122  0.00000 -0.36244

   Total alpha = 41.00000, Total beta = 41.00000, Total charge = -0.00000
