  ==> Input File <==

--------------------------------------------------------------------------
set {
	reference rhf
	basis 6-31G*
}

set_num_threads( 4 )
memory 2 gb

molecule MOL {
0 1

H	 -3.420663	 1.227371	 -1.044276
O	 -3.452007	 0.283848	 -0.965577
C	 -3.181085	 -0.079926	 0.364119
C	 -1.765924	 0.277073	 0.805136
H	 -3.327791	 -1.152017	 0.410903
H	 -3.905698	 0.375695	 1.036898
C	 -0.677594	 -0.417312	 -0.014550
H	 -1.637766	 1.358238	 0.744969
H	 -1.659588	 0.017670	 1.857098
C	 0.578926	 -0.731648	 0.800023
H	 -0.417334	 0.207499	 -0.863423
H	 -1.080106	 -1.340777	 -0.427576
C	 1.661455	 -1.431934	 -0.025698
H	 0.970149	 0.193016	 1.217588
H	 0.312571	 -1.361026	 1.648282
C	 2.905506	 -1.847365	 0.767970
H	 1.960965	 -0.784789	 -0.848615
H	 1.230548	 -2.320933	 -0.481567
C	 3.727090	 -0.680518	 1.319218
H	 3.542148	 -2.446377	 0.121316
H	 2.608293	 -2.498701	 1.587500
H	 4.027964	 -0.004880	 0.522898
H	 4.629307	 -1.039765	 1.804793
H	 3.172506	 -0.102895	 2.051306

	symmetry c1
}
set optking {
	frozen_dihedral = ("
		11 7 4 3
	")
}

ee = optimize('scf')
oeprop('DIPOLE', 'QUADRUPOLE', 'MULLIKEN_CHARGES')
f=open( 'psi4out.xyz', 'w' )
f.write( "24  " )
f.write( str(ee) + "\n" )
f.write( MOL.save_string_xyz() )
f.close()
--------------------------------------------------------------------------

    Molecular point group: c1
  Charge       = 0
  Multiplicity = 1
  Basis Set: 6-31G*
  Basis Set:
  @DF-RHF Final Energy:  -349.24455955811067
    Total Energy =                       -349.2445595581104953
    Molecular point group: c1
  Basis Set: 6-31G*
  Basis Set:
  Basis Set: 6-31G*
  Basis Set:
  @DF-RHF Final Energy:  -349.24481238107904
    Total Energy =                       -349.2448123810792708
  Basis Set: 6-31G*
  Basis Set:
  Basis Set: 6-31G*
  Basis Set:
  @DF-RHF Final Energy:  -349.24490621864567
    Total Energy =                       -349.2449062186453830
  Basis Set: 6-31G*
  Basis Set:
  Basis Set: 6-31G*
  Basis Set:
  @DF-RHF Final Energy:  -349.24490448798059
    Total Energy =                       -349.2449044879803637
  Basis Set: 6-31G*
  Basis Set:
  Basis Set: 6-31G*
  Basis Set:
  @DF-RHF Final Energy:  -349.24491322665801
    Total Energy =                       -349.2449132266584684
  Basis Set: 6-31G*
  Basis Set:
  Charge       = 0
  Multiplicity = 1
  Basis Set: 6-31G*
  Basis Set:

    Orbital Energies (a.u.)
    -----------------------

    Doubly Occupied:

       1A    -20.552680     2A    -11.267446     3A    -11.217408
       4A    -11.214111     5A    -11.212651     6A    -11.212083
       7A    -11.211528     8A    -11.207418     9A     -1.359361
      10A     -1.088312    11A     -1.047700    12A     -0.985617
      13A     -0.915046    14A     -0.850776    15A     -0.800742
      16A     -0.776400    17A     -0.677899    18A     -0.651553
      19A     -0.629087    20A     -0.616281    21A     -0.602018
      22A     -0.581136    23A     -0.552143    24A     -0.547444
      25A     -0.516555    26A     -0.504668    27A     -0.498921
      28A     -0.474284    29A     -0.468851    30A     -0.460222
      31A     -0.453281    32A     -0.449781    33A     -0.418764

  @DF-RHF Final Energy:  -349.24491276515403

   => Energetics <=

    Nuclear Repulsion Energy =            384.2319153517437371
    One-Electron Energy =               -1234.9093144471867163
    Two-Electron Energy =                 501.4324863302890662
    DFT Exchange-Correlation Energy =       0.0000000000000000
    Empirical Dispersion Energy =           0.0000000000000000
    PCM Polarization Energy =               0.0000000000000000
    EFP Energy =                            0.0000000000000000
    Total Energy =                       -349.2449127651539129
    Molecular point group: c1
  Basis Set: 6-31G*
  Basis Set:

  -Total Gradient:
     Atom            X                  Y                   Z
    ------   -----------------  -----------------  -----------------
       1        0.000003844899     0.000001205003     0.000018836217
       2        0.000008142933    -0.000042025892     0.000008021478
       3       -0.000077222847    -0.001994229824     0.001810586507
       4        0.000744469375     0.003246836767    -0.002045265951
       5        0.000039519362     0.000006449203    -0.000022703219
       6       -0.000018509326    -0.000009116776     0.000010558858
       7       -0.003353657270    -0.002771797087    -0.001777210882
       8       -0.000031296807     0.000000270839    -0.000042648249
       9       -0.000008537744     0.000004240619    -0.000003419746
      10        0.000016982636    -0.000029261069     0.000002903148
      11        0.002700062036     0.001636195956     0.002077730190
      12       -0.000012239645    -0.000022384405     0.000002587222
      13        0.000004167970    -0.000037002391    -0.000001426838
      14        0.000017211613     0.000024459250     0.000025878201
      15       -0.000014177662    -0.000001373095    -0.000036120861
      16        0.000035571809    -0.000004089871    -0.000051538751
      17       -0.000002456733    -0.000031890199    -0.000023159796
      18       -0.000020317182     0.000002654699     0.000028446598
      19       -0.000025078050     0.000001387900     0.000013091562
      20        0.000020055263     0.000023419450    -0.000000718438
      21        0.000013434290    -0.000024155725    -0.000018228888
      22        0.000005304789    -0.000016317568     0.000002555261
      23       -0.000005503467     0.000006385980     0.000018474106
      24       -0.000039770233     0.000030138237     0.000002772278

  **** Optimization is complete! (in 6 steps) ****
    Final optimized geometry and variables:
    Molecular point group: c1

    Geometry (in Angstrom), charge = 0, multiplicity = 1:

    H           -3.262677971367     1.743401850726    -1.470778297164
    O           -3.356340010801     0.811067122273    -1.332005327660
    C           -3.110443480043     0.515492405679     0.019202640980
    C           -1.684114009167     0.832186146515     0.450402869700
    H           -3.298757033133    -0.545517259939     0.125313929766
    H           -3.820275784303     1.037435815028     0.659091594367
    C           -0.615001214735     0.096599255550    -0.372815708796
    H           -1.515339775655     1.907281243751     0.407985851373
    H           -1.595914580290     0.557427788858     1.500366208923
    C            0.652573640915    -0.202055083311     0.433759126031
    H           -0.335867527533     0.703495519739    -1.229318904111
    H           -1.022811819367    -0.830783029435    -0.765420656081
    C            1.746262873478    -0.870022831569    -0.403380196565
    H            1.025694559597     0.725177291134     0.862686961487
    H            0.400037714546    -0.847107449437     1.274346518768
    C            2.996288372590    -1.279810273968     0.383808789205
    H            2.036510832343    -0.203805548186    -1.214393647941
    H            1.329474206293    -1.757241041024    -0.875801742105
    C            3.791155069043    -0.110362508617     0.967697869604
    H            3.647310269900    -1.848860131445    -0.275385334925
    H            2.710031115475    -1.957749737958     1.185439439643
    H            4.082665994062     0.590186823154     0.189618159697
    H            4.697828827176    -0.462959761319     1.449834736659
    H            3.220869644991     0.438222621529     1.709971794632

  Mulliken Charges: (a.u.)
   Center  Symbol    Alpha    Beta     Spin     Total
       1     H     0.28354  0.28354  0.00000  0.43292
       2     O     4.36865  4.36865  0.00000 -0.73730
       3     C     2.99678  2.99678  0.00000  0.00644
       4     C     3.17215  3.17215  0.00000 -0.34430
       5     H     0.41635  0.41635  0.00000  0.16729
       6     H     0.42876  0.42876  0.00000  0.14249
       7     C     3.14743  3.14743  0.00000 -0.29487
       8     H     0.42534  0.42534  0.00000  0.14932
       9     H     0.42135  0.42135  0.00000  0.15730
      10     C     3.15612  3.15612  0.00000 -0.31224
      11     H     0.42009  0.42009  0.00000  0.15982
      12     H     0.41667  0.41667  0.00000  0.16667
      13     C     3.15265  3.15265  0.00000 -0.30531
      14     H     0.42268  0.42268  0.00000  0.15464
      15     H     0.42518  0.42518  0.00000  0.14964
      16     C     3.15220  3.15220  0.00000 -0.30441
      17     H     0.42432  0.42432  0.00000  0.15136
      18     H     0.42153  0.42153  0.00000  0.15693
      19     C     3.24107  3.24107  0.00000 -0.48214
      20     H     0.42105  0.42105  0.00000  0.15789
      21     H     0.42367  0.42367  0.00000  0.15267
      22     H     0.42251  0.42251  0.00000  0.15497
      23     H     0.41950  0.41950  0.00000  0.16100
      24     H     0.42040  0.42040  0.00000  0.15919

   Total alpha = 33.00000, Total beta = 33.00000, Total charge = -0.00000
