  ==> Input File <==

--------------------------------------------------------------------------
set {
	reference rhf
	basis 6-31G*
}

set_num_threads( 1 )
memory 2 gb

molecule MOL {
0 1

H	 1.136379	 0.211822	 1.465562
C	 1.135357	 0.094285	 0.374742
C	 0.065331	 0.871482	 -0.349150
O	 1.941633	 -0.601957	 -0.151457
C	 0.613319	 1.626169	 -1.568837
H	 -0.403722	 1.546870	 0.357074
H	 -0.686196	 0.155213	 -0.678280
C	 1.577586	 2.753849	 -1.198770
H	 -0.224074	 2.034222	 -2.125862
H	 1.107875	 0.923623	 -2.236283
H	 1.092621	 3.485551	 -0.560063
H	 1.929756	 3.267720	 -2.087157
H	 2.447976	 2.381204	 -0.666843

	symmetry c1
}
set optking {
	frozen_dihedral = ("
		6 3 5 9
	")
}

ee = energy('scf')
oeprop('DIPOLE', 'QUADRUPOLE', 'MULLIKEN_CHARGES')
f=open( 'psi4out.xyz', 'w' )
f.write( "13  " )
f.write( str(ee) + "\n" )
f.write( MOL.save_string_xyz() )
f.close()
--------------------------------------------------------------------------

    Molecular point group: c1

    Geometry (in Angstrom), charge = 0, multiplicity = 1:

       Center              X                  Y                   Z               Mass
    ------------   -----------------  -----------------  -----------------  -----------------
           H          0.051050561882    -0.740708675783     2.047176364677     1.007825032070
           C          0.050028561882    -0.858245675783     0.956356364677    12.000000000000
           C         -1.019997438118    -0.081048675783     0.232464364677    12.000000000000
           O          0.856304561882    -1.554487675783     0.430157364677    15.994914619560
           C         -0.472009438118     0.673638324217    -0.987222635323    12.000000000000
           H         -1.489050438118     0.594339324217     0.938688364677     1.007825032070
           H         -1.771524438118    -0.797317675783    -0.096665635323     1.007825032070
           C          0.492257561882     1.801318324217    -0.617155635323    12.000000000000
           H         -1.309402438118     1.081691324217    -1.544247635323     1.007825032070
           H          0.022546561882    -0.028907675783    -1.654668635323     1.007825032070
           H          0.007292561882     2.533020324218     0.021551364677     1.007825032070
           H          0.844427561882     2.315189324217    -1.505542635323     1.007825032070
           H          1.362647561882     1.428673324217    -0.085228635323     1.007825032070

  Charge       = 0
  Multiplicity = 1
  Basis Set: 6-31G*
  Basis Set:

    Orbital Energies (a.u.)
    -----------------------

    Doubly Occupied:

       1A    -20.563872     2A    -11.327988     3A    -11.236284
       4A    -11.230213     5A    -11.217063     6A     -1.404356
       7A     -1.080356     8A     -0.972722     9A     -0.853011
      10A     -0.767229    11A     -0.685578    12A     -0.638087
      13A     -0.626043    14A     -0.591011    15A     -0.559790
      16A     -0.528246    17A     -0.501448    18A     -0.486530
      19A     -0.479298    20A     -0.410442

  @DF-RHF Final Energy:  -230.98344373462010

   => Energetics <=

    Nuclear Repulsion Energy =            175.7290106047701101
    One-Electron Energy =                -661.1057201545796715
    Two-Electron Energy =                 254.3932658151894088
    DFT Exchange-Correlation Energy =       0.0000000000000000
    Empirical Dispersion Energy =           0.0000000000000000
    PCM Polarization Energy =               0.0000000000000000
    EFP Energy =                            0.0000000000000000
    Total Energy =                       -230.9834437346201526

  Mulliken Charges: (a.u.)
   Center  Symbol    Alpha    Beta     Spin     Total
       1     H     0.42798  0.42798  0.00000  0.14404
       2     C     2.84181  2.84181  0.00000  0.31639
       3     C     3.20492  3.20492  0.00000 -0.40984
       4     O     4.23751  4.23751  0.00000 -0.47503
       5     C     3.15573  3.15573  0.00000 -0.31146
       6     H     0.41509  0.41509  0.00000  0.16982
       7     H     0.39915  0.39915  0.00000  0.20171
       8     C     3.24576  3.24576  0.00000 -0.49151
       9     H     0.41666  0.41666  0.00000  0.16668
      10     H     0.40401  0.40401  0.00000  0.19198
      11     H     0.42243  0.42243  0.00000  0.15514
      12     H     0.41445  0.41445  0.00000  0.17111
      13     H     0.41451  0.41451  0.00000  0.17098

   Total alpha = 20.00000, Total beta = 20.00000, Total charge =  0.00000
