  ==> Input File <==

--------------------------------------------------------------------------
set {
	reference rhf
	basis 6-31G*
}

set_num_threads( 4 )
memory 2 gb

molecule MOL {
0 1

H	 2.845955	 -0.323208	 0.022310
C	 1.900140	 0.071967	 -0.330070
C	 0.778463	 -0.508087	 0.517968
H	 1.782469	 -0.206877	 -1.370777
H	 1.922247	 1.149867	 -0.254252
N	 -0.540928	 0.005139	 0.058438
H	 0.716718	 -1.581298	 0.454712
H	 0.859711	 -0.198647	 1.550086
O	 -0.865039	 1.094831	 0.414524
O	 -1.186310	 -0.715288	 -0.640824

	symmetry c1
}
set optking {
	frozen_dihedral = ("
		9 6 3 2
	")
}

ee = optimize('scf')
oeprop('DIPOLE', 'QUADRUPOLE', 'MULLIKEN_CHARGES')
f=open( 'psi4out.xyz', 'w' )
f.write( "10  " )
f.write( str(ee) + "\n" )
f.write( MOL.save_string_xyz() )
f.close()
--------------------------------------------------------------------------

    Molecular point group: c1
  Charge       = 0
  Multiplicity = 1
  Basis Set: 6-31G*
  Basis Set:
  @DF-RHF Final Energy:  -282.70027622422970
    Total Energy =                       -282.7002762242296967
    Molecular point group: c1
  Basis Set: 6-31G*
  Basis Set:
  Basis Set: 6-31G*
  Basis Set:
  @DF-RHF Final Energy:  -282.69535955729060
    Total Energy =                       -282.6953595572904874
  Basis Set: 6-31G*
  Basis Set:
  Basis Set: 6-31G*
  Basis Set:
  @DF-RHF Final Energy:  -282.70033047446179
    Total Energy =                       -282.7003304744619641
  Basis Set: 6-31G*
  Basis Set:
  Basis Set: 6-31G*
  Basis Set:
  @DF-RHF Final Energy:  -282.70045269651098
    Total Energy =                       -282.7004526965110358
  Basis Set: 6-31G*
  Basis Set:
  Basis Set: 6-31G*
  Basis Set:
  @DF-RHF Final Energy:  -282.70045835781343
    Total Energy =                       -282.7004583578135453
  Basis Set: 6-31G*
  Basis Set:
  Charge       = 0
  Multiplicity = 1
  Basis Set: 6-31G*
  Basis Set:

    Orbital Energies (a.u.)
    -----------------------

    Doubly Occupied:

       1A    -20.603029     2A    -20.601019     3A    -15.848467
       4A    -11.303624     5A    -11.253869     6A     -1.632073
       7A     -1.417742     8A     -1.128129     9A     -0.967443
      10A     -0.838189    11A     -0.760333    12A     -0.735265
      13A     -0.725595    14A     -0.659136    15A     -0.590707
      16A     -0.560960    17A     -0.550163    18A     -0.485074
      19A     -0.477845    20A     -0.449554

  @DF-RHF Final Energy:  -282.70046044292593

   => Energetics <=

    Nuclear Repulsion Energy =            186.2900549494677875
    One-Electron Energy =                -754.8045979340593021
    Two-Electron Energy =                 285.8140825416654707
    DFT Exchange-Correlation Energy =       0.0000000000000000
    Empirical Dispersion Energy =           0.0000000000000000
    PCM Polarization Energy =               0.0000000000000000
    EFP Energy =                            0.0000000000000000
    Total Energy =                       -282.7004604429261008
    Molecular point group: c1
  Basis Set: 6-31G*
  Basis Set:

  -Total Gradient:
     Atom            X                  Y                   Z
    ------   -----------------  -----------------  -----------------
       1        0.000000162063     0.000004000300     0.000002738575
       2       -0.000023702622    -0.000041590810    -0.000024153394
       3        0.000005030757     0.000008795176     0.000045725300
       4       -0.000007914739    -0.000000547151     0.000007524038
       5        0.000016437274     0.000013333448    -0.000008241361
       6        0.000042692154     0.000211351315    -0.000047896264
       7       -0.000008643799    -0.000006922815     0.000011546204
       8       -0.000008914653     0.000010735682    -0.000009503529
       9        0.000005746589    -0.000109210045     0.000069968792
      10       -0.000020893022    -0.000089945101    -0.000047708358

  **** Optimization is complete! (in 6 steps) ****
    Final optimized geometry and variables:
    Molecular point group: c1

    Geometry (in Angstrom), charge = 0, multiplicity = 1:

    H            2.836389212161    -0.309451708046     0.022384954997
    C            1.883028516800     0.071732647767    -0.324004255583
    C            0.771244270419    -0.512173014533     0.538359522381
    H            1.755156781585    -0.215380496244    -1.360721676348
    H            1.895266320376     1.151623237658    -0.253385968783
    N           -0.540013395077     0.002772552328     0.063646556142
    H            0.716236878772    -1.585517165473     0.464299156223
    H            0.855829614753    -0.201194094155     1.567509341438
    O           -0.849298194247     1.099995856945     0.415253796341
    O           -1.177056211228    -0.698902325808    -0.659521441614

  Mulliken Charges: (a.u.)
   Center  Symbol    Alpha    Beta     Spin     Total
       1     H     0.40418  0.40418  0.00000  0.19165
       2     C     3.25800  3.25800  0.00000 -0.51600
       3     C     3.08946  3.08946  0.00000 -0.17893
       4     H     0.39920  0.39920  0.00000  0.20160
       5     H     0.39563  0.39563  0.00000  0.20874
       6     N     3.22018  3.22018  0.00000  0.55965
       7     H     0.38679  0.38679  0.00000  0.22642
       8     H     0.38768  0.38768  0.00000  0.22464
       9     O     4.23030  4.23030  0.00000 -0.46060
      10     O     4.22858  4.22858  0.00000 -0.45716

   Total alpha = 20.00000, Total beta = 20.00000, Total charge =  0.00000
