  ==> Input File <==

--------------------------------------------------------------------------
set {
	reference rhf
	basis 6-31G*
}

set_num_threads( 4 )
memory 2 gb

molecule MOL {
0 1

O	 -2.324811	 1.361668	 -0.277141
C	 -2.105949	 0.203097	 -0.092081
C	 -0.889235	 -0.467034	 -0.705952
C	 -3.002726	 -0.644460	 0.782455
C	 -0.799690	 -0.167705	 -2.211118
H	 -0.991520	 -1.536187	 -0.555110
H	 0.019130	 -0.140442	 -0.207718
C	 0.398899	 -0.856029	 -2.868545
H	 -1.725686	 -0.487914	 -2.675210
H	 -0.725209	 0.907410	 -2.367089
C	 0.575894	 -0.534611	 -4.356973
H	 0.306661	 -1.933186	 -2.742240
H	 1.304265	 -0.563480	 -2.340742
C	 -0.542855	 -1.061800	 -5.257233
H	 1.520315	 -0.958943	 -4.688187
H	 0.666711	 0.542299	 -4.483875
H	 -0.662595	 -2.135686	 -5.142539
H	 -0.320767	 -0.864602	 -6.301354
H	 -1.497555	 -0.597081	 -5.035027
H	 -3.496582	 -1.399307	 0.176174
H	 -3.747939	 -0.023774	 1.260148
H	 -2.421318	 -1.168775	 1.535358

	symmetry c1
}
set optking {
	frozen_dihedral = ("
		6 3 2 1
	")
}

ee = optimize('scf')
oeprop('DIPOLE', 'QUADRUPOLE', 'MULLIKEN_CHARGES')
f=open( 'psi4out.xyz', 'w' )
f.write( "22  " )
f.write( str(ee) + "\n" )
f.write( MOL.save_string_xyz() )
f.close()
--------------------------------------------------------------------------

    Molecular point group: c1
  Charge       = 0
  Multiplicity = 1
  Basis Set: 6-31G*
  Basis Set:
  @DF-RHF Final Energy:  -348.09762713210603
    Total Energy =                       -348.0976271321057425
    Molecular point group: c1
  Basis Set: 6-31G*
  Basis Set:
  Basis Set: 6-31G*
  Basis Set:
  @DF-RHF Final Energy:  -348.09765355694373
    Total Energy =                       -348.0976535569434418
  Basis Set: 6-31G*
  Basis Set:
  Basis Set: 6-31G*
  Basis Set:
  @DF-RHF Final Energy:  -348.09836486468970
    Total Energy =                       -348.0983648646894153
  Basis Set: 6-31G*
  Basis Set:
  Basis Set: 6-31G*
  Basis Set:
  @DF-RHF Final Energy:  -348.09855151791385
    Total Energy =                       -348.0985515179135064
  Basis Set: 6-31G*
  Basis Set:
  @DF-RHF Final Energy:  -348.09872251387725
    Total Energy =                       -348.0987225138772487
  @DF-RHF Final Energy:  -348.09873139890976
    Total Energy =                       -348.0987313989097629
  @DF-RHF Final Energy:  -348.09872002318650
    Total Energy =                       -348.0987200231860470
  Basis Set: 6-31G*
  Basis Set:
  @DF-RHF Final Energy:  -348.09872898263257
    Total Energy =                       -348.0987289826325650
  Basis Set: 6-31G*
  Basis Set:
  Basis Set: 6-31G*
  Basis Set:
  @DF-RHF Final Energy:  -348.09872340624241
    Total Energy =                       -348.0987234062421862
  Basis Set: 6-31G*
  Basis Set:
  Basis Set: 6-31G*
  Basis Set:
  @DF-RHF Final Energy:  -348.09873196574483
    Total Energy =                       -348.0987319657448325
  Basis Set: 6-31G*
  Basis Set:
  Charge       = 0
  Multiplicity = 1
  Basis Set: 6-31G*
  Basis Set:

    Orbital Energies (a.u.)
    -----------------------

    Doubly Occupied:

       1A    -20.548322     2A    -11.325908     3A    -11.230631
       4A    -11.228680     5A    -11.221549     6A    -11.219049
       7A    -11.217721     8A    -11.209998     9A     -1.394340
      10A     -1.091859    11A     -1.042708    12A     -1.001203
      13A     -0.936071    14A     -0.855533    15A     -0.783133
      16A     -0.731690    17A     -0.656832    18A     -0.649028
      19A     -0.628207    20A     -0.611671    21A     -0.602329
      22A     -0.582726    23A     -0.557276    24A     -0.549548
      25A     -0.523838    26A     -0.519646    27A     -0.499399
      28A     -0.481226    29A     -0.465514    30A     -0.461410
      31A     -0.461053    32A     -0.397334

  @DF-RHF Final Energy:  -348.09873260078615

   => Energetics <=

    Nuclear Repulsion Energy =            372.2202455247937110
    One-Electron Energy =               -1209.2670896930917479
    Two-Electron Energy =                 488.9481115675114893
    DFT Exchange-Correlation Energy =       0.0000000000000000
    Empirical Dispersion Energy =           0.0000000000000000
    PCM Polarization Energy =               0.0000000000000000
    EFP Energy =                            0.0000000000000000
    Total Energy =                       -348.0987326007866045
    Molecular point group: c1
  Basis Set: 6-31G*
  Basis Set:

  -Total Gradient:
     Atom            X                  Y                   Z
    ------   -----------------  -----------------  -----------------
       1        0.000780416085     0.000334047029     0.001028894270
       2       -0.000928637193    -0.000429888912    -0.001163747431
       3       -0.000584112213    -0.000034110160    -0.000982397352
       4        0.000007500328     0.000003688588     0.000003726046
       5       -0.000002529820     0.000001166537     0.000002924196
       6        0.000724566506     0.000123818754     0.001119964940
       7        0.000002215723    -0.000002224520    -0.000001180501
       8       -0.000000333549    -0.000010402516     0.000000618405
       9        0.000004836515     0.000001805556     0.000001763690
      10       -0.000002252783     0.000003232750     0.000001267113
      11       -0.000006522880     0.000004229649    -0.000003294252
      12        0.000003195912    -0.000001257749     0.000006430609
      13       -0.000002121698     0.000001640056    -0.000002818177
      14        0.000006691565    -0.000001994634     0.000001078752
      15       -0.000002367046     0.000001162275    -0.000008470813
      16       -0.000001161037     0.000001116429     0.000001734286
      17       -0.000002697059     0.000002559400     0.000005633280
      18        0.000003224347    -0.000003840135    -0.000000997685
      19        0.000003212265     0.000003612642    -0.000003475412
      20       -0.000001765651     0.000001317752    -0.000003976615
      21        0.000000021347     0.000000204891    -0.000002288782
      22       -0.000001379667     0.000000116314    -0.000001388561

  **** Optimization is complete! (in 11 steps) ****
    Final optimized geometry and variables:
    Molecular point group: c1

    Geometry (in Angstrom), charge = 0, multiplicity = 1:

    O           -1.230245229582     1.629640442960     1.592879561807
    C           -1.021010546651     0.473578669289     1.801948820586
    C            0.141199709836    -0.247411172107     1.135946086462
    C           -1.873234980196    -0.324904014047     2.762107622317
    C            0.263715648310     0.069008394782    -0.357009277432
    H            0.067997634833    -1.317888908231     1.305080127979
    H            1.041046115126     0.081329098727     1.653794322794
    C            1.488158154083    -0.593561336250    -0.992623663957
    H           -0.642173387312    -0.255316808103    -0.861547023263
    H            0.317789533121     1.145056995645    -0.479224650351
    C            1.703278706571    -0.242604570860    -2.469344257774
    H            1.412753518286    -1.675135851681    -0.889077832288
    H            2.374016232326    -0.296304381895    -0.434922599636
    C            0.617849577334    -0.765972404972    -3.411753331512
    H            2.662052183365    -0.648764538103    -2.781901873103
    H            1.782624550578     0.837313293099    -2.573094809455
    H            0.505357300046    -1.842936749464    -3.318011027386
    H            0.869672958737    -0.550172535386    -4.445410926556
    H           -0.347396996456    -0.312896391171    -3.211977158388
    H           -2.371061157289    -1.131880587312     2.231044642422
    H           -2.611917989192     0.315737893061     3.223192663095
    H           -1.252369104104    -0.781362893627     3.528017646983

  Mulliken Charges: (a.u.)
   Center  Symbol    Alpha    Beta     Spin     Total
       1     O     4.26357  4.26357  0.00000 -0.52714
       2     C     2.73438  2.73438  0.00000  0.53125
       3     C     3.20672  3.20672  0.00000 -0.41343
       4     C     3.28867  3.28867  0.00000 -0.57735
       5     C     3.15668  3.15668  0.00000 -0.31336
       6     H     0.41533  0.41533  0.00000  0.16934
       7     H     0.40347  0.40347  0.00000  0.19306
       8     C     3.15387  3.15387  0.00000 -0.30773
       9     H     0.41830  0.41830  0.00000  0.16340
      10     H     0.40323  0.40323  0.00000  0.19354
      11     C     3.15281  3.15281  0.00000 -0.30562
      12     H     0.42495  0.42495  0.00000  0.15010
      13     H     0.42135  0.42135  0.00000  0.15730
      14     C     3.24197  3.24197  0.00000 -0.48393
      15     H     0.42045  0.42045  0.00000  0.15910
      16     H     0.42067  0.42067  0.00000  0.15867
      17     H     0.42293  0.42293  0.00000  0.15414
      18     H     0.41819  0.41819  0.00000  0.16362
      19     H     0.41875  0.41875  0.00000  0.16250
      20     H     0.40782  0.40782  0.00000  0.18436
      21     H     0.39720  0.39720  0.00000  0.20560
      22     H     0.40870  0.40870  0.00000  0.18259

   Total alpha = 32.00000, Total beta = 32.00000, Total charge = -0.00000
