                              Psi4 1.0.54 Driver

  ==> Input File <==

--------------------------------------------------------------------------
set {
	reference rhf
	basis cc-pvtz
}

set_num_threads( 4 )
memory 2 gb

molecule MOL {
0 1

H	 -1.380417	 -3.058169	 -1.772652
O	 -1.420401	 -2.434131	 -1.063642
C	 -0.324537	 -1.681483	 -1.102869
C	 -0.310616	 -0.658853	 0.000791
O	 0.514419	 -1.834203	 -1.921893
C	 0.926581	 0.227233	 0.000178
H	 -0.409241	 -1.198483	 0.937168
H	 -1.217405	 -0.070831	 -0.097606
C	 2.220156	 -0.582071	 -0.000088
H	 0.899945	 0.878221	 -0.866390
H	 0.900542	 0.878581	 0.866486
C	 3.466689	 0.296012	 -0.000457
H	 2.239073	 -1.234095	 -0.869382
H	 2.239505	 -1.233985	 0.869270
H	 3.493549	 0.935857	 -0.875887
H	 4.368821	 -0.304526	 -0.001199
H	 3.494559	 0.935166	 0.875458

	symmetry c1
}
set optking {
	frozen_dihedral = ("
		7 4 6 10
	")
}

ee,wfn = optimize('scf', return_wfn=True)
oeprop( wfn, 'DIPOLE', 'QUADRUPOLE', 'MULLIKEN_CHARGES')
f=open( 'psi4out.xyz', 'w' )
f.write( "17  " )
f.write( str(ee) + "\n" )
f.write( MOL.save_string_xyz() )
f.close()
--------------------------------------------------------------------------

    Molecular point group: c1
  Charge       = 0
  Multiplicity = 1
  Basis Set: CC-PVTZ
  Basis Set:
  @DF-RHF Final Energy:  -345.04250661161120
    Total Energy =                       -345.0425066116114294
    Molecular point group: c1
  Basis Set: CC-PVTZ
  Basis Set:
  Basis Set: CC-PVTZ
  Basis Set:
  @DF-RHF Final Energy:  -345.04633350963564
    Total Energy =                       -345.0463335096355308
  Basis Set: CC-PVTZ
  Basis Set:
  Basis Set: CC-PVTZ
  Basis Set:
  @DF-RHF Final Energy:  -345.04549092099109
    Total Energy =                       -345.0454909209910284
  Basis Set: CC-PVTZ
  Basis Set:
  Basis Set: CC-PVTZ
  Basis Set:
  @DF-RHF Final Energy:  -345.04684469436262
    Total Energy =                       -345.0468446943622780
  Basis Set: CC-PVTZ
  Basis Set:
  @DF-RHF Final Energy:  -345.04720294936436
    Total Energy =                       -345.0472029493642481
  Basis Set: CC-PVTZ
  Basis Set:
  @DF-RHF Final Energy:  -345.04732272677450
    Total Energy =                       -345.0473227267742686
  Basis Set: CC-PVTZ
  Basis Set:
  Basis Set: CC-PVTZ
  Basis Set:
  @DF-RHF Final Energy:  -345.04735895661014
    Total Energy =                       -345.0473589566102532
  Basis Set: CC-PVTZ
  Basis Set:
  Basis Set: CC-PVTZ
  Basis Set:
  @DF-RHF Final Energy:  -345.04736558346985
    Total Energy =                       -345.0473655834695705
  Basis Set: CC-PVTZ
  Basis Set:
  Charge       = 0
  Multiplicity = 1
  Basis Set: CC-PVTZ
  Basis Set:

    Orbital Energies (a.u.)
    -----------------------

    Doubly Occupied:

       1A    -20.605431     2A    -20.540325     3A    -11.374689
       4A    -11.239810     5A    -11.223289     6A    -11.214317
       7A    -11.207427     8A     -1.478716     9A     -1.369660
      10A     -1.090566    11A     -1.017224    12A     -0.913674
      13A     -0.830655    14A     -0.785447    15A     -0.706368
      16A     -0.693982    17A     -0.658563    18A     -0.630486
      19A     -0.589595    20A     -0.585114    21A     -0.577517
      22A     -0.533563    23A     -0.517693    24A     -0.489493
      25A     -0.479257    26A     -0.471895    27A     -0.468248
      28A     -0.443146

  @DF-RHF Final Energy:  -345.04736607294933

   => Energetics <=

    Nuclear Repulsion Energy =            311.3254485501780664
    One-Electron Energy =               -1087.2733239921490167
    Two-Electron Energy =                 430.9005093690215631
    DFT Exchange-Correlation Energy =       0.0000000000000000
    Empirical Dispersion Energy =           0.0000000000000000
    PCM Polarization Energy =               0.0000000000000000
    EFP Energy =                            0.0000000000000000
    Total Energy =                       -345.0473660729493872
    Molecular point group: c1
  Basis Set: CC-PVTZ
  Basis Set:

  -Total Gradient:
     Atom            X                  Y                   Z
    ------   -----------------  -----------------  -----------------
       1        0.000013289956     0.000021514769     0.000000380267
       2        0.000016963413     0.000026521818     0.000011417923
       3       -0.000047150517    -0.000065538937    -0.000023607254
       4        0.001957858833    -0.002752181710    -0.001367447644
       5        0.000003854512     0.000024840329     0.000043291851
       6        0.001468025956    -0.002197175594    -0.001986520620
       7       -0.001806316232     0.002611370984     0.001395673869
       8       -0.000028549638     0.000003405963     0.000000375403
       9        0.000003815375    -0.000008500203     0.000017889162
      10       -0.001595046736     0.002329766718     0.001906543837
      11        0.000016644385    -0.000004628237     0.000001085324
      12       -0.000002576055    -0.000001233116    -0.000006418430
      13       -0.000010470036     0.000007279785     0.000002993294
      14        0.000000047652    -0.000002391729     0.000013516071
      15        0.000002950677     0.000011227520    -0.000003551852
      16        0.000002695682    -0.000001595821    -0.000005625192
      17        0.000003962769    -0.000002682542     0.000000003990

  **** Optimization is complete! (in 9 steps) ****
    Final optimized geometry and variables:
    Molecular point group: c1

    Geometry (in Angstrom), charge = 0, multiplicity = 1:

    H           -2.039063519485    -2.213323761765    -1.005311667937
    O           -1.942492470060    -1.676739064600    -0.232765998106
    C           -1.104657432572    -0.684155950338    -0.513891425622
    C           -0.947734343183     0.266400787133     0.642009441050
    O           -0.595412869419    -0.573183586625    -1.575823541420
    C            0.293066657373     1.152499082607     0.591495454991
    H           -1.011466340783    -0.280924715524     1.573891800964
    H           -1.839536558272     0.887958868306     0.617076519564
    C            1.620804527015     0.399991694074     0.601310718069
    H            0.231686416281     1.810237231453    -0.267831592677
    H            0.252975176818     1.801259928639     1.462254237443
    C            2.822226712951     1.338891130598     0.629069577280
    H            1.684199610736    -0.238149702478    -0.270857645928
    H            1.653926712037    -0.251473760688     1.471480890441
    H            2.832329412388     1.983222663690    -0.243429646589
    H            3.752093551873     0.782424112794     0.639035779527
    H            2.806825961398     1.973624470047     1.509078075283

  Mulliken Charges: (a.u.)
   Center  Symbol    Alpha    Beta     Spin     Total
       1     H     0.38174  0.38174  0.00000  0.23652
       2     O     4.15932  4.15932  0.00000 -0.31864
       3     C     2.80204  2.80204  0.00000  0.39592
       4     C     3.11765  3.11765  0.00000 -0.23530
       5     O     4.19511  4.19511  0.00000 -0.39021
       6     C     3.08644  3.08644  0.00000 -0.17289
       7     H     0.43419  0.43419  0.00000  0.13162
       8     H     0.43393  0.43393  0.00000  0.13214
       9     C     3.08979  3.08979  0.00000 -0.17958
      10     H     0.44641  0.44641  0.00000  0.10717
      11     H     0.44832  0.44832  0.00000  0.10336
      12     C     3.15083  3.15083  0.00000 -0.30167
      13     H     0.44097  0.44097  0.00000  0.11806
      14     H     0.45628  0.45628  0.00000  0.08745
      15     H     0.45272  0.45272  0.00000  0.09456
      16     H     0.44768  0.44768  0.00000  0.10463
      17     H     0.45658  0.45658  0.00000  0.08685

   Total alpha = 28.00000, Total beta = 28.00000, Total charge =  0.00000

*** Psi4 exiting successfully. Buy a developer a beer!
