  ==> Input File <==

--------------------------------------------------------------------------
set {
	reference rhf
	basis 6-31G*
}

set_num_threads( 4 )
memory 2 gb

molecule MOL {
0 1

H	 -2.798360	 -0.862255	 -0.071053
N	 -1.863561	 -0.715187	 0.256814
C	 -1.344686	 0.554728	 -0.219830
H	 -1.300452	 -1.461917	 -0.101532
C	 0.081427	 0.741154	 0.254071
H	 -1.362155	 0.656231	 -1.305829
H	 -1.952773	 1.354456	 0.191809
O	 0.260201	 -0.017362	 1.415871
H	 0.779934	 0.415830	 -0.516572
H	 0.264095	 1.793736	 0.458862
C	 1.510230	 0.128931	 2.010511
H	 1.530710	 -0.500010	 2.890120
H	 2.309118	 -0.180341	 1.338864
H	 1.690196	 1.159538	 2.309293

	symmetry c1
}
set optking {
	frozen_dihedral = ("
		8 5 3 6
	")
}

ee = optimize('scf')
oeprop('DIPOLE', 'QUADRUPOLE', 'MULLIKEN_CHARGES')
f=open( 'psi4out.xyz', 'w' )
f.write( "14  " )
f.write( str(ee) + "\n" )
f.write( MOL.save_string_xyz() )
f.close()
--------------------------------------------------------------------------

    Molecular point group: c1
  Charge       = 0
  Multiplicity = 1
  Basis Set: 6-31G*
  Basis Set:
  @DF-RHF Final Energy:  -248.11059910966654
    Total Energy =                       -248.1105991096666230
    Molecular point group: c1
  Basis Set: 6-31G*
  Basis Set:
  Basis Set: 6-31G*
  Basis Set:
  @DF-RHF Final Energy:  -248.11195470485455
    Total Energy =                       -248.1119547048545542
  Basis Set: 6-31G*
  Basis Set:
  Basis Set: 6-31G*
  Basis Set:
  @DF-RHF Final Energy:  -248.11316892138828
    Total Energy =                       -248.1131689213881373
  Basis Set: 6-31G*
  Basis Set:
  Basis Set: 6-31G*
  Basis Set:
  @DF-RHF Final Energy:  -248.11331382290689
    Total Energy =                       -248.1133138229069459
  Basis Set: 6-31G*
  Basis Set:
  @DF-RHF Final Energy:  -248.11343166769296
    Total Energy =                       -248.1134316676931348
  @DF-RHF Final Energy:  -248.11349834463167
    Total Energy =                       -248.1134983446315800
  @DF-RHF Final Energy:  -248.11353488100113
    Total Energy =                       -248.1135348810008736
  @DF-RHF Final Energy:  -248.11355110946306
    Total Energy =                       -248.1135511094632307
  @DF-RHF Final Energy:  -248.11356469260585
    Total Energy =                       -248.1135646926057916
  @DF-RHF Final Energy:  -248.11357073594129
    Total Energy =                       -248.1135707359412095
  @DF-RHF Final Energy:  -248.11338359452125
    Total Energy =                       -248.1133835945212809
  @DF-RHF Final Energy:  -248.11327650681184
    Total Energy =                       -248.1132765068116441
  @DF-RHF Final Energy:  -248.11358397098726
    Total Energy =                       -248.1135839709873494
  @DF-RHF Final Energy:  -248.11361129317638
    Total Energy =                       -248.1136112931764046
  @DF-RHF Final Energy:  -248.11362764611033
    Total Energy =                       -248.1136276461104444
  @DF-RHF Final Energy:  -248.11364345985743
    Total Energy =                       -248.1136434598573715
  @DF-RHF Final Energy:  -248.11365414972673
    Total Energy =                       -248.1136541497266421
  @DF-RHF Final Energy:  -248.11366373293356
    Total Energy =                       -248.1136637329333325
  @DF-RHF Final Energy:  -248.11369505113521
    Total Energy =                       -248.1136950511352097
  @DF-RHF Final Energy:  -248.11381292023444
    Total Energy =                       -248.1138129202344658
  @DF-RHF Final Energy:  -248.11989270948314
    Total Energy =                       -248.1198927094831106
  @DF-RHF Final Energy:  -248.12005504800624
    Total Energy =                       -248.1200550480061793
  @DF-RHF Final Energy:  -248.12019454551529
    Total Energy =                       -248.1201945455151758
  @DF-RHF Final Energy:  -248.12022566839812
    Total Energy =                       -248.1202256683981773
  @DF-RHF Final Energy:  -248.12022973004068
    Total Energy =                       -248.1202297300405917
  @DF-RHF Final Energy:  -248.12023046512959
    Total Energy =                       -248.1202304651296231
  @DF-RHF Final Energy:  -248.12021322437261
    Total Energy =                       -248.1202132243725487
  @DF-RHF Final Energy:  -248.12023000744196
    Total Energy =                       -248.1202300074418190
  @DF-RHF Final Energy:  -248.05311852044173
    Total Energy =                       -248.0531185204418989
  @DF-RHF Final Energy:  -248.08677355928396
    Total Energy =                       -248.0867735592839836
  @DF-RHF Final Energy:  -248.06572879959367
    Total Energy =                       -248.0657287995938418
  @DF-RHF Final Energy:  -247.98903085442015
    Total Energy =                       -247.9890308544199229
  @DF-RHF Final Energy:  -248.09114836312827
    Total Energy =                       -248.0911483631283545
  @DF-RHF Final Energy:  -248.07031463162656
    Total Energy =                       -248.0703146316265588
  @DF-RHF Final Energy:  -248.10576429762483
    Total Energy =                       -248.1057642976246598
  @DF-RHF Final Energy:  -248.11416865209361
    Total Energy =                       -248.1141686520935536
  Basis Set: 6-31G*
  Basis Set:
  @DF-RHF Final Energy:  -248.11523476457666
    Total Energy =                       -248.1152347645768259
  Basis Set: 6-31G*
  Basis Set:
  Basis Set: 6-31G*
  Basis Set:
  @DF-RHF Final Energy:  -248.11452498235610
    Total Energy =                       -248.1145249823562722
  Basis Set: 6-31G*
  Basis Set:
  Basis Set: 6-31G*
  Basis Set:
  @DF-RHF Final Energy:  -248.11599023856246
    Total Energy =                       -248.1159902385624036
  Basis Set: 6-31G*
  Basis Set:
  Charge       = 0
  Multiplicity = 1
  Basis Set: 6-31G*
  Basis Set:

    Orbital Energies (a.u.)
    -----------------------

    Doubly Occupied:

       1A    -20.560870     2A    -15.523812     3A    -11.271242
       4A    -11.270810     5A    -11.241307     6A     -1.385671
       7A     -1.168401     8A     -0.998143     9A     -0.913593
      10A     -0.819408    11A     -0.688692    12A     -0.662190
      13A     -0.650402    14A     -0.635328    15A     -0.578222
      16A     -0.545995    17A     -0.528140    18A     -0.505339
      19A     -0.479187    20A     -0.416804    21A     -0.377772

  @DF-RHF Final Energy:  -248.11615377615755

   => Energetics <=

    Nuclear Repulsion Energy =            195.1163657033276309
    One-Electron Energy =                -724.0223800707592545
    Two-Electron Energy =                 280.7898605912740777
    DFT Exchange-Correlation Energy =       0.0000000000000000
    Empirical Dispersion Energy =           0.0000000000000000
    PCM Polarization Energy =               0.0000000000000000
    EFP Energy =                            0.0000000000000000
    Total Energy =                       -248.1161537761576028
    Molecular point group: c1
  Basis Set: 6-31G*
  Basis Set:

  -Total Gradient:
     Atom            X                  Y                   Z
    ------   -----------------  -----------------  -----------------
       1        0.000641900674     0.000031337581     0.002981406916
       2        0.001792779076    -0.002130773173    -0.003736551888
       3        0.001502766932     0.013462938416     0.002219535181
       4       -0.000999314166     0.000798422377    -0.000089645052
       5       -0.003979441157     0.004150657886     0.004406734742
       6       -0.000813688886    -0.008437238392    -0.001393075493
       7        0.000934708961    -0.001371512157     0.002274904058
       8        0.002071909364    -0.004933997570    -0.008842148188
       9        0.000428120911    -0.002444182378     0.000984878567
      10        0.000020335342     0.000240807904    -0.000702837891
      11       -0.001471358387     0.000586407637     0.002152420893
      12        0.000017525010     0.000030842592    -0.000101462010
      13       -0.000176052300    -0.000008676757    -0.000086286508
      14        0.000029808625     0.000024966034    -0.000067873327

    Molecular point group: c1

    Geometry (in Angstrom), charge = 0, multiplicity = 1:

    H           -1.048974202976    -1.467281805412    -0.785872344256
    N           -1.741209329867    -0.755586468724    -0.657268657607
    C           -1.141058784472     0.567731837214    -0.802991541875
    H           -2.060808921413    -0.871538225517     0.284433719091
    C            0.352251856033     0.628294668205    -0.452901395707
    H           -1.259827074943     0.844953337765    -1.844236553312
    H           -1.704638893912     1.260174625441    -0.189987199356
    O            0.640932186061    -0.306840363290     0.547412186446
    H            0.952228757860     0.377274718011    -1.327620173228
    H            0.629120903374     1.637248817137    -0.153020015431
    C            1.809091355145    -0.055237956217     1.262215889395
    H            1.924666220267    -0.847154399774     1.989530326169
    H            2.682303815580    -0.046932949070     0.612392660038
    H            1.758490932575     0.898244350193     1.783585579328

  Mulliken Charges: (a.u.)
   Center  Symbol    Alpha    Beta     Spin     Total
       1     H     0.32852  0.32852  0.00000  0.34295
       2     N     3.91721  3.91721  0.00000 -0.83443
       3     C     3.07095  3.07095  0.00000 -0.14190
       4     H     0.33159  0.33159  0.00000  0.33682
       5     C     3.00325  3.00325  0.00000 -0.00651
       6     H     0.41618  0.41618  0.00000  0.16765
       7     H     0.41855  0.41855  0.00000  0.16289
       8     O     4.30830  4.30830  0.00000 -0.61659
       9     H     0.42783  0.42783  0.00000  0.14433
      10     H     0.42844  0.42844  0.00000  0.14312
      11     C     3.07952  3.07952  0.00000 -0.15903
      12     H     0.41210  0.41210  0.00000  0.17581
      13     H     0.42907  0.42907  0.00000  0.14185
      14     H     0.42848  0.42848  0.00000  0.14305

   Total alpha = 21.00000, Total beta = 21.00000, Total charge =  0.00000
