  ==> Input File <==

--------------------------------------------------------------------------
set {
	reference rhf
	basis cc-pvtz
}

set_num_threads( 4 )
memory 2 gb

molecule MOL {
0 1

O	 -0.694481	 1.313155	 -0.204815
C	 -0.862519	 0.151932	 -0.046791
C	 -2.171428	 -0.477048	 0.339095
O	 0.085519	 -0.757083	 -0.192238
H	 -2.467997	 -1.191667	 -0.417688
H	 -2.923379	 0.287970	 0.444097
H	 -2.053854	 -1.015120	 1.270901
C	 1.392036	 -0.330828	 -0.560749
C	 1.634405	 1.117162	 -0.188622
H	 1.532399	 -0.489203	 -1.618591
H	 2.056818	 -0.984356	 -0.016030
H	 2.658342	 1.385807	 -0.422789
H	 0.976158	 1.773604	 -0.741050
H	 1.476009	 1.271349	 0.871911

	symmetry c1
}
set optking {
	frozen_dihedral = ("
		10 8 4 2
	")
}

ee = optimize('scf')
oeprop('DIPOLE', 'QUADRUPOLE', 'MULLIKEN_CHARGES')
f=open( 'psi4out.xyz', 'w' )
f.write( "14  " )
f.write( str(ee) + "\n" )
f.write( MOL.save_string_xyz() )
f.close()
--------------------------------------------------------------------------

    Molecular point group: c1
  Charge       = 0
  Multiplicity = 1
  Basis Set: CC-PVTZ
  Basis Set:
  @DF-RHF Final Energy:  -305.95829539842907
    Total Energy =                       -305.9582953984286178
    Molecular point group: c1
  Basis Set: CC-PVTZ
  Basis Set:
  Basis Set: CC-PVTZ
  Basis Set:
  @DF-RHF Final Energy:  -305.97682962523595
    Total Energy =                       -305.9768296252362916
  Basis Set: CC-PVTZ
  Basis Set:
  Basis Set: CC-PVTZ
  Basis Set:
  @DF-RHF Final Energy:  -305.98010517107389
    Total Energy =                       -305.9801051710740012
  Basis Set: CC-PVTZ
  Basis Set:
  Basis Set: CC-PVTZ
  Basis Set:
  @DF-RHF Final Energy:  -305.97822598936648
    Total Energy =                       -305.9782259893663650
  Basis Set: CC-PVTZ
  Basis Set:
  @DF-RHF Final Energy:  -305.98180785537471
    Total Energy =                       -305.9818078553746545
  Basis Set: CC-PVTZ
  Basis Set:
  @DF-RHF Final Energy:  -305.98192377393644
    Total Energy =                       -305.9819237739362734
  Basis Set: CC-PVTZ
  Basis Set:
  Basis Set: CC-PVTZ
  Basis Set:
  @DF-RHF Final Energy:  -305.98194088564020
    Total Energy =                       -305.9819408856398582
  Basis Set: CC-PVTZ
  Basis Set:
  Basis Set: CC-PVTZ
  Basis Set:
  @DF-RHF Final Energy:  -305.98194486977832
    Total Energy =                       -305.9819448697782036
  Basis Set: CC-PVTZ
  Basis Set:
  Charge       = 0
  Multiplicity = 1
  Basis Set: CC-PVTZ
  Basis Set:

    Orbital Energies (a.u.)
    -----------------------

    Doubly Occupied:

       1A    -20.591908     2A    -20.529892     3A    -11.367822
       4A    -11.289008     5A    -11.229389     6A    -11.214871
       7A     -1.465131     8A     -1.365074     9A     -1.055903
      10A     -0.997510    11A     -0.893890    12A     -0.750489
      13A     -0.693818    14A     -0.683863    15A     -0.670303
      16A     -0.613389    17A     -0.588615    18A     -0.570229
      19A     -0.549000    20A     -0.535197    21A     -0.514754
      22A     -0.497764    23A     -0.449673    24A     -0.433780

  @DF-RHF Final Energy:  -305.98194575683630

   => Energetics <=

    Nuclear Repulsion Energy =            249.5110157544990557
    One-Electron Energy =                -911.8833805599030029
    Two-Electron Energy =                 356.3904190485676509
    DFT Exchange-Correlation Energy =       0.0000000000000000
    Empirical Dispersion Energy =           0.0000000000000000
    PCM Polarization Energy =               0.0000000000000000
    EFP Energy =                            0.0000000000000000
    Total Energy =                       -305.9819457568363532
    Molecular point group: c1
  Basis Set: CC-PVTZ
  Basis Set:

  -Total Gradient:
     Atom            X                  Y                   Z
    ------   -----------------  -----------------  -----------------
       1       -0.000047360207     0.000013565737    -0.000030608146
       2        0.000952192239     0.000393071344     0.004878575031
       3        0.000033767765     0.000024105380     0.000102114107
       4       -0.001133352164    -0.001754781146    -0.007167580544
       5       -0.000019335749    -0.000001755781    -0.000039109910
       6        0.000002195845    -0.000002708234    -0.000016403981
       7       -0.000007752217    -0.000031457969    -0.000030967081
       8       -0.001576852789     0.006257021663     0.001256542661
       9        0.000021725908     0.000005741416     0.000107666704
      10        0.001733098222    -0.004913790444     0.000997552159
      11       -0.000026332220     0.000020746523    -0.000009648515
      12        0.000037701360    -0.000007984368    -0.000000218373
      13        0.000012096115     0.000000704185    -0.000025342658
      14        0.000018207892    -0.000002478304    -0.000022571456

  **** Optimization is complete! (in 9 steps) ****
    Final optimized geometry and variables:
    Molecular point group: c1

    Geometry (in Angstrom), charge = 0, multiplicity = 1:

    O           -0.835470707809     1.125229373436    -0.215657852710
    C           -0.841100314332    -0.026301931635     0.055273366761
    C           -2.040030818613    -0.761368910885     0.590001602826
    O            0.182049949773    -0.847224152537    -0.089417188443
    H           -2.279810531705    -1.590227077051    -0.063189871772
    H           -2.877142367680    -0.085705897390     0.657145683892
    H           -1.810423748262    -1.168767896151     1.566235266261
    C            1.516963603509    -0.444303948890    -0.396475018088
    C            1.971334993934     0.932415620754     0.047935472109
    H            1.668491650511    -0.603839584001    -1.456280252589
    H            2.114991165426    -1.188816250046     0.110061905348
    H            3.048477429368     0.968129388980    -0.077457559679
    H            1.523864051949     1.727002222568    -0.523479925059
    H            1.752374974100     1.096880219630     1.095549190904

  Mulliken Charges: (a.u.)
   Center  Symbol    Alpha    Beta     Spin     Total
       1     O     4.19819  4.19819  0.00000 -0.39639
       2     C     2.80329  2.80329  0.00000  0.39342
       3     C     3.13752  3.13752  0.00000 -0.27504
       4     O     4.15530  4.15530  0.00000 -0.31059
       5     H     0.44499  0.44499  0.00000  0.11003
       6     H     0.43883  0.43883  0.00000  0.12234
       7     H     0.44733  0.44733  0.00000  0.10534
       8     C     2.98048  2.98048  0.00000  0.03904
       9     C     3.15262  3.15262  0.00000 -0.30525
      10     H     0.45512  0.45512  0.00000  0.08976
      11     H     0.45049  0.45049  0.00000  0.09902
      12     H     0.45138  0.45138  0.00000  0.09723
      13     H     0.43393  0.43393  0.00000  0.13215
      14     H     0.45053  0.45053  0.00000  0.09894

   Total alpha = 24.00000, Total beta = 24.00000, Total charge =  0.00000
