                              Psi4 1.0.54 Driver

  ==> Input File <==

--------------------------------------------------------------------------
set {
	reference rhf
	basis cc-pvtz
}

set_num_threads( 4 )
memory 2 gb

molecule MOL {
0 1

O	 -2.681554	 0.967999	 0.039393
C	 -1.922978	 0.063265	 -0.045005
C	 -2.290374	 -1.324214	 -0.490396
O	 -0.637375	 0.157174	 0.243149
H	 -2.056187	 -2.031851	 0.294541
H	 -3.342174	 -1.362447	 -0.722544
H	 -1.705982	 -1.593594	 -1.360734
C	 0.162530	 -1.009518	 0.097799
C	 1.587210	 -0.664190	 0.477086
H	 0.096803	 -1.356267	 -0.924704
H	 -0.233803	 -1.785900	 0.736810
C	 2.256770	 0.342732	 -0.454344
H	 2.154716	 -1.590834	 0.479041
H	 1.598751	 -0.289614	 1.496104
C	 3.698146	 0.643205	 -0.057145
H	 2.235038	 -0.042575	 -1.470299
H	 1.683491	 1.262594	 -0.461300
H	 4.150202	 1.356548	 -0.736242
H	 4.305463	 -0.255904	 -0.069842
H	 3.749130	 1.061068	 0.942759

	symmetry c1
}
set optking {
	frozen_dihedral = ("
		1 2 4 8
	")
}

ee,wfn = optimize('scf', return_wfn=True)
oeprop( wfn, 'DIPOLE', 'QUADRUPOLE', 'MULLIKEN_CHARGES')
f=open( 'psi4out.xyz', 'w' )
f.write( "20  " )
f.write( str(ee) + "\n" )
f.write( MOL.save_string_xyz() )
f.close()
--------------------------------------------------------------------------

    Molecular point group: c1
  Charge       = 0
  Multiplicity = 1
  Basis Set: CC-PVTZ
  Basis Set:
  @DF-RHF Final Energy:  -384.06368889118181
    Total Energy =                       -384.0636888911816413
    Molecular point group: c1
  Basis Set: CC-PVTZ
  Basis Set:
  Basis Set: CC-PVTZ
  Basis Set:
  @DF-RHF Final Energy:  -384.03517722331935
    Total Energy =                       -384.0351772233199767
  Basis Set: CC-PVTZ
  Basis Set:
  Basis Set: CC-PVTZ
  Basis Set:
  @DF-RHF Final Energy:  -384.06990631252683
    Total Energy =                       -384.0699063125268822
  Basis Set: CC-PVTZ
  Basis Set:
  Basis Set: CC-PVTZ
  Basis Set:
  @DF-RHF Final Energy:  -384.07345172826723
    Total Energy =                       -384.0734517282676279
  Basis Set: CC-PVTZ
  Basis Set:
  @DF-RHF Final Energy:  -384.07410675528280
    Total Energy =                       -384.0741067552829691
  @DF-RHF Final Energy:  -384.07434505265479
    Total Energy =                       -384.0743450526549623
  Basis Set: CC-PVTZ
  Basis Set:
  @DF-RHF Final Energy:  -384.07437674959368
    Total Energy =                       -384.0743767495938528
  Basis Set: CC-PVTZ
  Basis Set:
  Basis Set: CC-PVTZ
  Basis Set:
  @DF-RHF Final Energy:  -384.07435426886752
    Total Energy =                       -384.0743542688674097
  Basis Set: CC-PVTZ
  Basis Set:
  Basis Set: CC-PVTZ
  Basis Set:
  @DF-RHF Final Energy:  -384.07439174238107
    Total Energy =                       -384.0743917423809535
  Basis Set: CC-PVTZ
  Basis Set:
  Charge       = 0
  Multiplicity = 1
  Basis Set: CC-PVTZ
  Basis Set:

    Orbital Energies (a.u.)
    -----------------------

    Doubly Occupied:

       1A    -20.593299     2A    -20.526156     3A    -11.368193
       4A    -11.295034     5A    -11.240397     6A    -11.228791
       7A    -11.219935     8A    -11.212076     9A     -1.465553
      10A     -1.366567    11A     -1.088311    12A     -1.020029
      13A     -1.001869    14A     -0.890869    15A     -0.815983
      16A     -0.781789    17A     -0.700426    18A     -0.691284
      19A     -0.664616    20A     -0.635039    21A     -0.604852
      22A     -0.597074    23A     -0.579707    24A     -0.560327
      25A     -0.546523    26A     -0.537554    27A     -0.519482
      28A     -0.487981    29A     -0.478918    30A     -0.476368
      31A     -0.444034    32A     -0.434861

  @DF-RHF Final Energy:  -384.07439191428324

   => Energetics <=

    Nuclear Repulsion Energy =            385.3487398034298508
    One-Electron Energy =               -1286.6984777119682803
    Two-Electron Energy =                 517.2753459942551899
    DFT Exchange-Correlation Energy =       0.0000000000000000
    Empirical Dispersion Energy =           0.0000000000000000
    PCM Polarization Energy =               0.0000000000000000
    EFP Energy =                            0.0000000000000000
    Total Energy =                       -384.0743919142831828
    Molecular point group: c1
  Basis Set: CC-PVTZ
  Basis Set:

  -Total Gradient:
     Atom            X                  Y                   Z
    ------   -----------------  -----------------  -----------------
       1       -0.000025086860    -0.000010496914     0.000007953546
       2        0.000004681476     0.000024302780     0.000028554331
       3        0.000017456741     0.000010423884    -0.000067260650
       4       -0.000007550933    -0.000022407105    -0.000010744717
       5        0.000005429791     0.000007186714     0.000025802810
       6       -0.000006287682     0.000001789884     0.000003573697
       7       -0.000009115370    -0.000010884211     0.000018286181
       8        0.000003597146     0.000016613888    -0.000020693721
       9        0.000008046908    -0.000013308088     0.000000812231
      10        0.000010176334    -0.000006441981     0.000008552669
      11       -0.000010649978     0.000001105159    -0.000000381859
      12       -0.000003399076     0.000005921577     0.000003171307
      13        0.000007499181     0.000003863639     0.000003072827
      14        0.000000184057     0.000001036842    -0.000003194165
      15        0.000003950019    -0.000004098705    -0.000000246174
      16       -0.000001112332    -0.000001322850     0.000001799305
      17        0.000002846203    -0.000003514724     0.000002607763
      18        0.000000226421    -0.000001061831    -0.000000130701
      19        0.000000332541     0.000001741227     0.000000738009
      20       -0.000001224592    -0.000000449186    -0.000002272686

  **** Optimization is complete! (in 10 steps) ****
    Final optimized geometry and variables:
    Molecular point group: c1

    Geometry (in Angstrom), charge = 0, multiplicity = 1:

    O           -2.507940531982     1.229102300504     0.067348084529
    C           -1.921205820013     0.207999691157     0.002857861952
    C           -2.596230162806    -1.094657638216    -0.350022273602
    O           -0.615939836443     0.192160107145     0.248527338959
    H           -2.480022437551    -1.818902438754     0.446013760061
    H           -3.643134670322    -0.896188087918    -0.506146215320
    H           -2.170704871478    -1.518514061061    -1.250562179662
    C            0.176324566361    -0.977237972098     0.197551899158
    C            1.607076171834    -0.593195746893     0.517855329740
    H            0.118742941541    -1.423347172372    -0.788508030760
    H           -0.183752927573    -1.698251415963     0.920850640744
    C            2.246344171210     0.334299470460    -0.511723915033
    H            2.182647519685    -1.512075838392     0.591494789853
    H            1.628151858926    -0.128473808381     1.498095136779
    C            3.686151833163     0.693740901649    -0.161340966617
    H            2.221424313668    -0.144165114316    -1.487630219433
    H            1.655136353421     1.237926225359    -0.594221361268
    H            4.116889629774     1.348821603676    -0.909196798767
    H            4.310088444230    -0.191904682640    -0.098207456090
    H            3.739257918862     1.204077933820     0.794309837799

  Mulliken Charges: (a.u.)
   Center  Symbol    Alpha    Beta     Spin     Total
       1     O     4.18383  4.18383  0.00000 -0.36766
       2     C     2.82132  2.82132  0.00000  0.35736
       3     C     3.16679  3.16679  0.00000 -0.33358
       4     O     4.12817  4.12817  0.00000 -0.25633
       5     H     0.44701  0.44701  0.00000  0.10597
       6     H     0.42498  0.42498  0.00000  0.15003
       7     H     0.44651  0.44651  0.00000  0.10698
       8     C     2.99816  2.99816  0.00000  0.00368
       9     C     3.08212  3.08212  0.00000 -0.16424
      10     H     0.45918  0.45918  0.00000  0.08164
      11     H     0.45048  0.45048  0.00000  0.09904
      12     C     3.08636  3.08636  0.00000 -0.17272
      13     H     0.45285  0.45285  0.00000  0.09429
      14     H     0.44827  0.44827  0.00000  0.10345
      15     C     3.15061  3.15061  0.00000 -0.30121
      16     H     0.45770  0.45770  0.00000  0.08460
      17     H     0.43945  0.43945  0.00000  0.12110
      18     H     0.44647  0.44647  0.00000  0.10706
      19     H     0.45693  0.45693  0.00000  0.08614
      20     H     0.45280  0.45280  0.00000  0.09441

   Total alpha = 32.00000, Total beta = 32.00000, Total charge =  0.00000

*** Psi4 exiting successfully. Buy a developer a beer!
