  ==> Input File <==

--------------------------------------------------------------------------
set {
	reference rhf
	basis 6-31G*
}

set_num_threads( 4 )
memory 2 gb

molecule MOL {
0 1

H	 -0.367348	 2.047014	 -0.308205
C	 0.352277	 1.337084	 0.083769
N	 -0.000016	 0.000074	 -0.335546
H	 1.328359	 1.600444	 -0.307950
H	 0.381933	 1.450534	 1.172486
C	 -0.465943	 -0.031666	 -1.703089
C	 1.075811	 -0.937889	 -0.109761
H	 -0.787390	 -1.034969	 -1.958834
H	 -1.316688	 0.630648	 -1.817267
H	 0.300131	 0.273014	 -2.423633
H	 1.350422	 -0.937252	 0.939030
H	 0.751237	 -1.939318	 -0.369048
H	 1.972692	 -0.709829	 -0.695014

	symmetry c1
}
set optking {
	frozen_dihedral = ("
		6 3 2 1
	")
}

ee = optimize('scf')
oeprop('DIPOLE', 'QUADRUPOLE', 'MULLIKEN_CHARGES')
f=open( 'psi4out.xyz', 'w' )
f.write( "13  " )
f.write( str(ee) + "\n" )
f.write( MOL.save_string_xyz() )
f.close()
--------------------------------------------------------------------------

    Molecular point group: c1
  Charge       = 0
  Multiplicity = 1
  Basis Set: 6-31G*
  Basis Set:
  @DF-RHF Final Energy:  -173.26725429431210
    Total Energy =                       -173.2672542943120959
    Molecular point group: c1
  Basis Set: 6-31G*
  Basis Set:
  Basis Set: 6-31G*
  Basis Set:
  @DF-RHF Final Energy:  -173.26798097707783
    Total Energy =                       -173.2679809770778547
  Basis Set: 6-31G*
  Basis Set:
  Basis Set: 6-31G*
  Basis Set:
  @DF-RHF Final Energy:  -173.26806098923933
    Total Energy =                       -173.2680609892394159
  Basis Set: 6-31G*
  Basis Set:
  Charge       = 0
  Multiplicity = 1
  Basis Set: 6-31G*
  Basis Set:

    Orbital Energies (a.u.)
    -----------------------

    Doubly Occupied:

       1A    -15.542031     2A    -11.236050     3A    -11.235800
       4A    -11.235765     5A     -1.223903     6A     -0.952434
       7A     -0.951540     8A     -0.805661     9A     -0.639882
      10A     -0.631236    11A     -0.630172    12A     -0.545653
      13A     -0.542772    14A     -0.517407    15A     -0.502943
      16A     -0.501757    17A     -0.342563

  @DF-RHF Final Energy:  -173.26806286991243

   => Energetics <=

    Nuclear Repulsion Energy =            139.1240843182135052
    One-Electron Energy =                -508.7091573780987801
    Two-Electron Energy =                 196.3170101899727626
    DFT Exchange-Correlation Energy =       0.0000000000000000
    Empirical Dispersion Energy =           0.0000000000000000
    PCM Polarization Energy =               0.0000000000000000
    EFP Energy =                            0.0000000000000000
    Total Energy =                       -173.2680628699125407
    Molecular point group: c1
  Basis Set: 6-31G*
  Basis Set:

  -Total Gradient:
     Atom            X                  Y                   Z
    ------   -----------------  -----------------  -----------------
       1        0.001983660804     0.000433294734    -0.003086960776
       2       -0.003488120355    -0.000346730503     0.004226543294
       3        0.004071922032    -0.000461899750    -0.002045421001
       4        0.000002288940    -0.000007036362    -0.000027809991
       5       -0.000020547845    -0.000070018817    -0.000044632994
       6       -0.002643044515     0.000505545580     0.000781727101
       7        0.000127026204    -0.000050976906     0.000025566738
       8        0.000030378193     0.000000575681     0.000068459143
       9       -0.000017950435     0.000016808907     0.000013923645
      10       -0.000006754165    -0.000024527108     0.000064275786
      11        0.000011635657    -0.000004144100     0.000003440517
      12       -0.000007032041    -0.000000317573     0.000004366839
      13       -0.000043462475     0.000009426218     0.000016521699

  **** Optimization is complete! (in 4 steps) ****
    Final optimized geometry and variables:
    Molecular point group: c1

    Geometry (in Angstrom), charge = 0, multiplicity = 1:

    H           -0.627159828074     1.953412351475     0.246862321916
    C            0.101634273080     1.242297145122     0.616760458969
    N           -0.244955683333    -0.091191884477     0.179343699412
    H            1.078755612688     1.567840088745     0.244510648730
    H            0.122143598440     1.290310525725     1.699938453160
    C           -0.730970002828    -0.133918603594    -1.179629373051
    C            0.812162713027    -1.040358469802     0.430273935129
    H           -1.046508938287    -1.142557500014    -1.421903031692
    H           -1.590653320342     0.517869086313    -1.283279741166
    H            0.018013747907     0.170524971708    -1.918383204298
    H            1.080163487028    -1.021307086567     1.481024625843
    H            0.475156493050    -2.042575299985     0.190290182024
    H            1.716699643388    -0.836368493951    -0.152138733863

  Mulliken Charges: (a.u.)
   Center  Symbol    Alpha    Beta     Spin     Total
       1     H     0.41828  0.41828  0.00000  0.16344
       2     C     3.14159  3.14159  0.00000 -0.28319
       3     N     3.76818  3.76818  0.00000 -0.53636
       4     H     0.43478  0.43478  0.00000  0.13045
       5     H     0.41572  0.41572  0.00000  0.16856
       6     C     3.14120  3.14120  0.00000 -0.28241
       7     C     3.14154  3.14154  0.00000 -0.28307
       8     H     0.41737  0.41737  0.00000  0.16526
       9     H     0.41666  0.41666  0.00000  0.16669
      10     H     0.43558  0.43558  0.00000  0.12884
      11     H     0.41700  0.41700  0.00000  0.16600
      12     H     0.41701  0.41701  0.00000  0.16598
      13     H     0.43509  0.43509  0.00000  0.12982

   Total alpha = 17.00000, Total beta = 17.00000, Total charge = -0.00000
