                              Psi4 1.0.54 Driver

  ==> Input File <==

--------------------------------------------------------------------------
set {
	reference rhf
	basis cc-pvtz
}

set_num_threads( 4 )
memory 2 gb

molecule MOL {
0 1

O	 2.868453	 1.353349	 -0.000734
C	 2.841259	 0.166180	 -0.000295
C	 1.542794	 -0.614730	 -0.000853
C	 4.113372	 -0.651103	 0.000743
C	 0.288398	 0.247429	 0.000314
H	 1.557171	 -1.273139	 -0.866508
H	 1.557484	 -1.274998	 0.863344
C	 0.522557	 1.622980	 0.618488
H	 -0.497741	 -0.269507	 0.538717
H	 -0.068735	 0.356765	 -1.017348
C	 -0.727823	 2.497522	 0.626050
H	 0.882882	 1.505496	 1.638114
H	 1.313532	 2.134774	 0.074717
C	 -0.501879	 3.874813	 1.243104
H	 -1.518979	 1.986882	 1.169587
H	 -1.088315	 2.616194	 -0.392817
C	 -1.755811	 4.742816	 1.247147
H	 -0.142657	 3.757178	 2.261956
H	 0.287905	 4.386470	 0.699629
H	 -2.554257	 4.274059	 1.812648
H	 -1.561435	 5.712302	 1.691373
H	 -2.120357	 4.908217	 0.238786
H	 4.145311	 -1.294584	 -0.871587
H	 4.970080	 0.004978	 -0.000091
H	 4.145223	 -1.291980	 0.874988

	symmetry c1
}
set optking {
	frozen_dihedral = ("
		9 5 3 6
	")
}

ee,wfn = optimize('scf', return_wfn=True)
oeprop( wfn, 'DIPOLE', 'QUADRUPOLE', 'MULLIKEN_CHARGES')
f=open( 'psi4out.xyz', 'w' )
f.write( "25  " )
f.write( str(ee) + "\n" )
f.write( MOL.save_string_xyz() )
f.close()
--------------------------------------------------------------------------

    Molecular point group: c1
  Charge       = 0
  Multiplicity = 1
  Basis Set: CC-PVTZ
  Basis Set:
  @DF-RHF Final Energy:  -387.24225557957180
    Total Energy =                       -387.2422555795715198
    Molecular point group: c1
  Basis Set: CC-PVTZ
  Basis Set:
  Basis Set: CC-PVTZ
  Basis Set:
  @DF-RHF Final Energy:  -387.26025709395981
    Total Energy =                       -387.2602570939595807
  Basis Set: CC-PVTZ
  Basis Set:
  Basis Set: CC-PVTZ
  Basis Set:
  @DF-RHF Final Energy:  -387.26351601207614
    Total Energy =                       -387.2635160120761384
  Basis Set: CC-PVTZ
  Basis Set:
  Basis Set: CC-PVTZ
  Basis Set:
  @DF-RHF Final Energy:  -387.26207247705355
    Total Energy =                       -387.2620724770534935
  Basis Set: CC-PVTZ
  Basis Set:
  @DF-RHF Final Energy:  -387.26553303017567
    Total Energy =                       -387.2655330301752201
  @DF-RHF Final Energy:  -387.26407989679780
    Total Energy =                       -387.2640798967975115
  @DF-RHF Final Energy:  -387.26675422211224
    Total Energy =                       -387.2667542221125814
  @DF-RHF Final Energy:  -387.26556148109330
    Total Energy =                       -387.2655614810929592
  @DF-RHF Final Energy:  -387.26734416557770
    Total Energy =                       -387.2673441655774695
  @DF-RHF Final Energy:  -387.26739107871759
    Total Energy =                       -387.2673910787176510
  @DF-RHF Final Energy:  -387.26740384210979
    Total Energy =                       -387.2674038421100704
  Basis Set: CC-PVTZ
  Basis Set:
  @DF-RHF Final Energy:  -387.26740668048689
    Total Energy =                       -387.2674066804867152
  Basis Set: CC-PVTZ
  Basis Set:
  Basis Set: CC-PVTZ
  Basis Set:
  @DF-RHF Final Energy:  -387.26740813355804
    Total Energy =                       -387.2674081335577512
  Basis Set: CC-PVTZ
  Basis Set:
  Basis Set: CC-PVTZ
  Basis Set:
  @DF-RHF Final Energy:  -387.26740919601366
    Total Energy =                       -387.2674091960135456
  Basis Set: CC-PVTZ
  Basis Set:
  Charge       = 0
  Multiplicity = 1
  Basis Set: CC-PVTZ
  Basis Set:

    Orbital Energies (a.u.)
    -----------------------

    Doubly Occupied:

       1A    -20.536220     2A    -11.320869     3A    -11.230560
       4A    -11.227168     5A    -11.221635     6A    -11.210742
       7A    -11.209583     8A    -11.208718     9A    -11.204613
      10A     -1.397804    11A     -1.092170    12A     -1.055214
      13A     -1.013885    14A     -0.969151    15A     -0.891363
      16A     -0.817568    17A     -0.789846    18A     -0.724596
      19A     -0.667351    20A     -0.640703    21A     -0.635012
      22A     -0.621531    23A     -0.601124    24A     -0.585101
      25A     -0.566283    26A     -0.563149    27A     -0.536919
      28A     -0.532923    29A     -0.515006    30A     -0.494283
      31A     -0.485887    32A     -0.474483    33A     -0.462198
      34A     -0.460093    35A     -0.442229    36A     -0.397842

  @DF-RHF Final Energy:  -387.26740925464128

   => Energetics <=

    Nuclear Repulsion Energy =            451.0857574342095404
    One-Electron Energy =               -1419.0986957178045031
    Two-Electron Energy =                 580.7455290289535697
    DFT Exchange-Correlation Energy =       0.0000000000000000
    Empirical Dispersion Energy =           0.0000000000000000
    PCM Polarization Energy =               0.0000000000000000
    EFP Energy =                            0.0000000000000000
    Total Energy =                       -387.2674092546413931
    Molecular point group: c1
  Basis Set: CC-PVTZ
  Basis Set:

  -Total Gradient:
     Atom            X                  Y                   Z
    ------   -----------------  -----------------  -----------------
       1       -0.000008505540     0.000056870541    -0.000005702463
       2       -0.000006482090    -0.000024074054    -0.000016963376
       3       -0.004431926108    -0.006087041444     0.005153715080
       4        0.000021505504     0.000004298680     0.000003458120
       5       -0.001997783961    -0.001283779383    -0.008515878557
       6        0.004007018815     0.005261609261    -0.003131068521
       7       -0.000008078691     0.000012567258     0.000027976208
       8        0.000027072005     0.000024411345    -0.000014631290
       9        0.002395119043     0.002042535562     0.006502449823
      10        0.000031698052     0.000012612548    -0.000010009952
      11        0.000001035852     0.000004500274    -0.000000468203
      12        0.000000546568    -0.000002514912     0.000001106226
      13       -0.000000768587    -0.000005896431     0.000001454616
      14       -0.000001031362     0.000004853848    -0.000009091878
      15       -0.000010918641     0.000004544503     0.000000429131
      16        0.000001328818     0.000003398946    -0.000004262878
      17       -0.000002803081    -0.000006705819     0.000012297546
      18        0.000002548560     0.000001397681    -0.000000199960
      19        0.000000724959     0.000002019306    -0.000005585024
      20       -0.000006539511    -0.000001376141    -0.000000453226
      21       -0.000000076936    -0.000001583400     0.000003053858
      22        0.000004908879     0.000000358675    -0.000000788579
      23       -0.000006477604    -0.000034919290    -0.000010909910
      24       -0.000009478309     0.000007717860    -0.000003107991
      25       -0.000002636632     0.000004194587     0.000023181199

  **** Optimization is complete! (in 15 steps) ****
    Final optimized geometry and variables:
    Molecular point group: c1

    Geometry (in Angstrom), charge = 0, multiplicity = 1:

    O            2.032467547285    -0.376527922178    -1.484523609344
    C            1.831023496804    -1.345328075951    -0.827173409752
    C            0.452673665235    -1.982243194288    -0.747538418606
    C            2.946087242075    -2.040194921054    -0.083590780765
    C           -0.731928868340    -1.006926517405    -0.620150692339
    H            0.387974303444    -2.499672296391    -1.702048228580
    H            0.432796932999    -2.724218297601     0.040004274889
    C           -0.481202766562     0.219328483141     0.262452957571
    H           -1.542568709452    -1.554717275762    -0.150244315930
    H           -1.061672138884    -0.686817914754    -1.599606751358
    C           -1.749859830564     1.035613822932     0.494516482992
    H           -0.087871287004    -0.105215601783     1.224985771401
    H            0.273933285047     0.850351821484    -0.185452776783
    C           -1.522450675982     2.272548538139     1.358914533303
    H           -2.507571907465     0.408965424820     0.959794496755
    H           -2.157533205243     1.342147383984    -0.466053626476
    C           -2.792076579914     3.085875763070     1.587715875383
    H           -1.112011618396     1.969262596931     2.318449830728
    H           -0.770438980369     2.902069782026     0.891979953915
    H           -3.553169247788     2.493014998789     2.084422340577
    H           -2.596041044718     3.955374445868     2.204658997009
    H           -3.207799495947     3.434428962726     0.648130079308
    H            2.980532156392    -3.090256643337    -0.353947088175
    H            3.891386192251    -1.570154049367    -0.307200633262
    H            2.755341569557    -1.990641194811     0.983618854831

  Mulliken Charges: (a.u.)
   Center  Symbol    Alpha    Beta     Spin     Total
       1     O     4.18049  4.18049  0.00000 -0.36098
       2     C     2.84783  2.84783  0.00000  0.30433
       3     C     3.12434  3.12434  0.00000 -0.24868
       4     C     3.15347  3.15347  0.00000 -0.30694
       5     C     3.08438  3.08438  0.00000 -0.16875
       6     H     0.43771  0.43771  0.00000  0.12457
       7     H     0.44172  0.44172  0.00000  0.11656
       8     C     3.10175  3.10175  0.00000 -0.20349
       9     H     0.45041  0.45041  0.00000  0.09919
      10     H     0.44587  0.44587  0.00000  0.10827
      11     C     3.08823  3.08823  0.00000 -0.17645
      12     H     0.45914  0.45914  0.00000  0.08171
      13     H     0.43555  0.43555  0.00000  0.12890
      14     C     3.08318  3.08318  0.00000 -0.16635
      15     H     0.45678  0.45678  0.00000  0.08643
      16     H     0.45419  0.45419  0.00000  0.09162
      17     C     3.15098  3.15098  0.00000 -0.30196
      18     H     0.45605  0.45605  0.00000  0.08791
      19     H     0.45238  0.45238  0.00000  0.09524
      20     H     0.45608  0.45608  0.00000  0.08785
      21     H     0.44855  0.44855  0.00000  0.10290
      22     H     0.45480  0.45480  0.00000  0.09040
      23     H     0.44974  0.44974  0.00000  0.10052
      24     H     0.43656  0.43656  0.00000  0.12688
      25     H     0.44984  0.44984  0.00000  0.10033

   Total alpha = 36.00000, Total beta = 36.00000, Total charge = -0.00000

*** Psi4 exiting successfully. Buy a developer a beer!
