  ==> Input File <==

--------------------------------------------------------------------------
set {
	reference rhf
	basis 6-31G*
}

set_num_threads( 4 )
memory 2 gb

molecule MOL {
0 1

H	 -2.798360	 -0.862255	 -0.071053
N	 -1.863561	 -0.715187	 0.256814
C	 -1.344686	 0.554728	 -0.219830
H	 -1.300452	 -1.461917	 -0.101532
C	 0.081427	 0.741154	 0.254071
H	 -1.362155	 0.656231	 -1.305829
H	 -1.952773	 1.354456	 0.191809
O	 0.874168	 -0.245412	 -0.342030
H	 0.444037	 1.730782	 -0.023037
H	 0.121165	 0.653424	 1.337565
C	 2.125591	 0.198329	 -0.759888
H	 2.641522	 -0.643416	 -1.201450
H	 2.039742	 0.987684	 -1.504555
H	 2.713375	 0.574056	 0.075066

	symmetry c1
}
set optking {
	frozen_dihedral = ("
		11 8 5 3
	")
}

ee = optimize('scf')
oeprop('DIPOLE', 'QUADRUPOLE', 'MULLIKEN_CHARGES')
f=open( 'psi4out.xyz', 'w' )
f.write( "14  " )
f.write( str(ee) + "\n" )
f.write( MOL.save_string_xyz() )
f.close()
--------------------------------------------------------------------------

    Molecular point group: c1
  Charge       = 0
  Multiplicity = 1
  Basis Set: 6-31G*
  Basis Set:
  @DF-RHF Final Energy:  -248.12164683002163
    Total Energy =                       -248.1216468300215752
    Molecular point group: c1
  Basis Set: 6-31G*
  Basis Set:
  Basis Set: 6-31G*
  Basis Set:
  @DF-RHF Final Energy:  -248.12182995300486
    Total Energy =                       -248.1218299530047489
  Basis Set: 6-31G*
  Basis Set:
  Basis Set: 6-31G*
  Basis Set:
  @DF-RHF Final Energy:  -248.12188125660401
    Total Energy =                       -248.1218812566038991
  Basis Set: 6-31G*
  Basis Set:
  Charge       = 0
  Multiplicity = 1
  Basis Set: 6-31G*
  Basis Set:

    Orbital Energies (a.u.)
    -----------------------

    Doubly Occupied:

       1A    -20.555097     2A    -15.527770     3A    -11.267883
       4A    -11.265712     5A    -11.240524     6A     -1.378166
       7A     -1.172986     8A     -0.998550     9A     -0.910214
      10A     -0.813694    11A     -0.680854    12A     -0.675332
      13A     -0.643126    14A     -0.612495    15A     -0.603728
      16A     -0.540976    17A     -0.533101    18A     -0.498573
      19A     -0.471977    20A     -0.414051    21A     -0.378518

  @DF-RHF Final Energy:  -248.12188222025247

   => Energetics <=

    Nuclear Repulsion Energy =            194.3705339255501485
    One-Electron Energy =                -722.6181784679240536
    Two-Electron Energy =                 280.1257623221214317
    DFT Exchange-Correlation Energy =       0.0000000000000000
    Empirical Dispersion Energy =           0.0000000000000000
    PCM Polarization Energy =               0.0000000000000000
    EFP Energy =                            0.0000000000000000
    Total Energy =                       -248.1218822202524734
    Molecular point group: c1
  Basis Set: 6-31G*
  Basis Set:

  -Total Gradient:
     Atom            X                  Y                   Z
    ------   -----------------  -----------------  -----------------
       1        0.000010275511     0.000005356759    -0.000004909020
       2        0.000013497526    -0.000043752712    -0.000018877855
       3        0.000324240271     0.001212916672    -0.001387926201
       4       -0.000008298995    -0.000007289920    -0.000005693046
       5       -0.000783693946    -0.001350335991     0.001088452052
       6        0.000045733482    -0.000020416619     0.000037304106
       7       -0.000012536902     0.000008629477     0.000004312494
       8        0.001290582035    -0.000265542239     0.002280283981
       9       -0.000003264841     0.000023909680    -0.000013984564
      10       -0.000053565993     0.000003326667    -0.000033673457
      11       -0.000763436586     0.000440160993    -0.001970393804
      12        0.000014685088    -0.000002748447    -0.000004299174
      13       -0.000039955992    -0.000002795326     0.000029847025
      14       -0.000034260655    -0.000001418993    -0.000000442535

  **** Optimization is complete! (in 4 steps) ****
    Final optimized geometry and variables:
    Molecular point group: c1

    Geometry (in Angstrom), charge = 0, multiplicity = 1:

    H           -2.774217991070    -0.976157476284     0.081013464146
    N           -1.844796694106    -0.818390831044     0.418829538938
    C           -1.340544081311     0.464909198957    -0.036612211066
    H           -1.267197332537    -1.553187391261     0.058323849751
    C            0.088498594484     0.658420138081     0.429993448694
    H           -1.363848325107     0.585010101465    -1.121128766280
    H           -1.956013958754     1.250383796795     0.392156206326
    O            0.896497379089    -0.329151302938    -0.155592504089
    H            0.429913450685     1.649247407402     0.138193255070
    H            0.144550532438     0.582278994689     1.511563678667
    C            2.151702969075     0.092687954719    -0.585663894445
    H            2.650960300427    -0.762365053153    -1.020928979507
    H            2.072457073796     0.874293593115    -1.338420834431
    H            2.755516198499     0.466465357639     0.238706413694

  Mulliken Charges: (a.u.)
   Center  Symbol    Alpha    Beta     Spin     Total
       1     H     0.33304  0.33304  0.00000  0.33392
       2     N     3.92520  3.92520  0.00000 -0.85039
       3     C     3.06532  3.06532  0.00000 -0.13063
       4     H     0.32302  0.32302  0.00000  0.35395
       5     C     2.99116  2.99116  0.00000  0.01768
       6     H     0.43078  0.43078  0.00000  0.13844
       7     H     0.42194  0.42194  0.00000  0.15612
       8     O     4.31190  4.31190  0.00000 -0.62381
       9     H     0.43099  0.43099  0.00000  0.13801
      10     H     0.41698  0.41698  0.00000  0.16604
      11     C     3.07841  3.07841  0.00000 -0.15682
      12     H     0.41298  0.41298  0.00000  0.17405
      13     H     0.42985  0.42985  0.00000  0.14030
      14     H     0.42843  0.42843  0.00000  0.14313

   Total alpha = 21.00000, Total beta = 21.00000, Total charge = -0.00000
