  ==> Input File <==

--------------------------------------------------------------------------
set {
	reference rhf
	basis 6-31G*
}

set_num_threads( 1 )
memory 2 gb

molecule MOL {
0 1

H	 1.800238	 -1.258939	 0.645264
C	 1.951159	 -0.223429	 0.317018
C	 0.692068	 0.589600	 0.160137
O	 3.048605	 0.183688	 0.112084
C	 -0.558097	 -0.297372	 0.091132
H	 0.791645	 1.202255	 -0.728243
H	 0.616171	 1.253469	 1.020572
C	 -1.850991	 0.512573	 -0.019058
H	 -0.476753	 -0.965681	 -0.762987
H	 -0.604799	 -0.930658	 0.975228
C	 -3.096943	 -0.368295	 -0.099594
H	 -1.800724	 1.150330	 -0.898172
H	 -1.931651	 1.177355	 0.838044
H	 -3.060452	 -1.020287	 -0.967456
H	 -3.996858	 0.233488	 -0.175704
H	 -3.191959	 -0.995686	 0.782074

	symmetry c1
}
set optking {
	frozen_dihedral = ("
		9 5 8 12,
		6 3 5 9
	")
}

ee = energy('scf')
oeprop('DIPOLE', 'QUADRUPOLE', 'MULLIKEN_CHARGES')
f=open( 'psi4out.xyz', 'w' )
f.write( "16  " )
f.write( str(ee) + "\n" )
f.write( MOL.save_string_xyz() )
f.close()
--------------------------------------------------------------------------

    Molecular point group: c1

    Geometry (in Angstrom), charge = 0, multiplicity = 1:

       Center              X                  Y                   Z               Mass
    ------------   -----------------  -----------------  -----------------  -----------------
           H          1.771650462652    -1.320972690237     0.553217710188     1.007825032070
           C          1.922571462652    -0.285462690237     0.224971710188    12.000000000000
           C          0.663480462652     0.527566309763     0.068090710188    12.000000000000
           O          3.020017462652     0.121654309763     0.020037710188    15.994914619560
           C         -0.586684537348    -0.359405690237    -0.000914289812    12.000000000000
           H          0.763057462652     1.140221309763    -0.820289289812     1.007825032070
           H          0.587583462652     1.191435309763     0.928525710188     1.007825032070
           C         -1.879578537348     0.450539309763    -0.111104289812    12.000000000000
           H         -0.505340537348    -1.027714690237    -0.855033289812     1.007825032070
           H         -0.633386537348    -0.992691690237     0.883181710188     1.007825032070
           C         -3.125530537348    -0.430328690237    -0.191640289812    12.000000000000
           H         -1.829311537348     1.088296309763    -0.990218289812     1.007825032070
           H         -1.960238537348     1.115321309763     0.745997710188     1.007825032070
           H         -3.089039537348    -1.082320690237    -1.059502289812     1.007825032070
           H         -4.025445537348     0.171454309763    -0.267750289812     1.007825032070
           H         -3.220546537348    -1.057719690237     0.690027710188     1.007825032070

  Charge       = 0
  Multiplicity = 1
  Basis Set: 6-31G*
  Basis Set:

    Orbital Energies (a.u.)
    -----------------------

    Doubly Occupied:

       1A    -20.561757     2A    -11.327063     3A    -11.236061
       4A    -11.234803     5A    -11.229326     6A    -11.218645
       7A     -1.402071     8A     -1.097141     9A     -1.019405
      10A     -0.904582    11A     -0.812058    12A     -0.796207
      13A     -0.668399    14A     -0.655466    15A     -0.631817
      16A     -0.602836    17A     -0.588779    18A     -0.543365
      19A     -0.535932    20A     -0.497875    21A     -0.487968
      22A     -0.485709    23A     -0.478687    24A     -0.409756

  @DF-RHF Final Energy:  -270.01875061317782

   => Energetics <=

    Nuclear Repulsion Energy =            228.2864389398926619
    One-Electron Energy =                -817.7589424905847864
    Two-Electron Energy =                 319.4537529375143095
    DFT Exchange-Correlation Energy =       0.0000000000000000
    Empirical Dispersion Energy =           0.0000000000000000
    PCM Polarization Energy =               0.0000000000000000
    EFP Energy =                            0.0000000000000000
    Total Energy =                       -270.0187506131778719

  Mulliken Charges: (a.u.)
   Center  Symbol    Alpha    Beta     Spin     Total
       1     H     0.43015  0.43015  0.00000  0.13969
       2     C     2.83246  2.83246  0.00000  0.33509
       3     C     3.20649  3.20649  0.00000 -0.41298
       4     O     4.24071  4.24071  0.00000 -0.48142
       5     C     3.16601  3.16601  0.00000 -0.33202
       6     H     0.39790  0.39790  0.00000  0.20420
       7     H     0.40109  0.40109  0.00000  0.19782
       8     C     3.15171  3.15171  0.00000 -0.30343
       9     H     0.41728  0.41728  0.00000  0.16544
      10     H     0.41931  0.41931  0.00000  0.16137
      11     C     3.24014  3.24014  0.00000 -0.48028
      12     H     0.41937  0.41937  0.00000  0.16127
      13     H     0.42047  0.42047  0.00000  0.15906
      14     H     0.41997  0.41997  0.00000  0.16005
      15     H     0.41645  0.41645  0.00000  0.16710
      16     H     0.42048  0.42048  0.00000  0.15904

   Total alpha = 24.00000, Total beta = 24.00000, Total charge = -0.00000
