  ==> Input File <==

--------------------------------------------------------------------------
set {
	reference rhf
	basis 6-31G*
}

set_num_threads( 1 )
memory 2 gb

molecule MOL {
0 1

H	 -2.924666	 0.670669	 -2.165590
C	 -2.226250	 -0.003711	 -1.709425
C	 -2.076860	 -0.007332	 -0.404944
H	 -1.662905	 -0.664271	 -2.341259
O	 -1.180634	 -0.819263	 0.215062
H	 -2.636478	 0.641079	 0.245890
C	 0.051604	 -1.018856	 -0.387932
C	 1.043764	 0.054862	 -0.001873
H	 -0.017620	 -1.041351	 -1.469781
H	 0.437898	 -1.966374	 -0.042284
F	 2.212596	 -0.199467	 -0.571921
F	 0.652529	 1.252447	 -0.405055
F	 1.230877	 0.110694	 1.300533

	symmetry c1
}
set optking {
	frozen_dihedral = ("
		11 8 7 9,
		3 5 7 9,
		6 3 2 1
	")
}

ee = energy('scf')
oeprop('DIPOLE', 'QUADRUPOLE', 'MULLIKEN_CHARGES')
f=open( 'psi4out.xyz', 'w' )
f.write( "13  " )
f.write( str(ee) + "\n" )
f.write( MOL.save_string_xyz() )
f.close()
--------------------------------------------------------------------------

    Molecular point group: c1

    Geometry (in Angstrom), charge = 0, multiplicity = 1:

       Center              X                  Y                   Z               Mass
    ------------   -----------------  -----------------  -----------------  -----------------
           H         -3.032446082070     0.710939452304    -1.957056492641     1.007825032070
           C         -2.334030082070     0.036559452304    -1.500891492641    12.000000000000
           C         -2.184640082070     0.032938452304    -0.196410492641    12.000000000000
           H         -1.770685082070    -0.624000547696    -2.132725492641     1.007825032070
           O         -1.288414082070    -0.778992547696     0.423595507359    15.994914619560
           H         -2.744258082070     0.681349452304     0.454423507359     1.007825032070
           C         -0.056176082070    -0.978585547696    -0.179398492641    12.000000000000
           C          0.935983917930     0.095132452304     0.206660507359    12.000000000000
           H         -0.125400082070    -1.001080547696    -1.261247492641     1.007825032070
           H          0.330117917930    -1.926103547696     0.166249507359     1.007825032070
           F          2.104815917930    -0.159196547696    -0.363387492641    18.998403224000
           F          0.544748917930     1.292717452304    -0.196521492641    18.998403224000
           F          1.123096917930     0.150964452304     1.509066507359    18.998403224000

  Charge       = 0
  Multiplicity = 1
  Basis Set: 6-31G*
  Basis Set:

    Orbital Energies (a.u.)
    -----------------------

    Doubly Occupied:

       1A    -26.341845     2A    -26.338476     3A    -26.338388
       4A    -20.604442     5A    -11.500071     6A    -11.313805
       7A    -11.301176     8A    -11.222108     9A     -1.738459
      10A     -1.636774    11A     -1.634708    12A     -1.436601
      13A     -1.077330    14A     -1.023727    15A     -0.929785
      16A     -0.835672    17A     -0.828120    18A     -0.826379
      19A     -0.759299    20A     -0.730261    21A     -0.709712
      22A     -0.700997    23A     -0.673078    24A     -0.658144
      25A     -0.655314    26A     -0.640313    27A     -0.639519
      28A     -0.589395    29A     -0.558760    30A     -0.531690
      31A     -0.494258    32A     -0.361553

  @DF-RHF Final Energy:  -527.52902933682617

   => Energetics <=

    Nuclear Repulsion Energy =            419.3063055107358537
    One-Electron Energy =               -1562.4103925770891692
    Two-Electron Energy =                 615.5750577295266339
    DFT Exchange-Correlation Energy =       0.0000000000000000
    Empirical Dispersion Energy =           0.0000000000000000
    PCM Polarization Energy =               0.0000000000000000
    EFP Energy =                            0.0000000000000000
    Total Energy =                       -527.5290293368266248

  Mulliken Charges: (a.u.)
   Center  Symbol    Alpha    Beta     Spin     Total
       1     H     0.40378  0.40378  0.00000  0.19244
       2     C     3.23736  3.23736  0.00000 -0.47473
       3     C     2.89920  2.89920  0.00000  0.20159
       4     H     0.40831  0.40831  0.00000  0.18338
       5     O     4.30772  4.30772  0.00000 -0.61543
       6     H     0.39455  0.39455  0.00000  0.21091
       7     C     3.05758  3.05758  0.00000 -0.11515
       8     C     2.45630  2.45630  0.00000  1.08741
       9     H     0.40484  0.40484  0.00000  0.19033
      10     H     0.39317  0.39317  0.00000  0.21367
      11     F     4.68307  4.68307  0.00000 -0.36614
      12     F     4.67852  4.67852  0.00000 -0.35703
      13     F     4.67562  4.67562  0.00000 -0.35124

   Total alpha = 32.00000, Total beta = 32.00000, Total charge = -0.00000
