  ==> Input File <==

--------------------------------------------------------------------------
set {
	reference rhf
	basis 6-31G*
}

set_num_threads( 4 )
memory 2 gb

molecule MOL {
0 1

O	 1.846825	 1.296220	 0.000415
C	 1.705091	 0.115954	 0.001797
C	 0.381791	 -0.609817	 0.001258
O	 2.721346	 -0.737485	 -0.000216
C	 -0.823008	 0.326187	 0.001381
H	 0.371250	 -1.265087	 -0.865474
H	 0.370908	 -1.265746	 0.867490
C	 -2.149452	 -0.435131	 -0.000098
H	 -0.770201	 0.977095	 -0.865636
H	 -0.771220	 0.975655	 0.869608
C	 -3.368779	 0.488503	 -0.000883
H	 -2.193746	 -1.087250	 -0.871175
H	 -2.195311	 -1.087803	 0.870418
C	 -4.532574	 -0.060583	 -0.825102
H	 -3.080582	 1.463554	 -0.387353
H	 -3.696546	 0.651476	 1.023396
H	 -4.245815	 -0.201883	 -1.863378
H	 -5.381311	 0.615973	 -0.805954
H	 -4.866389	 -1.020711	 -0.441652
C	 4.024888	 -0.184556	 -0.001949
H	 4.179030	 0.422472	 -0.882452
H	 4.701782	 -1.024608	 -0.003642
H	 4.181981	 0.421185	 0.878906

	symmetry c1
}
set optking {
	frozen_dihedral = ("
		15 11 8 12
	")
}

ee = optimize('scf')
oeprop('DIPOLE', 'QUADRUPOLE', 'MULLIKEN_CHARGES')
f=open( 'psi4out.xyz', 'w' )
f.write( "23  " )
f.write( str(ee) + "\n" )
f.write( MOL.save_string_xyz() )
f.close()
--------------------------------------------------------------------------

    Molecular point group: c1
  Charge       = 0
  Multiplicity = 1
  Basis Set: 6-31G*
  Basis Set:
  @DF-RHF Final Energy:  -422.97253253824613
    Total Energy =                       -422.9725325382456731
    Molecular point group: c1
  Basis Set: 6-31G*
  Basis Set:
  Basis Set: 6-31G*
  Basis Set:
  @DF-RHF Final Energy:  -422.97278226029960
    Total Energy =                       -422.9727822602995957
  Basis Set: 6-31G*
  Basis Set:
  Basis Set: 6-31G*
  Basis Set:
  @DF-RHF Final Energy:  -422.97206100744000
    Total Energy =                       -422.9720610074409706
  Basis Set: 6-31G*
  Basis Set:
  Basis Set: 6-31G*
  Basis Set:
  @DF-RHF Final Energy:  -422.97288181017598
    Total Energy =                       -422.9728818101755223
  Basis Set: 6-31G*
  Basis Set:
  Basis Set: 6-31G*
  Basis Set:
  @DF-RHF Final Energy:  -422.97288781669255
    Total Energy =                       -422.9728878166922641
  Basis Set: 6-31G*
  Basis Set:
  Basis Set: 6-31G*
  Basis Set:
  @DF-RHF Final Energy:  -422.97288954567711
    Total Energy =                       -422.9728895456771625
  Basis Set: 6-31G*
  Basis Set:
  Charge       = 0
  Multiplicity = 1
  Basis Set: 6-31G*
  Basis Set:

    Orbital Energies (a.u.)
    -----------------------

    Doubly Occupied:

       1A    -20.603673     2A    -20.545479     3A    -11.372333
       4A    -11.280878     5A    -11.235502     6A    -11.219779
       7A    -11.217589     8A    -11.216150     9A    -11.210017
      10A     -1.469375    11A     -1.362825    12A     -1.092288
      13A     -1.042753    14A     -0.987165    15A     -0.932077
      16A     -0.844491    17A     -0.795541    18A     -0.767513
      19A     -0.696949    20A     -0.683607    21A     -0.671766
      22A     -0.646979    23A     -0.609777    24A     -0.599522
      25A     -0.574093    26A     -0.565069    27A     -0.549511
      28A     -0.524410    29A     -0.521773    30A     -0.506129
      31A     -0.488605    32A     -0.470918    33A     -0.461080
      34A     -0.460083    35A     -0.454619    36A     -0.435472

  @DF-RHF Final Energy:  -422.97289131352665

   => Energetics <=

    Nuclear Repulsion Energy =            452.2055888196609317
    One-Electron Energy =               -1472.1253885110611463
    Two-Electron Energy =                 596.9469083778740242
    DFT Exchange-Correlation Energy =       0.0000000000000000
    Empirical Dispersion Energy =           0.0000000000000000
    PCM Polarization Energy =               0.0000000000000000
    EFP Energy =                            0.0000000000000000
    Total Energy =                       -422.9728913135261337
    Molecular point group: c1
  Basis Set: 6-31G*
  Basis Set:

  -Total Gradient:
     Atom            X                  Y                   Z
    ------   -----------------  -----------------  -----------------
       1        0.000005356126    -0.000006882659    -0.000001251061
       2       -0.000003207527     0.000002848635     0.000001175356
       3       -0.000003036643     0.000002811753    -0.000002426591
       4        0.000003856925     0.000005125267    -0.000004245359
       5        0.000006666158     0.000007585877     0.000011740608
       6       -0.000001529783     0.000000766815     0.000002105348
       7       -0.000001936698     0.000001046786     0.000001209781
       8        0.002862216075     0.003936371821    -0.001913030348
       9        0.000000673004    -0.000002766298    -0.000000104492
      10        0.000002203030    -0.000001775414    -0.000003289873
      11       -0.001820526388    -0.002264145845    -0.004354384384
      12       -0.002122133342    -0.002928863979     0.002299585680
      13       -0.000001003676     0.000003900075     0.000003150647
      14       -0.000008824956    -0.000007070450    -0.000009605143
      15        0.001073171210     0.001251451715     0.003958819563
      16        0.000001101148    -0.000002923308     0.000004070507
      17       -0.000000227524     0.000000574864     0.000002352613
      18        0.000003009593     0.000001048059     0.000001870408
      19        0.000002186081     0.000001769454    -0.000000512642
      20        0.000000049768    -0.000001872656     0.000005009165
      21       -0.000000841839     0.000000084623    -0.000000996733
      22        0.000001269475     0.000000691335    -0.000000670891
      23        0.000001509781     0.000000223527    -0.000000572160

  **** Optimization is complete! (in 7 steps) ****
    Final optimized geometry and variables:
    Molecular point group: c1

    Geometry (in Angstrom), charge = 0, multiplicity = 1:

    O            1.837628958510     1.270463985847     0.086841643613
    C            1.694213979289     0.090466746969     0.097632761448
    C            0.369910891618    -0.633379242799     0.084921337995
    O            2.708997674857    -0.764303617999     0.122985084635
    C           -0.832924664923     0.304203998499     0.056437173674
    H            0.371008776571    -1.297832914096    -0.774933965308
    H            0.344816470560    -1.279983949083     0.957789959148
    C           -2.160154829331    -0.452889208425     0.034260702163
    H           -0.764076774283     0.950153308528    -0.813066445416
    H           -0.797788850053     0.959092740245     0.921812644937
    C           -3.392105301695     0.468589326475     0.075204387133
    H           -2.212986093209    -1.101145275589    -0.838821329377
    H           -2.200430432410    -1.131221147255     0.885081948598
    C           -4.597731679312    -0.089007149068    -0.677685559112
    H           -3.129649089654     1.452264749303    -0.306783921040
    H           -3.668864284446     0.638882207760     1.113150821521
    H           -4.378649061685    -0.206016365120    -1.735176254752
    H           -5.457366291597     0.567641201471    -0.586887457187
    H           -4.883422610683    -1.063305480901    -0.290574092926
    C            4.013264465869    -0.213174856164     0.137321101208
    H            4.183573787336     0.383223883954    -0.747448998264
    H            4.688793755789    -1.054145079271     0.157132678587
    H            4.156047861730     0.402611705482     1.013638782715

  Mulliken Charges: (a.u.)
   Center  Symbol    Alpha    Beta     Spin     Total
       1     O     4.28610  4.28610  0.00000 -0.57220
       2     C     2.60501  2.60501  0.00000  0.78998
       3     C     3.20861  3.20861  0.00000 -0.41722
       4     O     4.30730  4.30730  0.00000 -0.61460
       5     C     3.15362  3.15362  0.00000 -0.30724
       6     H     0.40049  0.40049  0.00000  0.19902
       7     H     0.40056  0.40056  0.00000  0.19889
       8     C     3.15600  3.15600  0.00000 -0.31201
       9     H     0.41114  0.41114  0.00000  0.17771
      10     H     0.41144  0.41144  0.00000  0.17712
      11     C     3.15378  3.15378  0.00000 -0.30755
      12     H     0.42248  0.42248  0.00000  0.15503
      13     H     0.42276  0.42276  0.00000  0.15449
      14     C     3.23996  3.23996  0.00000 -0.47991
      15     H     0.41895  0.41895  0.00000  0.16211
      16     H     0.42077  0.42077  0.00000  0.15846
      17     H     0.42128  0.42128  0.00000  0.15744
      18     H     0.41908  0.41908  0.00000  0.16184
      19     H     0.42168  0.42168  0.00000  0.15664
      20     C     3.09245  3.09245  0.00000 -0.18490
      21     H     0.40907  0.40907  0.00000  0.18186
      22     H     0.40842  0.40842  0.00000  0.18316
      23     H     0.40907  0.40907  0.00000  0.18186

   Total alpha = 36.00000, Total beta = 36.00000, Total charge =  0.00000
