  ==> Input File <==

--------------------------------------------------------------------------
set {
	reference rhf
	basis 6-31G*
}

set_num_threads( 4 )
memory 2 gb

molecule MOL {
0 1

H	 -2.212308	 0.088660	 -1.006375
N	 -1.852125	 0.165761	 -0.074816
C	 -0.563778	 -0.502042	 0.037919
H	 -2.524572	 -0.263363	 0.532163
C	 0.575259	 0.508231	 -0.048326
H	 -0.482092	 -1.204004	 -0.786564
H	 -0.460411	 -1.085169	 0.956626
C	 1.954651	 -0.143624	 0.035137
H	 0.475158	 1.060484	 -0.977307
H	 0.469181	 1.234488	 0.755973
H	 2.103292	 -0.853109	 -0.774172
H	 2.742821	 0.599562	 -0.030094
H	 2.083613	 -0.679371	 0.971560

	symmetry c1
}
set optking {
	frozen_dihedral = ("
		1 2 3 6
	")
}

ee = optimize('scf')
oeprop('DIPOLE', 'QUADRUPOLE', 'MULLIKEN_CHARGES')
f=open( 'psi4out.xyz', 'w' )
f.write( "13  " )
f.write( str(ee) + "\n" )
f.write( MOL.save_string_xyz() )
f.close()
--------------------------------------------------------------------------

    Molecular point group: c1
  Charge       = 0
  Multiplicity = 1
  Basis Set: 6-31G*
  Basis Set:
  @DF-RHF Final Energy:  -173.27860855628074
    Total Energy =                       -173.2786085562807443
    Molecular point group: c1
  Basis Set: 6-31G*
  Basis Set:
  Basis Set: 6-31G*
  Basis Set:
  @DF-RHF Final Energy:  -173.27975241777531
    Total Energy =                       -173.2797524177753132
  Basis Set: 6-31G*
  Basis Set:
  Basis Set: 6-31G*
  Basis Set:
  @DF-RHF Final Energy:  -173.28000035225347
    Total Energy =                       -173.2800003522534382
  Basis Set: 6-31G*
  Basis Set:
  Basis Set: 6-31G*
  Basis Set:
  @DF-RHF Final Energy:  -173.28000488953455
    Total Energy =                       -173.2800048895345526
  Basis Set: 6-31G*
  Basis Set:
  Basis Set: 6-31G*
  Basis Set:
  @DF-RHF Final Energy:  -173.28000954216455
    Total Energy =                       -173.2800095421644073
  Basis Set: 6-31G*
  Basis Set:
  Charge       = 0
  Multiplicity = 1
  Basis Set: 6-31G*
  Basis Set:

    Orbital Energies (a.u.)
    -----------------------

    Doubly Occupied:

       1A    -15.532542     2A    -11.240935     3A    -11.206398
       4A    -11.205672     5A     -1.174599     6A     -1.032579
       7A     -0.898220     8A     -0.794310     9A     -0.672438
      10A     -0.614021    11A     -0.601234    12A     -0.571785
      13A     -0.519634    14A     -0.488764    15A     -0.483556
      16A     -0.463985    17A     -0.379959

  @DF-RHF Final Energy:  -173.28000966919879

   => Energetics <=

    Nuclear Repulsion Energy =            131.4510367069882193
    One-Electron Energy =                -493.7008269468139474
    Two-Electron Energy =                 188.9697805706268809
    DFT Exchange-Correlation Energy =       0.0000000000000000
    Empirical Dispersion Energy =           0.0000000000000000
    PCM Polarization Energy =               0.0000000000000000
    EFP Energy =                            0.0000000000000000
    Total Energy =                       -173.2800096691988756
    Molecular point group: c1
  Basis Set: 6-31G*
  Basis Set:

  -Total Gradient:
     Atom            X                  Y                   Z
    ------   -----------------  -----------------  -----------------
       1       -0.001185545060    -0.002233367397     0.000706632863
       2        0.001763752421     0.003241174024    -0.001265905821
       3       -0.001557793374    -0.002726594905     0.001983222960
       4       -0.000008156164     0.000007284416     0.000002521783
       5       -0.000000921125    -0.000011169314    -0.000027501050
       6        0.000986246804     0.001726928417    -0.001405666330
       7       -0.000002521530    -0.000010398862     0.000005299000
       8        0.000001494740     0.000005037045     0.000010478223
       9        0.000004261536     0.000003627231    -0.000002840638
      10        0.000000404523    -0.000002676949     0.000000124479
      11        0.000001695064     0.000003022583    -0.000006321531
      12        0.000001108201    -0.000000998878     0.000005805195
      13       -0.000004026036    -0.000001867411    -0.000005849132

  **** Optimization is complete! (in 6 steps) ****
    Final optimized geometry and variables:
    Molecular point group: c1

    Geometry (in Angstrom), charge = 0, multiplicity = 1:

    H           -2.242950040003     0.090169688254    -0.968082624968
    N           -1.857900978868     0.173565635708    -0.048105652546
    C           -0.560148200461    -0.494566338098     0.040303000193
    H           -2.520436894700    -0.251036431018     0.569911611543
    C            0.582029520594     0.516455714000    -0.027535748499
    H           -0.424783148592    -1.225772465505    -0.756699793221
    H           -0.502141010597    -1.037442984017     0.978896959228
    C            1.960480360695    -0.137846253320     0.053808104004
    H            0.495226645484     1.080597617519    -0.953094703975
    H            0.456308578867     1.232324168129     0.778976874056
    H            2.116539157203    -0.836858377902    -0.763748175057
    H            2.750704478307     0.604602073538     0.005944785836
    H            2.082218275561    -0.687486351975     0.983590498064

  Mulliken Charges: (a.u.)
   Center  Symbol    Alpha    Beta     Spin     Total
       1     H     0.33287  0.33287  0.00000  0.33426
       2     N     3.92391  3.92391  0.00000 -0.84783
       3     C     3.06669  3.06669  0.00000 -0.13338
       4     H     0.33178  0.33178  0.00000  0.33644
       5     C     3.14031  3.14031  0.00000 -0.28063
       6     H     0.43003  0.43003  0.00000  0.13993
       7     H     0.42366  0.42366  0.00000  0.15267
       8     C     3.24584  3.24584  0.00000 -0.49169
       9     H     0.42345  0.42345  0.00000  0.15310
      10     H     0.41708  0.41708  0.00000  0.16583
      11     H     0.42346  0.42346  0.00000  0.15308
      12     H     0.41787  0.41787  0.00000  0.16427
      13     H     0.42303  0.42303  0.00000  0.15393

   Total alpha = 17.00000, Total beta = 17.00000, Total charge = -0.00000
