  ==> Input File <==

--------------------------------------------------------------------------
set {
	reference rhf
	basis 6-31G*
}

set_num_threads( 4 )
memory 2 gb

molecule MOL {
0 1

H	 -2.798360	 -0.862255	 -0.071053
N	 -1.863561	 -0.715187	 0.256814
C	 -1.344686	 0.554728	 -0.219830
H	 -1.300452	 -1.461917	 -0.101532
C	 -2.458125	 1.363981	 -0.851099
H	 -0.879719	 1.159427	 0.560008
H	 -0.588984	 0.359459	 -0.974525
O	 -3.389653	 1.679131	 0.143900
H	 -2.057312	 2.276787	 -1.291296
H	 -2.930664	 0.782826	 -1.639896
C	 -4.516414	 2.353871	 -0.317301
H	 -5.156902	 2.542613	 0.533492
H	 -4.251036	 3.305175	 -0.775096
H	 -5.064156	 1.760788	 -1.046711

	symmetry c1
}
set optking {
	frozen_dihedral = ("
		6 3 2 4
	")
}

ee = optimize('scf')
oeprop('DIPOLE', 'QUADRUPOLE', 'MULLIKEN_CHARGES')
f=open( 'psi4out.xyz', 'w' )
f.write( "14  " )
f.write( str(ee) + "\n" )
f.write( MOL.save_string_xyz() )
f.close()
--------------------------------------------------------------------------

    Molecular point group: c1
  Charge       = 0
  Multiplicity = 1
  Basis Set: 6-31G*
  Basis Set:
  @DF-RHF Final Energy:  -248.11566212450404
    Total Energy =                       -248.1156621245040697
    Molecular point group: c1
  Basis Set: 6-31G*
  Basis Set:
  Basis Set: 6-31G*
  Basis Set:
  @DF-RHF Final Energy:  -248.11750824981951
    Total Energy =                       -248.1175082498194229
  Basis Set: 6-31G*
  Basis Set:
  Basis Set: 6-31G*
  Basis Set:
  @DF-RHF Final Energy:  -248.11790239477750
    Total Energy =                       -248.1179023947773885
  Basis Set: 6-31G*
  Basis Set:
  Basis Set: 6-31G*
  Basis Set:
  @DF-RHF Final Energy:  -248.11794340255227
    Total Energy =                       -248.1179434025523847
  Basis Set: 6-31G*
  Basis Set:
  Basis Set: 6-31G*
  Basis Set:
  @DF-RHF Final Energy:  -248.11795211416063
    Total Energy =                       -248.1179521141605164
  Basis Set: 6-31G*
  Basis Set:
  Charge       = 0
  Multiplicity = 1
  Basis Set: 6-31G*
  Basis Set:

    Orbital Energies (a.u.)
    -----------------------

    Doubly Occupied:

       1A    -20.559070     2A    -15.524259     3A    -11.271998
       4A    -11.268026     5A    -11.241690     6A     -1.384610
       7A     -1.169068     8A     -1.000817     9A     -0.909797
      10A     -0.821064    11A     -0.685269    12A     -0.672898
      13A     -0.651288    14A     -0.613020    15A     -0.588538
      16A     -0.571669    17A     -0.519007    18A     -0.498848
      19A     -0.476740    20A     -0.419494    21A     -0.369217

  @DF-RHF Final Energy:  -248.11795325981544

   => Energetics <=

    Nuclear Repulsion Energy =            194.3182116052700792
    One-Electron Energy =                -722.4395552761055797
    Two-Electron Energy =                 280.0033904110202343
    DFT Exchange-Correlation Energy =       0.0000000000000000
    Empirical Dispersion Energy =           0.0000000000000000
    PCM Polarization Energy =               0.0000000000000000
    EFP Energy =                            0.0000000000000000
    Total Energy =                       -248.1179532598152377
    Molecular point group: c1
  Basis Set: 6-31G*
  Basis Set:

  -Total Gradient:
     Atom            X                  Y                   Z
    ------   -----------------  -----------------  -----------------
       1       -0.000016309501     0.000000331565    -0.000009673306
       2       -0.001595163057    -0.000528252803    -0.002410287636
       3       -0.001959514538     0.001286527338     0.001138166702
       4        0.001621699746     0.000238788026     0.001819109278
       5       -0.000105116263     0.000031445246     0.000093149137
       6        0.001921122391    -0.000972866070    -0.000561002285
       7        0.000018308555     0.000016894409    -0.000023705798
       8        0.000003264423    -0.000011962960     0.000002101509
       9        0.000056539095    -0.000008774003    -0.000030987825
      10        0.000043044692    -0.000032332439    -0.000012437538
      11       -0.000005903879    -0.000006648508    -0.000008110703
      12        0.000011637457    -0.000009416744     0.000000016361
      13        0.000009059933    -0.000003595093     0.000002662236
      14       -0.000002669052    -0.000000137966     0.000000999869

  **** Optimization is complete! (in 6 steps) ****
    Final optimized geometry and variables:
    Molecular point group: c1

    Geometry (in Angstrom), charge = 0, multiplicity = 1:

    H           -0.049296822644    -1.883912553014     0.378543319872
    N            0.929379237051    -1.740721412728     0.512915112691
    C            1.392355464433    -0.480976019371    -0.049183729488
    H            1.436404659892    -2.526465748130     0.165154164503
    C            0.272061365255     0.350174451030    -0.644761619758
    H            1.900901510706     0.097738719444     0.716019796325
    H            2.120094874844    -0.650382909392    -0.841209944520
    O           -0.700698884125     0.577718335903     0.328379724884
    H            0.671915118471     1.295144554754    -1.012312059480
    H           -0.167334218393    -0.174279939893    -1.495013949241
    C           -1.786498726158     1.329076719059    -0.111750556022
    H           -2.468784128743     1.435497882233     0.720159466236
    H           -1.477449600006     2.318699760242    -0.443124887601
    H           -2.305364043477     0.837687095615    -0.933179557765

  Mulliken Charges: (a.u.)
   Center  Symbol    Alpha    Beta     Spin     Total
       1     H     0.32385  0.32385  0.00000  0.35231
       2     N     3.93221  3.93221  0.00000 -0.86442
       3     C     3.05184  3.05184  0.00000 -0.10368
       4     H     0.33169  0.33169  0.00000  0.33662
       5     C     3.00355  3.00355  0.00000 -0.00711
       6     H     0.41424  0.41424  0.00000  0.17152
       7     H     0.42927  0.42927  0.00000  0.14146
       8     O     4.30108  4.30108  0.00000 -0.60216
       9     H     0.42858  0.42858  0.00000  0.14285
      10     H     0.43383  0.43383  0.00000  0.13233
      11     C     3.07998  3.07998  0.00000 -0.15996
      12     H     0.41006  0.41006  0.00000  0.17988
      13     H     0.42916  0.42916  0.00000  0.14167
      14     H     0.43066  0.43066  0.00000  0.13869

   Total alpha = 21.00000, Total beta = 21.00000, Total charge = -0.00000
