  ==> Input File <==

--------------------------------------------------------------------------
set {
	reference rhf
	basis 6-31G*
}

set_num_threads( 1 )
memory 2 gb

molecule MOL {
0 1

H	 -2.646374	 -0.642757	 1.268656
C	 -2.083525	 -0.384536	 0.393091
O	 -0.807605	 -0.127164	 0.768327
F	 -2.118945	 -1.383102	 -0.486752
F	 -2.621877	 0.670592	 -0.209486
C	 -0.163208	 0.941706	 0.172543
C	 1.217870	 0.452395	 -0.243818
Cl	 -0.029713	 2.304339	 1.296208
H	 -0.676995	 1.291896	 -0.705616
F	 1.889162	 1.418564	 -0.833755
F	 1.076278	 -0.533696	 -1.106960
F	 1.915823	 0.014769	 0.775652

	symmetry c1
}
set optking {
	frozen_dihedral = ("
		10 7 6 9,
		9 6 3 2
	")
}

ee = energy('scf')
oeprop('DIPOLE', 'QUADRUPOLE', 'MULLIKEN_CHARGES')
f=open( 'psi4out.xyz', 'w' )
f.write( "12  " )
f.write( str(ee) + "\n" )
f.write( MOL.save_string_xyz() )
f.close()
--------------------------------------------------------------------------

    Molecular point group: c1

    Geometry (in Angstrom), charge = 0, multiplicity = 1:

       Center              X                  Y                   Z               Mass
    ------------   -----------------  -----------------  -----------------  -----------------
           H         -2.499698085421    -1.158436117316     1.123613252094     1.007825032070
           C         -1.936849085421    -0.900215117316     0.248048252094    12.000000000000
           O         -0.660929085421    -0.642843117316     0.623284252094    15.994914619560
           F         -1.972269085421    -1.898781117316    -0.631794747906    18.998403224000
           F         -2.475201085421     0.154912882684    -0.354528747906    18.998403224000
           C         -0.016532085421     0.426026882684     0.027500252094    12.000000000000
           C          1.364545914579    -0.063284117316    -0.388860747906    12.000000000000
          CL          0.116962914579     1.788659882684     1.151165252094    34.968852682000
           H         -0.530319085421     0.776216882684    -0.850658747906     1.007825032070
           F          2.035837914579     0.902884882684    -0.978797747906    18.998403224000
           F          1.222953914579    -1.049375117316    -1.252002747906    18.998403224000
           F          2.062498914579    -0.500910117316     0.630609252094    18.998403224000

  Charge       = 0
  Multiplicity = 1
  Basis Set: 6-31G*
  Basis Set:

    Orbital Energies (a.u.)
    -----------------------

    Doubly Occupied:

       1A   -104.845485     2A    -26.359196     3A    -26.357584
       4A    -26.357152     5A    -26.356237     6A    -26.340027
       7A    -20.649335     8A    -11.526090     9A    -11.490617
      10A    -11.399858    11A    -10.580250    12A     -8.049596
      13A     -8.046103    14A     -8.045979    15A     -1.759978
      16A     -1.721137    17A     -1.656611    18A     -1.655022
      19A     -1.639970    20A     -1.486674    21A     -1.180684
      22A     -1.052657    23A     -0.986222    24A     -0.918595
      25A     -0.859749    26A     -0.850217    27A     -0.843178
      28A     -0.832530    29A     -0.816226    30A     -0.791545
      31A     -0.726105    32A     -0.724819    33A     -0.703859
      34A     -0.697065    35A     -0.678880    36A     -0.673553
      37A     -0.659932    38A     -0.656897    39A     -0.650526
      40A     -0.632394    41A     -0.599138    42A     -0.584514
      43A     -0.517017    44A     -0.479604    45A     -0.470482

  @DF-RHF Final Energy: -1146.30918842319898

   => Energetics <=

    Nuclear Repulsion Energy =            737.1376842879558353
    One-Electron Energy =               -3057.0749165972124501
    Two-Electron Energy =                1173.6280438860562754
    DFT Exchange-Correlation Energy =       0.0000000000000000
    Empirical Dispersion Energy =           0.0000000000000000
    PCM Polarization Energy =               0.0000000000000000
    EFP Energy =                            0.0000000000000000
    Total Energy =                      -1146.3091884232003395

  Mulliken Charges: (a.u.)
   Center  Symbol    Alpha    Beta     Spin     Total
       1     H     0.40643  0.40643  0.00000  0.18715
       2     C     2.56363  2.56363  0.00000  0.87275
       3     O     4.30155  4.30155  0.00000 -0.60309
       4     F     4.67996  4.67996  0.00000 -0.35993
       5     F     4.68438  4.68438  0.00000 -0.36876
       6     C     3.04931  3.04931  0.00000 -0.09862
       7     C     2.43107  2.43107  0.00000  1.13785
       8    CL     8.50274  8.50274  0.00000 -0.00548
       9     H     0.36210  0.36210  0.00000  0.27581
      10     F     4.67431  4.67431  0.00000 -0.34862
      11     F     4.67596  4.67596  0.00000 -0.35192
      12     F     4.66856  4.66856  0.00000 -0.33712

   Total alpha = 45.00000, Total beta = 45.00000, Total charge = -0.00000
