  ==> Input File <==

--------------------------------------------------------------------------
set {
	reference rhf
	basis 6-31G*
}

set_num_threads( 1 )
memory 2 gb

molecule MOL {
0 1

H	 -2.241650	 0.978039	 2.125215
C	 -1.617589	 0.722103	 2.979138
O	 -0.366335	 0.266357	 2.576649
H	 -1.464326	 1.608640	 3.578892
H	 -2.141175	 -0.021547	 3.578530
C	 -0.403392	 -0.885118	 1.794356
C	 0.994968	 -1.218684	 1.330108
H	 -0.798571	 -1.721899	 2.371701
H	 -1.044902	 -0.743319	 0.926968
O	 1.392611	 -0.295398	 0.366430
H	 1.669645	 -1.202188	 2.183657
H	 1.003585	 -2.226914	 0.914066
C	 2.706965	 -0.449871	 -0.062409
H	 2.756559	 -0.644779	 -1.131878
H	 3.305899	 0.433456	 0.155466
H	 3.125548	 -1.294566	 0.467107

	symmetry c1
}
set optking {
	frozen_dihedral = ("
		3 6 7 11,
		2 3 6 7
	")
}

ee = energy('scf')
oeprop('DIPOLE', 'QUADRUPOLE', 'MULLIKEN_CHARGES')
f=open( 'psi4out.xyz', 'w' )
f.write( "16  " )
f.write( str(ee) + "\n" )
f.write( MOL.save_string_xyz() )
f.close()
--------------------------------------------------------------------------

    Molecular point group: c1

    Geometry (in Angstrom), charge = 0, multiplicity = 1:

       Center              X                  Y                   Z               Mass
    ------------   -----------------  -----------------  -----------------  -----------------
           H         -2.694528182460     1.281323582968     0.627936035471     1.007825032070
           C         -2.070467182460     1.025387582968     1.481859035471    12.000000000000
           O         -0.819213182460     0.569641582968     1.079370035471    15.994914619560
           H         -1.917204182460     1.911924582968     2.081613035471     1.007825032070
           H         -2.594053182460     0.281737582968     2.081251035471     1.007825032070
           C         -0.856270182460    -0.581833417032     0.297077035471    12.000000000000
           C          0.542089817540    -0.915399417032    -0.167170964529    12.000000000000
           H         -1.251449182460    -1.418614417032     0.874422035471     1.007825032070
           H         -1.497780182460    -0.440034417032    -0.570310964529     1.007825032070
           O          0.939732817540     0.007886582968    -1.130848964529    15.994914619560
           H          1.216766817540    -0.898903417032     0.686378035471     1.007825032070
           H          0.550706817540    -1.923629417032    -0.583212964529     1.007825032070
           C          2.254086817540    -0.146586417032    -1.559687964529    12.000000000000
           H          2.303680817540    -0.341494417032    -2.629156964529     1.007825032070
           H          2.853020817540     0.736740582968    -1.341812964529     1.007825032070
           H          2.672669817540    -0.991281417032    -1.030171964529     1.007825032070

  Charge       = 0
  Multiplicity = 1
  Basis Set: 6-31G*
  Basis Set:

    Orbital Energies (a.u.)
    -----------------------

    Doubly Occupied:

       1A    -20.553489     2A    -20.549966     3A    -11.269867
       4A    -11.268485     5A    -11.263442     6A    -11.262890
       7A     -1.387691     8A     -1.370014     9A     -1.030298
      10A     -0.935033    11A     -0.892612    12A     -0.825823
      13A     -0.682687    14A     -0.679213    15A     -0.659072
      16A     -0.633803    17A     -0.627488    18A     -0.598395
      19A     -0.553819    20A     -0.537388    21A     -0.507024
      22A     -0.476800    23A     -0.463324    24A     -0.417741
      25A     -0.407340

  @DF-RHF Final Energy:  -306.97243056372690

   => Energetics <=

    Nuclear Repulsion Energy =            258.9301241080972886
    One-Electron Energy =                -932.0976174648124015
    Two-Electron Energy =                 366.1950627929884376
    DFT Exchange-Correlation Energy =       0.0000000000000000
    Empirical Dispersion Energy =           0.0000000000000000
    PCM Polarization Energy =               0.0000000000000000
    EFP Energy =                            0.0000000000000000
    Total Energy =                       -306.9724305637266752

  Mulliken Charges: (a.u.)
   Center  Symbol    Alpha    Beta     Spin     Total
       1     H     0.42802  0.42802  0.00000  0.14396
       2     C     3.07949  3.07949  0.00000 -0.15897
       3     O     4.30086  4.30086  0.00000 -0.60172
       4     H     0.41132  0.41132  0.00000  0.17737
       5     H     0.43194  0.43194  0.00000  0.13611
       6     C     2.99316  2.99316  0.00000  0.01367
       7     C     2.99648  2.99648  0.00000  0.00705
       8     H     0.43238  0.43238  0.00000  0.13524
       9     H     0.42258  0.42258  0.00000  0.15484
      10     O     4.30340  4.30340  0.00000 -0.60681
      11     H     0.42158  0.42158  0.00000  0.15684
      12     H     0.43161  0.43161  0.00000  0.13678
      13     C     3.07459  3.07459  0.00000 -0.14919
      14     H     0.42198  0.42198  0.00000  0.15605
      15     H     0.41941  0.41941  0.00000  0.16119
      16     H     0.43120  0.43120  0.00000  0.13759

   Total alpha = 25.00000, Total beta = 25.00000, Total charge =  0.00000
