                              Psi4 1.0.54 Driver

  ==> Input File <==

--------------------------------------------------------------------------
set {
	reference rhf
	basis cc-pvtz
}

set_num_threads( 4 )
memory 2 gb

molecule MOL {
0 1

H	 -3.162190	 0.493205	 -0.000107
C	 -2.363908	 -0.234727	 0.000005
O	 -1.158738	 0.454634	 -0.000087
H	 -2.464314	 -0.863616	 -0.882153
H	 -2.464327	 -0.863359	 0.882345
C	 -0.028611	 -0.359694	 0.000037
C	 -0.274202	 -1.554280	 0.899505
H	 0.837324	 0.202581	 0.350237
H	 0.192621	 -0.692349	 -1.014379
C	 0.921808	 -2.498208	 0.953477
H	 -0.511305	 -1.194449	 1.894607
H	 -1.150843	 -2.082283	 0.540806
H	 1.805234	 -1.995744	 1.333179
H	 0.719389	 -3.341459	 1.602302
H	 1.161234	 -2.889740	 -0.029603

	symmetry c1
}
set optking {
	frozen_dihedral = ("
		8 6 3 2
	")
}

ee,wfn = optimize('scf', return_wfn=True)
oeprop( wfn, 'DIPOLE', 'QUADRUPOLE', 'MULLIKEN_CHARGES')
f=open( 'psi4out.xyz', 'w' )
f.write( "15  " )
f.write( str(ee) + "\n" )
f.write( MOL.save_string_xyz() )
f.close()
--------------------------------------------------------------------------

    Molecular point group: c1
  Charge       = 0
  Multiplicity = 1
  Basis Set: CC-PVTZ
  Basis Set:
  @DF-RHF Final Energy:  -232.21225602085042
    Total Energy =                       -232.2122560208501909
    Molecular point group: c1
  Basis Set: CC-PVTZ
  Basis Set:
  Basis Set: CC-PVTZ
  Basis Set:
  @DF-RHF Final Energy:  -231.42234229400154
    Total Energy =                       -231.4223422940017940
  Basis Set: CC-PVTZ
  Basis Set:
  Basis Set: CC-PVTZ
  Basis Set:
  @DF-RHF Final Energy:  -231.61176303905779
    Total Energy =                       -231.6117630390576778
  Basis Set: CC-PVTZ
  Basis Set:
  Basis Set: CC-PVTZ
  Basis Set:
  @DF-RHF Final Energy:  -230.85864580904814
    Total Energy =                       -230.8586458090481699
  Basis Set: CC-PVTZ
  Basis Set:
  @DF-RHF Final Energy:  -231.17623102647744
    Total Energy =                       -231.1762310264773248
  @DF-RHF Final Energy:  -231.52338882991376
    Total Energy =                       -231.5233888299136709
  @DF-RHF Final Energy:  -231.84956557342269
    Total Energy =                       -231.8495655734226659
  @DF-RHF Final Energy:  -232.07604946184293
    Total Energy =                       -232.0760494618429846
  @DF-RHF Final Energy:  -232.19676798565962
    Total Energy =                       -232.1967679856596192
  @DF-RHF Final Energy:  -231.44182243996840
    Total Energy =                       -231.4418224399682060
  @DF-RHF Final Energy:  -231.76787173541268
    Total Energy =                       -231.7678717354126832
  @DF-RHF Final Energy:  -232.03588849526642
    Total Energy =                       -232.0358884952667040
  @DF-RHF Final Energy:  -232.17967779658497
    Total Energy =                       -232.1796777965848833
  @DF-RHF Final Energy:  -232.20989755865233
    Total Energy =                       -232.2098975586523011
  @DF-RHF Final Energy:  -231.69443746286714
    Total Energy =                       -231.6944374628672563
  @DF-RHF Final Energy:  -231.98611374854772
    Total Energy =                       -231.9861137485478935
  @DF-RHF Final Energy:  -232.17361074670808
    Total Energy =                       -232.1736107467082206
  @DF-RHF Final Energy:  -231.62998160610613
    Total Energy =                       -231.6299816061061279
  @DF-RHF Final Energy:  -231.93081500323137
    Total Energy =                       -231.9308150032314302
  @DF-RHF Final Energy:  -232.12988156561829
    Total Energy =                       -232.1298815656181773
  @DF-RHF Final Energy:  -232.21143809929688
    Total Energy =                       -232.2114380992968563
  @DF-RHF Final Energy:  -232.21901643700753
    Total Energy =                       -232.2190164370075536
  @DF-RHF Final Energy:  -232.22113010070993
    Total Energy =                       -232.2211301007097290
  Basis Set: CC-PVTZ
  Basis Set:
  @DF-RHF Final Energy:  -232.22180295169861
    Total Energy =                       -232.2218029516986917
  Basis Set: CC-PVTZ
  Basis Set:
  Basis Set: CC-PVTZ
  Basis Set:
  @DF-RHF Final Energy:  -232.22183319991942
    Total Energy =                       -232.2218331999193310
  Basis Set: CC-PVTZ
  Basis Set:
  Basis Set: CC-PVTZ
  Basis Set:
  @DF-RHF Final Energy:  -232.22186778248317
    Total Energy =                       -232.2218677824830593
  Basis Set: CC-PVTZ
  Basis Set:
  Charge       = 0
  Multiplicity = 1
  Basis Set: CC-PVTZ
  Basis Set:

    Orbital Energies (a.u.)
    -----------------------

    Doubly Occupied:

       1A    -20.543712     2A    -11.264378     3A    -11.260175
       4A    -11.218346     5A    -11.214374     6A     -1.374640
       7A     -1.059129     8A     -0.962006     9A     -0.885926
      10A     -0.799111    11A     -0.673726    12A     -0.660893
      13A     -0.630610    14A     -0.606461    15A     -0.562381
      16A     -0.535584    17A     -0.525094    18A     -0.499290
      19A     -0.489790    20A     -0.447773    21A     -0.409007

  @DF-RHF Final Energy:  -232.22186830312330

   => Energetics <=

    Nuclear Repulsion Energy =            192.4680613690562154
    One-Electron Energy =                -696.1350414697008091
    Two-Electron Energy =                 271.4451117975212355
    DFT Exchange-Correlation Energy =       0.0000000000000000
    Empirical Dispersion Energy =           0.0000000000000000
    PCM Polarization Energy =               0.0000000000000000
    EFP Energy =                            0.0000000000000000
    Total Energy =                       -232.2218683031233581
    Molecular point group: c1
  Basis Set: CC-PVTZ
  Basis Set:

  -Total Gradient:
     Atom            X                  Y                   Z
    ------   -----------------  -----------------  -----------------
       1       -0.000109918253     0.000030935529    -0.000032445958
       2       -0.002469877393    -0.002281307226     0.002565226088
       3        0.003157438127     0.003098217541    -0.002762732116
       4        0.000010440477     0.000011460378     0.000007851003
       5        0.000040265668    -0.000032938960    -0.000111289571
       6        0.002134243358     0.000552068123    -0.003541666461
       7        0.000038670111    -0.000043953115     0.000030619084
       8       -0.002819464108    -0.001345059114     0.003886619965
       9        0.000003324705     0.000021417062    -0.000001177554
      10       -0.000033588958     0.000004359828    -0.000011099294
      11       -0.000021595928     0.000005134877    -0.000017175164
      12        0.000019455721     0.000011437259    -0.000008017192
      13        0.000000104876    -0.000002173553    -0.000002258359
      14        0.000046416683    -0.000018578084    -0.000015290988
      15        0.000004084913    -0.000011020547     0.000012836516

  **** Optimization is complete! (in 27 steps) ****
    Final optimized geometry and variables:
    Molecular point group: c1

    Geometry (in Angstrom), charge = 0, multiplicity = 1:

    H            2.682125690720    -0.706023490843     1.229102204511
    C            1.763553307675    -0.181638113962     1.008429226810
    O            1.213396597324    -0.781718672362    -0.118247813964
    H            2.000904066990     0.866858695907     0.837592451594
    H            1.112644102614    -0.251842650747     1.872847496981
    C            0.091611790971    -0.185316645706    -0.704592901811
    C           -0.967907795066     0.335948391619     0.260150122827
    H           -0.369491275582    -0.964913041736    -1.297708358667
    H            0.406455651980     0.617372023653    -1.369980381450
    C           -2.205864432972     0.814837012548    -0.492305170661
    H           -1.241899015836    -0.456612524880     0.949477482086
    H           -0.576663775760     1.153038270303     0.855545652930
    H           -2.656409282962     0.009724378485    -1.062446251266
    H           -2.954091580250     1.192759074549     0.193517676047
    H           -1.960629930893     1.613144673876    -1.184766041863

  Mulliken Charges: (a.u.)
   Center  Symbol    Alpha    Beta     Spin     Total
       1     H     0.44336  0.44336  0.00000  0.11328
       2     C     3.03645  3.03645  0.00000 -0.07289
       3     O     4.17737  4.17737  0.00000 -0.35473
       4     H     0.47302  0.47302  0.00000  0.05395
       5     H     0.46823  0.46823  0.00000  0.06354
       6     C     2.96765  2.96765  0.00000  0.06470
       7     C     3.09965  3.09965  0.00000 -0.19929
       8     H     0.45591  0.45591  0.00000  0.08818
       9     H     0.46892  0.46892  0.00000  0.06217
      10     C     3.15258  3.15258  0.00000 -0.30516
      11     H     0.44934  0.44934  0.00000  0.10133
      12     H     0.45283  0.45283  0.00000  0.09433
      13     H     0.45343  0.45343  0.00000  0.09314
      14     H     0.44651  0.44651  0.00000  0.10698
      15     H     0.45476  0.45476  0.00000  0.09048

   Total alpha = 21.00000, Total beta = 21.00000, Total charge = -0.00000

*** Psi4 exiting successfully. Buy a developer a beer!
