                              Psi4 1.0.54 Driver

  ==> Input File <==

--------------------------------------------------------------------------
set {
	reference rhf
	basis cc-pvtz
}

set_num_threads( 4 )
memory 2 gb

molecule MOL {
0 1

H	 2.129164	 -1.371247	 -0.147457
O	 1.675515	 -0.612943	 -0.465627
C	 1.135873	 0.113391	 0.608264
C	 0.027642	 1.012027	 0.090274
H	 1.902972	 0.727968	 1.072615
H	 0.756163	 -0.561896	 1.370018
C	 -1.138737	 0.285728	 -0.581921
H	 0.464661	 1.708096	 -0.618252
H	 -0.340737	 1.603071	 0.925246
C	 -1.933983	 -0.631436	 0.343653
H	 -0.763151	 -0.285569	 -1.422081
H	 -1.808359	 1.035291	 -0.992333
H	 -2.789188	 -1.049673	 -0.174718
H	 -1.335629	 -1.461368	 0.700418
H	 -2.305435	 -0.092167	 1.209725

	symmetry c1
}
set optking {
	frozen_dihedral = ("
		1 2 3 4
	")
}

ee,wfn = optimize('scf', return_wfn=True)
oeprop( wfn, 'DIPOLE', 'QUADRUPOLE', 'MULLIKEN_CHARGES')
f=open( 'psi4out.xyz', 'w' )
f.write( "15  " )
f.write( str(ee) + "\n" )
f.write( MOL.save_string_xyz() )
f.close()
--------------------------------------------------------------------------

    Molecular point group: c1
  Charge       = 0
  Multiplicity = 1
  Basis Set: CC-PVTZ
  Basis Set:
  @DF-RHF Final Energy:  -232.23722104913477
    Total Energy =                       -232.2372210491348028
    Molecular point group: c1
  Basis Set: CC-PVTZ
  Basis Set:
  Basis Set: CC-PVTZ
  Basis Set:
  @DF-RHF Final Energy:  -232.23723817391610
    Total Energy =                       -232.2372381739157845
  Basis Set: CC-PVTZ
  Basis Set:
  Basis Set: CC-PVTZ
  Basis Set:
  @DF-RHF Final Energy:  -232.23724385923833
    Total Energy =                       -232.2372438592383332
  Basis Set: CC-PVTZ
  Basis Set:
  Charge       = 0
  Multiplicity = 1
  Basis Set: CC-PVTZ
  Basis Set:

    Orbital Energies (a.u.)
    -----------------------

    Doubly Occupied:

       1A    -20.546270     2A    -11.265423     3A    -11.210928
       4A    -11.208144     5A    -11.204685     6A     -1.364058
       7A     -1.065965     8A     -0.972395     9A     -0.870418
      10A     -0.775931    11A     -0.707813    12A     -0.649947
      13A     -0.608971    14A     -0.578183    15A     -0.564679
      16A     -0.534650    17A     -0.510580    18A     -0.477130
      19A     -0.468665    20A     -0.454114    21A     -0.432829

  @DF-RHF Final Energy:  -232.23724482471167

   => Energetics <=

    Nuclear Repulsion Energy =            191.7661905495220651
    One-Electron Energy =                -695.0633089363768704
    Two-Electron Energy =                 271.0598735621434230
    DFT Exchange-Correlation Energy =       0.0000000000000000
    Empirical Dispersion Energy =           0.0000000000000000
    PCM Polarization Energy =               0.0000000000000000
    EFP Energy =                            0.0000000000000000
    Total Energy =                       -232.2372448247113539
    Molecular point group: c1
  Basis Set: CC-PVTZ
  Basis Set:

  -Total Gradient:
     Atom            X                  Y                   Z
    ------   -----------------  -----------------  -----------------
       1       -0.001122054200    -0.000584286770    -0.000113369882
       2        0.001095978561     0.000657224338     0.000272999244
       3        0.000483679466     0.000676097996    -0.000091602613
       4       -0.000520667667    -0.000728812165     0.000040644985
       5       -0.000033172403    -0.000095234757    -0.000043885614
       6       -0.000025470702     0.000025925550    -0.000089811432
       7       -0.000000532470     0.000071868514     0.000033139459
       8        0.000015246727     0.000022801739    -0.000029178042
       9        0.000059848135    -0.000007160274     0.000018557629
      10        0.000004245135     0.000005536034     0.000001142385
      11        0.000006302672    -0.000009309579    -0.000037551413
      12        0.000004476778     0.000019822261    -0.000002244995
      13       -0.000003002435    -0.000020694994    -0.000002904901
      14        0.000045776746    -0.000028554867     0.000053507365
      15       -0.000010654348    -0.000005223030    -0.000009442175

  **** Optimization is complete! (in 4 steps) ****
    Final optimized geometry and variables:
    Molecular point group: c1

    Geometry (in Angstrom), charge = 0, multiplicity = 1:

    H            2.162366411634    -1.349925998662    -0.166198729428
    O            1.704716959320    -0.590493992104    -0.473865918938
    C            1.136811020268     0.107053321065     0.605340717906
    C            0.025845257210     1.004924643013     0.091469754897
    H            1.892051137390     0.714746108050     1.096416175348
    H            0.750153088700    -0.587836959225     1.344711376754
    C           -1.140965267887     0.278886178522    -0.579240283837
    H            0.461253461561     1.702411871610    -0.616994342126
    H           -0.340151007912     1.596139374770     0.927443437319
    C           -1.947613557265    -0.623312448479     0.351405733058
    H           -0.763881657670    -0.302745247117    -1.411720217455
    H           -1.804410881562     1.027427844985    -1.001195121861
    H           -2.797511540701    -1.048886477788    -0.169681884703
    H           -1.355457834391    -1.448729464004     0.729135951385
    H           -2.327876570862    -0.070139414776     1.204663404031

  Mulliken Charges: (a.u.)
   Center  Symbol    Alpha    Beta     Spin     Total
       1     H     0.39462  0.39462  0.00000  0.21075
       2     O     4.20112  4.20112  0.00000 -0.40225
       3     C     2.97642  2.97642  0.00000  0.04717
       4     C     3.09405  3.09405  0.00000 -0.18809
       5     H     0.46194  0.46194  0.00000  0.07612
       6     H     0.47214  0.47214  0.00000  0.05572
       7     C     3.08796  3.08796  0.00000 -0.17593
       8     H     0.44753  0.44753  0.00000  0.10493
       9     H     0.45437  0.45437  0.00000  0.09126
      10     C     3.15447  3.15447  0.00000 -0.30895
      11     H     0.44646  0.44646  0.00000  0.10707
      12     H     0.45043  0.45043  0.00000  0.09914
      13     H     0.44641  0.44641  0.00000  0.10717
      14     H     0.45565  0.45565  0.00000  0.08871
      15     H     0.45642  0.45642  0.00000  0.08717

   Total alpha = 21.00000, Total beta = 21.00000, Total charge = -0.00000

*** Psi4 exiting successfully. Buy a developer a beer!
