  ==> Input File <==

--------------------------------------------------------------------------
set {
	reference rhf
	basis 6-31G*
}

set_num_threads( 1 )
memory 2 gb

molecule MOL {
0 1

H	 -3.161837	 0.500524	 -0.000234
C	 -2.367097	 -0.232926	 -0.000000
O	 -1.158440	 0.455814	 -0.000122
H	 -2.468853	 -0.861886	 -0.882833
H	 -2.468942	 -0.861421	 0.883154
C	 -0.029776	 -0.365156	 0.000148
C	 1.212217	 0.508981	 0.000007
H	 -0.036772	 -1.013236	 -0.877259
H	 -0.036869	 -1.012778	 0.877897
C	 2.501538	 -0.307519	 0.076554
H	 1.205779	 1.116048	 -0.900043
H	 1.151350	 1.193805	 0.840252
H	 2.593852	 -0.982968	 -0.769419
H	 3.371186	 0.340984	 0.075295
H	 2.538759	 -0.905302	 0.983017

	symmetry c1
}
set optking {
	frozen_dihedral = ("
		6 3 2 4,
		8 6 3 2
	")
}

ee = energy('scf')
oeprop('DIPOLE', 'QUADRUPOLE', 'MULLIKEN_CHARGES')
f=open( 'psi4out.xyz', 'w' )
f.write( "15  " )
f.write( str(ee) + "\n" )
f.write( MOL.save_string_xyz() )
f.close()
--------------------------------------------------------------------------

    Molecular point group: c1

    Geometry (in Angstrom), charge = 0, multiplicity = 1:

       Center              X                  Y                   Z               Mass
    ------------   -----------------  -----------------  -----------------  -----------------
           H         -3.161595604604     0.500178649792    -0.015761647900     1.007825032070
           C         -2.366855604604    -0.233271350208    -0.015527647900    12.000000000000
           O         -1.158198604604     0.455468649792    -0.015649647900    15.994914619560
           H         -2.468611604604    -0.862231350208    -0.898360647900     1.007825032070
           H         -2.468700604604    -0.861766350208     0.867626352100     1.007825032070
           C         -0.029534604604    -0.365501350208    -0.015379647900    12.000000000000
           C          1.212458395396     0.508635649792    -0.015520647900    12.000000000000
           H         -0.036530604604    -1.013581350208    -0.892786647900     1.007825032070
           H         -0.036627604604    -1.013123350208     0.862369352100     1.007825032070
           C          2.501779395396    -0.307864350208     0.061026352100    12.000000000000
           H          1.206020395396     1.115702649792    -0.915570647900     1.007825032070
           H          1.151591395396     1.193459649792     0.824724352100     1.007825032070
           H          2.594093395396    -0.983313350208    -0.784946647900     1.007825032070
           H          3.371427395396     0.340638649792     0.059767352100     1.007825032070
           H          2.539000395396    -0.905647350208     0.967489352100     1.007825032070

  Charge       = 0
  Multiplicity = 1
  Basis Set: 6-31G*
  Basis Set:

    Orbital Energies (a.u.)
    -----------------------

    Doubly Occupied:

       1A    -20.553477     2A    -11.266256     3A    -11.264012
       4A    -11.214260     5A    -11.212931     6A     -1.378404
       7A     -1.057287     8A     -0.955339     9A     -0.877280
      10A     -0.809102    11A     -0.674890    12A     -0.654072
      13A     -0.630268    14A     -0.607576    15A     -0.565544
      16A     -0.541236    17A     -0.502778    18A     -0.489087
      19A     -0.478055    20A     -0.461447    21A     -0.413852

  @DF-RHF Final Energy:  -232.13941348301293

   => Energetics <=

    Nuclear Repulsion Energy =            189.7336241332543239
    One-Electron Energy =                -690.5317838369632000
    Two-Electron Energy =                 268.6587462206948658
    DFT Exchange-Correlation Energy =       0.0000000000000000
    Empirical Dispersion Energy =           0.0000000000000000
    PCM Polarization Energy =               0.0000000000000000
    EFP Energy =                            0.0000000000000000
    Total Energy =                       -232.1394134830139819

  Mulliken Charges: (a.u.)
   Center  Symbol    Alpha    Beta     Spin     Total
       1     H     0.41215  0.41215  0.00000  0.17569
       2     C     3.07932  3.07932  0.00000 -0.15865
       3     O     4.30579  4.30579  0.00000 -0.61157
       4     H     0.43043  0.43043  0.00000  0.13915
       5     H     0.43041  0.43041  0.00000  0.13919
       6     C     2.98153  2.98153  0.00000  0.03694
       7     C     3.15988  3.15988  0.00000 -0.31976
       8     H     0.43331  0.43331  0.00000  0.13337
       9     H     0.43354  0.43354  0.00000  0.13292
      10     C     3.24790  3.24790  0.00000 -0.49580
      11     H     0.41483  0.41483  0.00000  0.17034
      12     H     0.41380  0.41380  0.00000  0.17241
      13     H     0.42100  0.42100  0.00000  0.15800
      14     H     0.41542  0.41542  0.00000  0.16916
      15     H     0.42070  0.42070  0.00000  0.15861

   Total alpha = 21.00000, Total beta = 21.00000, Total charge =  0.00000
