  ==> Input File <==

--------------------------------------------------------------------------
set {
	reference rhf
	basis 6-31G*
}

set_num_threads( 4 )
memory 2 gb

molecule MOL {
0 1

H	 -0.000158	 1.970498	 0.756846
O	 -0.000074	 1.880206	 -0.189275
C	 -0.000015	 0.544847	 -0.545111
C	 -1.278788	 -0.123820	 -0.051541
C	 1.278802	 -0.123718	 -0.051505
H	 -0.000001	 0.490777	 -1.623619
F	 -2.324827	 0.506557	 -0.541410
F	 -1.355259	 -1.385739	 -0.417696
F	 -1.357547	 -0.071629	 1.268562
F	 2.323327	 0.466644	 -0.591854
F	 1.326242	 -1.401483	 -0.363667
F	 1.388946	 -0.015632	 1.262939

	symmetry c1
}
set optking {
	frozen_dihedral = ("
		7 4 3 6
	")
}

ee = optimize('scf')
oeprop('DIPOLE', 'QUADRUPOLE', 'MULLIKEN_CHARGES')
f=open( 'psi4out.xyz', 'w' )
f.write( "12  " )
f.write( str(ee) + "\n" )
f.write( MOL.save_string_xyz() )
f.close()
--------------------------------------------------------------------------

    Molecular point group: c1
  Charge       = 0
  Multiplicity = 1
  Basis Set: 6-31G*
  Basis Set:
  @DF-RHF Final Energy:  -786.27803352651324
    Total Energy =                       -786.2780335265133544
    Molecular point group: c1
  Basis Set: 6-31G*
  Basis Set:
  Basis Set: 6-31G*
  Basis Set:
  @DF-RHF Final Energy:  -786.27805538213363
    Total Energy =                       -786.2780553821337435
  Basis Set: 6-31G*
  Basis Set:
  Basis Set: 6-31G*
  Basis Set:
  @DF-RHF Final Energy:  -786.27806384637449
    Total Energy =                       -786.2780638463738114
  Basis Set: 6-31G*
  Basis Set:
  Charge       = 0
  Multiplicity = 1
  Basis Set: 6-31G*
  Basis Set:

    Orbital Energies (a.u.)
    -----------------------

    Doubly Occupied:

       1A    -26.362965     2A    -26.362417     3A    -26.362146
       4A    -26.361603     5A    -26.358322     6A    -26.357914
       7A    -20.617286     8A    -11.526051     9A    -11.525547
      10A    -11.349362    11A     -1.764693    12A     -1.758710
      13A     -1.662102    14A     -1.657807    15A     -1.656847
      16A     -1.655239    17A     -1.435660    18A     -1.101982
      19A     -0.996852    20A     -0.938489    21A     -0.863646
      22A     -0.862782    23A     -0.852116    24A     -0.844372
      25A     -0.831790    26A     -0.816000    27A     -0.743689
      28A     -0.726925    29A     -0.724333    30A     -0.717544
      31A     -0.689200    32A     -0.686330    33A     -0.683334
      34A     -0.674451    35A     -0.669914    36A     -0.663027
      37A     -0.656560    38A     -0.653578    39A     -0.620396
      40A     -0.551444    41A     -0.506061

  @DF-RHF Final Energy:  -786.27806453632888

   => Energetics <=

    Nuclear Repulsion Energy =            670.5810223451410366
    One-Electron Energy =               -2428.0191990542216445
    Two-Electron Energy =                 971.1601121727514965
    DFT Exchange-Correlation Energy =       0.0000000000000000
    Empirical Dispersion Energy =           0.0000000000000000
    PCM Polarization Energy =               0.0000000000000000
    EFP Energy =                            0.0000000000000000
    Total Energy =                       -786.2780645363291114
    Molecular point group: c1
  Basis Set: 6-31G*
  Basis Set:

  -Total Gradient:
     Atom            X                  Y                   Z
    ------   -----------------  -----------------  -----------------
       1        0.000006003019     0.000016818197     0.000006114816
       2        0.000004467410     0.000025865112    -0.000001750329
       3       -0.000338380206     0.000623020848     0.000060089741
       4        0.000114884239    -0.000497553928    -0.000534780054
       5        0.000043669266    -0.000012519085     0.000041160466
       6        0.000239260597    -0.000436151920     0.000026408410
       7        0.000024309558     0.000222248931     0.000408166854
       8        0.000002632286     0.000038218452    -0.000006132002
       9       -0.000009036502     0.000046563405     0.000023019544
      10       -0.000023682095     0.000012530152     0.000003468834
      11       -0.000024763505    -0.000062237209    -0.000028163528
      12       -0.000039364076     0.000023197035     0.000002397245

  **** Optimization is complete! (in 4 steps) ****
    Final optimized geometry and variables:
    Molecular point group: c1

    Geometry (in Angstrom), charge = 0, multiplicity = 1:

    H            0.010183100058     1.968327028397     0.768927539642
    O           -0.000423537413     1.883323656611    -0.177616426263
    C           -0.000855504814     0.550411937602    -0.541359379132
    C           -1.278260590696    -0.125752584052    -0.054973514020
    C            1.277667587438    -0.120793907340    -0.049648654264
    H            0.002198017905     0.500265208214    -1.620160774466
    F           -2.325783199715     0.501400864844    -0.545367729525
    F           -1.345220161790    -1.386232247667    -0.427758994775
    F           -1.363548605651    -0.079901399617     1.265134634541
    F            2.321492623938     0.450982976330    -0.611307783041
    F            1.310562903773    -1.404462274615    -0.339231041236
    F            1.403111151160     0.009741402134     1.261246424876

  Mulliken Charges: (a.u.)
   Center  Symbol    Alpha    Beta     Spin     Total
       1     H     0.26570  0.26570  0.00000  0.46860
       2     O     4.36258  4.36258  0.00000 -0.72516
       3     C     3.04469  3.04469  0.00000 -0.08939
       4     C     2.44671  2.44671  0.00000  1.10658
       5     C     2.44592  2.44592  0.00000  1.10816
       6     H     0.37536  0.37536  0.00000  0.24928
       7     F     4.67463  4.67463  0.00000 -0.34926
       8     F     4.67392  4.67392  0.00000 -0.34784
       9     F     4.68082  4.68082  0.00000 -0.36164
      10     F     4.67498  4.67498  0.00000 -0.34996
      11     F     4.67390  4.67390  0.00000 -0.34779
      12     F     4.68079  4.68079  0.00000 -0.36158

   Total alpha = 41.00000, Total beta = 41.00000, Total charge = -0.00000
