                              Psi4 1.0.54 Driver

  ==> Input File <==

--------------------------------------------------------------------------
set {
	reference rhf
	basis cc-pvtz
}

set_num_threads( 4 )
memory 2 gb

molecule MOL {
0 1

O	 0.570210	 -0.219771	 -0.000100
C	 1.704209	 0.119472	 -0.000093
C	 2.191451	 1.545738	 -0.000066
O	 2.715427	 -0.733672	 0.000025
C	 1.071754	 2.576564	 -0.000456
H	 2.835030	 1.664800	 0.865429
H	 2.835552	 1.664682	 -0.865183
C	 1.600360	 4.007855	 -0.000612
H	 0.439453	 2.417608	 0.865686
H	 0.439815	 2.417318	 -0.866819
C	 0.491638	 5.056284	 -0.001510
H	 2.235308	 4.160192	 0.869379
H	 2.236227	 4.159670	 -0.870016
C	 1.019887	 6.486796	 -0.001170
H	 -0.143519	 4.906196	 0.866941
H	 -0.142211	 4.906102	 -0.870901
H	 1.630279	 6.678778	 0.875071
H	 0.208009	 7.204841	 -0.001618
H	 1.631274	 6.678812	 -0.876710
C	 4.020999	 -0.192556	 0.000019
H	 4.182809	 0.412891	 -0.879449
H	 4.692590	 -1.035653	 0.000152
H	 4.182726	 0.413087	 0.879368

	symmetry c1
}
set optking {
	frozen_dihedral = ("
		1 2 4 20
	")
}

ee,wfn = optimize('scf', return_wfn=True)
oeprop( wfn, 'DIPOLE', 'QUADRUPOLE', 'MULLIKEN_CHARGES')
f=open( 'psi4out.xyz', 'w' )
f.write( "23  " )
f.write( str(ee) + "\n" )
f.write( MOL.save_string_xyz() )
f.close()
--------------------------------------------------------------------------

    Molecular point group: c1
  Charge       = 0
  Multiplicity = 1
  Basis Set: CC-PVTZ
  Basis Set:
  @DF-RHF Final Energy:  -423.10498230152757
    Total Energy =                       -423.1049823015275706
    Molecular point group: c1
  Basis Set: CC-PVTZ
  Basis Set:
  Basis Set: CC-PVTZ
  Basis Set:
  @DF-RHF Final Energy:  -423.05677885491326
    Total Energy =                       -423.0567788549132047
  Basis Set: CC-PVTZ
  Basis Set:
  Basis Set: CC-PVTZ
  Basis Set:
  @DF-RHF Final Energy:  -423.10859102067872
    Total Energy =                       -423.1085910206793415
  Basis Set: CC-PVTZ
  Basis Set:
  Basis Set: CC-PVTZ
  Basis Set:
  @DF-RHF Final Energy:  -423.11560591730159
    Total Energy =                       -423.1156059173013091
  Basis Set: CC-PVTZ
  Basis Set:
  @DF-RHF Final Energy:  -423.11689688860264
    Total Energy =                       -423.1168968886026960
  Basis Set: CC-PVTZ
  Basis Set:
  @DF-RHF Final Energy:  -423.11692597064058
    Total Energy =                       -423.1169259706412049
  Basis Set: CC-PVTZ
  Basis Set:
  Basis Set: CC-PVTZ
  Basis Set:
  @DF-RHF Final Energy:  -423.11692847184207
    Total Energy =                       -423.1169284718421295
  Basis Set: CC-PVTZ
  Basis Set:
  Basis Set: CC-PVTZ
  Basis Set:
  @DF-RHF Final Energy:  -423.11692548718202
    Total Energy =                       -423.1169254871816747
  Basis Set: CC-PVTZ
  Basis Set:
  Charge       = 0
  Multiplicity = 1
  Basis Set: CC-PVTZ
  Basis Set:

    Orbital Energies (a.u.)
    -----------------------

    Doubly Occupied:

       1A    -20.595063     2A    -20.526956     3A    -11.365937
       4A    -11.293186     5A    -11.243465     6A    -11.221109
       7A    -11.219777     8A    -11.217288     9A    -11.210272
      10A     -1.465815    11A     -1.366892    12A     -1.097719
      13A     -1.042864    14A     -0.987767    15A     -0.953506
      16A     -0.855090    17A     -0.799806    18A     -0.767609
      19A     -0.702476    20A     -0.692665    21A     -0.674946
      22A     -0.656196    23A     -0.613056    24A     -0.603959
      25A     -0.580310    26A     -0.567484    27A     -0.564566
      28A     -0.537236    29A     -0.523880    30A     -0.511169
      31A     -0.490357    32A     -0.472883    33A     -0.469658
      34A     -0.465423    35A     -0.450053    36A     -0.432053

  @DF-RHF Final Energy:  -423.11692897147338

   => Energetics <=

    Nuclear Repulsion Energy =            455.7202152151822929
    One-Electron Energy =               -1479.1973170961668984
    Two-Electron Energy =                 600.3601729095116752
    DFT Exchange-Correlation Energy =       0.0000000000000000
    Empirical Dispersion Energy =           0.0000000000000000
    PCM Polarization Energy =               0.0000000000000000
    EFP Energy =                            0.0000000000000000
    Total Energy =                       -423.1169289714729302
    Molecular point group: c1
  Basis Set: CC-PVTZ
  Basis Set:

  -Total Gradient:
     Atom            X                  Y                   Z
    ------   -----------------  -----------------  -----------------
       1       -0.000047403175    -0.000005282235     0.000009859567
       2        0.000081976296    -0.000036086845    -0.000027120283
       3       -0.000014514946     0.000013326254     0.000007992778
       4       -0.000055606114     0.000022610834     0.000008071561
       5        0.000008934240    -0.000002461467     0.000000170928
       6        0.000006908450     0.000000795218     0.000000289305
       7        0.000004614363    -0.000002620276     0.000000578426
       8        0.000000414931    -0.000000027574     0.000000269513
       9       -0.000000831030    -0.000000822296     0.000000583339
      10       -0.000000635007    -0.000001100594    -0.000000497978
      11       -0.000000131792    -0.000001378252     0.000000075468
      12       -0.000000490063    -0.000000283997    -0.000000239680
      13       -0.000000405626    -0.000000346815     0.000000200934
      14        0.000000552295    -0.000000043037    -0.000000282618
      15        0.000000143060    -0.000000190813    -0.000000180453
      16        0.000000117813    -0.000000065479     0.000000302158
      17       -0.000000150241    -0.000000100210    -0.000000242593
      18        0.000000167446    -0.000000311914     0.000000043959
      19        0.000000039610    -0.000000023669     0.000000259881
      20       -0.000008511912    -0.000038241985     0.000001912968
      21        0.000013285299     0.000027376504    -0.000019222003
      22        0.000000883020    -0.000001648319    -0.000000202406
      23        0.000010643080     0.000026926971     0.000017377230

  **** Optimization is complete! (in 9 steps) ****
    Final optimized geometry and variables:
    Molecular point group: c1

    Geometry (in Angstrom), charge = 0, multiplicity = 1:

    O           -1.103601249122    -2.181417106040     0.000202178826
    C            0.033485475507    -1.869459465709     0.000176656402
    C            0.500531097308    -0.429971258924     0.000082584718
    O            0.960605837322    -2.825252557369     0.000430061572
    C           -0.649305281817     0.568545334454    -0.000134586459
    H            1.135076707645    -0.275714124369     0.866971010205
    H            1.135259178368    -0.275883233925    -0.866700002858
    C           -0.160922029545     2.014131822220    -0.000227505133
    H           -1.275583251205     0.389162881649     0.865448984105
    H           -1.275404415226     0.388991534258    -0.865812791810
    C           -1.299987666046     3.029585651367    -0.000448308817
    H            0.469392427786     2.185721052136     0.869807846333
    H            0.469575030847     2.185547223644    -0.870164938810
    C           -0.813868098197     4.474899633244    -0.000555055511
    H           -1.929686538597     2.860672755640     0.868361385236
    H           -1.929514976957     2.860487971795    -0.869346290657
    H           -0.209139225603     4.685057526500     0.875473982600
    H           -1.646601544021     5.168516459050    -0.000717310924
    H           -0.208954544897     4.684867409644    -0.876502264885
    C            2.341097569097    -2.565748183674     0.000422867564
    H            2.648004293492    -2.022728423081    -0.883537228165
    H            2.822173732914    -3.530259576261     0.000721657328
    H            2.647908784258    -2.022221963978     0.884098346851

  Mulliken Charges: (a.u.)
   Center  Symbol    Alpha    Beta     Spin     Total
       1     O     4.18204  4.18204  0.00000 -0.36407
       2     C     2.80342  2.80342  0.00000  0.39315
       3     C     3.13864  3.13864  0.00000 -0.27728
       4     O     4.12765  4.12765  0.00000 -0.25529
       5     C     3.08209  3.08209  0.00000 -0.16419
       6     H     0.44062  0.44062  0.00000  0.11876
       7     H     0.44062  0.44062  0.00000  0.11876
       8     C     3.08782  3.08782  0.00000 -0.17564
       9     H     0.44333  0.44333  0.00000  0.11334
      10     H     0.44333  0.44333  0.00000  0.11333
      11     C     3.08529  3.08529  0.00000 -0.17057
      12     H     0.45656  0.45656  0.00000  0.08688
      13     H     0.45656  0.45656  0.00000  0.08688
      14     C     3.15018  3.15018  0.00000 -0.30035
      15     H     0.45238  0.45238  0.00000  0.09525
      16     H     0.45238  0.45238  0.00000  0.09525
      17     H     0.45547  0.45547  0.00000  0.08907
      18     H     0.44712  0.44712  0.00000  0.10577
      19     H     0.45547  0.45547  0.00000  0.08907
      20     C     3.04575  3.04575  0.00000 -0.09150
      21     H     0.46077  0.46077  0.00000  0.07845
      22     H     0.43175  0.43175  0.00000  0.13650
      23     H     0.46078  0.46078  0.00000  0.07845

   Total alpha = 36.00000, Total beta = 36.00000, Total charge = -0.00000

*** Psi4 exiting successfully. Buy a developer a beer!
