  ==> Input File <==

--------------------------------------------------------------------------
set {
	reference rhf
	basis 6-31G*
}

set_num_threads( 4 )
memory 2 gb

molecule MOL {
0 1

H	 3.169282	 -0.189149	 2.441409
O	 3.886821	 -0.335700	 1.842466
C	 3.730745	 -1.581752	 1.212349
C	 2.614630	 -1.594510	 0.173670
H	 4.678624	 -1.789867	 0.732883
H	 3.563865	 -2.364347	 1.951590
C	 1.219410	 -1.356504	 0.756407
H	 2.831572	 -0.836959	 -0.574942
H	 2.635039	 -2.557369	 -0.334121
C	 0.115918	 -1.429151	 -0.302766
H	 1.195335	 -0.383573	 1.239305
H	 1.019703	 -2.096500	 1.531562
C	 -1.309753	 -1.282496	 0.241564
H	 0.293292	 -0.665123	 -1.057515
H	 0.191614	 -2.385276	 -0.816376
C	 -2.037799	 -0.007733	 -0.193645
H	 -1.890610	 -2.142323	 -0.085726
H	 -1.285946	 -1.330893	 1.329189
C	 -3.489788	 0.042957	 0.286558
H	 -2.017067	 0.064384	 -1.280144
H	 -1.513726	 0.868678	 0.179924
C	 -4.216917	 1.317354	 -0.141063
H	 -4.025645	 -0.823308	 -0.095450
H	 -3.513059	 -0.038752	 1.371301
H	 -4.239342	 1.411634	 -1.223113
H	 -5.243387	 1.322503	 0.212445
H	 -3.726170	 2.201406	 0.256408

	symmetry c1
}
set optking {
	frozen_dihedral = ("
		14 10 13 16
	")
}

ee = optimize('scf')
oeprop('DIPOLE', 'QUADRUPOLE', 'MULLIKEN_CHARGES')
f=open( 'psi4out.xyz', 'w' )
f.write( "27  " )
f.write( str(ee) + "\n" )
f.write( MOL.save_string_xyz() )
f.close()
--------------------------------------------------------------------------

    Molecular point group: c1
  Charge       = 0
  Multiplicity = 1
  Basis Set: 6-31G*
  Basis Set:
  @DF-RHF Final Energy:  -388.27757493625182
    Total Energy =                       -388.2775749362517672
    Molecular point group: c1
  Basis Set: 6-31G*
  Basis Set:
  Basis Set: 6-31G*
  Basis Set:
  @DF-RHF Final Energy:  -388.27819845261558
    Total Energy =                       -388.2781984526155838
  Basis Set: 6-31G*
  Basis Set:
  Basis Set: 6-31G*
  Basis Set:
  @DF-RHF Final Energy:  -388.27826731948704
    Total Energy =                       -388.2782673194876679
  Basis Set: 6-31G*
  Basis Set:
  Basis Set: 6-31G*
  Basis Set:
  @DF-RHF Final Energy:  -388.27826983780557
    Total Energy =                       -388.2782698378060786
  Basis Set: 6-31G*
  Basis Set:
  Basis Set: 6-31G*
  Basis Set:
  @DF-RHF Final Energy:  -388.27828774904754
    Total Energy =                       -388.2782877490476494
  Basis Set: 6-31G*
  Basis Set:
  Basis Set: 6-31G*
  Basis Set:
  @DF-RHF Final Energy:  -388.27828498840944
    Total Energy =                       -388.2782849884090410
  Basis Set: 6-31G*
  Basis Set:
  Basis Set: 6-31G*
  Basis Set:
  @DF-RHF Final Energy:  -388.27828880712661
    Total Energy =                       -388.2782888071261596
  Basis Set: 6-31G*
  Basis Set:
  Charge       = 0
  Multiplicity = 1
  Basis Set: 6-31G*
  Basis Set:

    Orbital Energies (a.u.)
    -----------------------

    Doubly Occupied:

       1A    -20.552209     2A    -11.267078     3A    -11.220663
       4A    -11.216777     5A    -11.215578     6A    -11.215147
       7A    -11.215099     8A    -11.214322     9A    -11.208964
      10A     -1.359009    11A     -1.093795    12A     -1.062167
      13A     -1.010545    14A     -0.949886    15A     -0.883179
      16A     -0.820714    17A     -0.793701    18A     -0.789154
      19A     -0.694027    20A     -0.648136    21A     -0.641239
      22A     -0.613384    23A     -0.599824    24A     -0.585518
      25A     -0.576567    26A     -0.551679    27A     -0.543637
      28A     -0.523690    29A     -0.508174    30A     -0.488753
      31A     -0.485227    32A     -0.476484    33A     -0.469991
      34A     -0.463210    35A     -0.451990    36A     -0.441759
      37A     -0.420937

  @DF-RHF Final Energy:  -388.27828876619407

   => Energetics <=

    Nuclear Repulsion Energy =            455.1596437356338924
    One-Electron Energy =               -1428.3314403005979329
    Two-Electron Energy =                 584.8935077987703153
    DFT Exchange-Correlation Energy =       0.0000000000000000
    Empirical Dispersion Energy =           0.0000000000000000
    PCM Polarization Energy =               0.0000000000000000
    EFP Energy =                            0.0000000000000000
    Total Energy =                       -388.2782887661937821
    Molecular point group: c1
  Basis Set: 6-31G*
  Basis Set:

  -Total Gradient:
     Atom            X                  Y                   Z
    ------   -----------------  -----------------  -----------------
       1        0.000005506176    -0.000003089047    -0.000000801820
       2        0.000006907184     0.000002086972    -0.000005849061
       3       -0.000013559288    -0.000010930123     0.000017621681
       4       -0.000008946069     0.000011169053    -0.000011519812
       5       -0.000002644138     0.000001423830    -0.000000019253
       6        0.000001971150     0.000000079138     0.000002836829
       7       -0.000005869722    -0.000003561090     0.000002724419
       8       -0.000003535989     0.000004147330    -0.000000117609
       9       -0.000000973294     0.000003459270    -0.000002146351
      10       -0.000849009661    -0.001471479233    -0.001840818347
      11       -0.000010784800     0.000005139597    -0.000000480880
      12        0.000008036837     0.000002103059     0.000000218234
      13        0.000725202784     0.001013025972     0.001638765433
      14        0.000560384467     0.000997013438     0.001158666469
      15        0.000006463407     0.000001319382    -0.000005166422
      16       -0.000424490947    -0.000548861364    -0.000956383774
      17       -0.000003208688     0.000007029713     0.000010153537
      18       -0.000000268964     0.000000135260     0.000006512372
      19       -0.000004688888    -0.000015581565    -0.000015746209
      20        0.000004269210     0.000004515168    -0.000001453781
      21        0.000004637858     0.000003296889     0.000003314748
      22        0.000006095097     0.000001966920     0.000001483858
      23       -0.000006374866    -0.000001424405    -0.000000825595
      24        0.000003550548    -0.000002791272    -0.000003278122
      25       -0.000001297043    -0.000001316624     0.000001510493
      26        0.000001662844    -0.000000100811     0.000002880528
      27        0.000000964786     0.000001224543    -0.000002081567

  **** Optimization is complete! (in 8 steps) ****
    Final optimized geometry and variables:
    Molecular point group: c1

    Geometry (in Angstrom), charge = 0, multiplicity = 1:

    H            2.903920336856     0.469861960214     2.047947957981
    O            3.645886396758     0.409374799944     1.463993583172
    C            3.599795746186    -0.808585816996     0.765277775044
    C            2.507559269688    -0.850197015144    -0.297830921157
    H            4.569957295629    -0.916051206957     0.297501305344
    H            3.480873171069    -1.641089909085     1.457792727604
    C            1.088226179673    -0.751443908443     0.264208870801
    H            2.679256983625    -0.039638260061    -1.001312539121
    H            2.611157494464    -1.780367572462    -0.854347716681
    C            0.004992003107    -0.860592179826    -0.813061104897
    H            0.967117161950     0.196712222199     0.785243641994
    H            0.935463177862    -1.535430875498     1.005471443009
    C           -1.428364133600    -0.704721860303    -0.258966614350
    H            0.191636970032    -0.093504968768    -1.560936560571
    H            0.110345972486    -1.814784025193    -1.321863109334
    C           -2.115751159473     0.590453064949    -0.698763309775
    H           -2.039953217248    -1.545784524430    -0.575645014544
    H           -1.408247095128    -0.746523174054     0.827905744135
    C           -3.521810177487     0.757612802204    -0.121314921107
    H           -2.167811847662     0.614701829792    -1.785832339136
    H           -1.503082152161     1.442175799313    -0.405582542776
    C           -4.204140637897     2.048567702772    -0.572739722673
    H           -4.133504836181    -0.094154902110    -0.411586805795
    H           -3.469481394895     0.738362359402     0.965327359938
    H           -4.303866941323     2.081837769352    -1.654008932525
    H           -5.198474988325     2.138402987262    -0.146300832152
    H           -3.633414055625     2.921148322594    -0.267618557784

  Mulliken Charges: (a.u.)
   Center  Symbol    Alpha    Beta     Spin     Total
       1     H     0.27994  0.27994  0.00000  0.44012
       2     O     4.37096  4.37096  0.00000 -0.74193
       3     C     2.99725  2.99725  0.00000  0.00550
       4     C     3.16200  3.16200  0.00000 -0.32400
       5     H     0.41444  0.41444  0.00000  0.17113
       6     H     0.43201  0.43201  0.00000  0.13598
       7     C     3.16353  3.16353  0.00000 -0.32706
       8     H     0.41490  0.41490  0.00000  0.17020
       9     H     0.42420  0.42420  0.00000  0.15159
      10     C     3.15394  3.15394  0.00000 -0.30788
      11     H     0.42511  0.42511  0.00000  0.14978
      12     H     0.42437  0.42437  0.00000  0.15126
      13     C     3.15571  3.15571  0.00000 -0.31143
      14     H     0.41879  0.41879  0.00000  0.16242
      15     H     0.42014  0.42014  0.00000  0.15972
      16     C     3.15258  3.15258  0.00000 -0.30516
      17     H     0.42063  0.42063  0.00000  0.15874
      18     H     0.42211  0.42211  0.00000  0.15578
      19     C     3.15209  3.15209  0.00000 -0.30417
      20     H     0.42288  0.42288  0.00000  0.15425
      21     H     0.42404  0.42404  0.00000  0.15193
      22     C     3.23921  3.23921  0.00000 -0.47842
      23     H     0.42308  0.42308  0.00000  0.15383
      24     H     0.42343  0.42343  0.00000  0.15313
      25     H     0.42164  0.42164  0.00000  0.15673
      26     H     0.41936  0.41936  0.00000  0.16128
      27     H     0.42166  0.42166  0.00000  0.15667

   Total alpha = 37.00000, Total beta = 37.00000, Total charge =  0.00000
