                              Psi4 1.0.54 Driver

  ==> Input File <==

--------------------------------------------------------------------------
set {
	reference rhf
	basis cc-pvtz
}

set_num_threads( 4 )
memory 2 gb

molecule MOL {
0 1

O	 -1.278239	 1.034789	 -0.784693
C	 -1.204115	 0.062668	 -0.112312
C	 -2.386398	 -0.667698	 0.460323
O	 -0.068058	 -0.518372	 0.226882
H	 -2.382952	 -1.693172	 0.114333
H	 -3.296656	 -0.175702	 0.158400
H	 -2.312537	 -0.685191	 1.540100
C	 1.169086	 0.037484	 -0.230612
C	 1.253453	 1.429756	 0.362324
C	 1.205408	 0.035237	 -1.748269
H	 1.969956	 -0.577257	 0.151210
H	 1.218863	 1.387918	 1.443436
H	 2.182350	 1.902935	 0.067427
H	 0.430792	 2.044675	 0.017305
H	 2.136399	 0.467048	 -2.096545
H	 1.136142	 -0.972818	 -2.132554
H	 0.386131	 0.621493	 -2.148735

	symmetry c1
}
set optking {
	frozen_dihedral = ("
		11 8 4 2
	")
}

ee,wfn = optimize('scf', return_wfn=True)
oeprop( wfn, 'DIPOLE', 'QUADRUPOLE', 'MULLIKEN_CHARGES')
f=open( 'psi4out.xyz', 'w' )
f.write( "17  " )
f.write( str(ee) + "\n" )
f.write( MOL.save_string_xyz() )
f.close()
--------------------------------------------------------------------------

    Molecular point group: c1
  Charge       = 0
  Multiplicity = 1
  Basis Set: CC-PVTZ
  Basis Set:
  @DF-RHF Final Energy:  -345.03031367036300
    Total Energy =                       -345.0303136703624887
    Molecular point group: c1
  Basis Set: CC-PVTZ
  Basis Set:
  Basis Set: CC-PVTZ
  Basis Set:
  @DF-RHF Final Energy:  -345.03732378728711
    Total Energy =                       -345.0373237872872210
  Basis Set: CC-PVTZ
  Basis Set:
  Basis Set: CC-PVTZ
  Basis Set:
  @DF-RHF Final Energy:  -345.03834639702910
    Total Energy =                       -345.0383463970291018
  Basis Set: CC-PVTZ
  Basis Set:
  Basis Set: CC-PVTZ
  Basis Set:
  @DF-RHF Final Energy:  -345.03573635287006
    Total Energy =                       -345.0357363528695487
  Basis Set: CC-PVTZ
  Basis Set:
  Basis Set: CC-PVTZ
  Basis Set:
  @DF-RHF Final Energy:  -345.03863482006926
    Total Energy =                       -345.0386348200693760
  Basis Set: CC-PVTZ
  Basis Set:
  Basis Set: CC-PVTZ
  Basis Set:
  @DF-RHF Final Energy:  -345.03867964859222
    Total Energy =                       -345.0386796485923924
  Basis Set: CC-PVTZ
  Basis Set:
  Basis Set: CC-PVTZ
  Basis Set:
  @DF-RHF Final Energy:  -345.03868150888155
    Total Energy =                       -345.0386815088816093
  Basis Set: CC-PVTZ
  Basis Set:
  Charge       = 0
  Multiplicity = 1
  Basis Set: CC-PVTZ
  Basis Set:

    Orbital Energies (a.u.)
    -----------------------

    Doubly Occupied:

       1A    -20.589890     2A    -20.530067     3A    -11.366692
       4A    -11.292195     5A    -11.229191     6A    -11.212313
       7A    -11.212297     8A     -1.465657     9A     -1.363825
      10A     -1.077014    11A     -1.003727    12A     -0.946480
      13A     -0.868507    14A     -0.731961    15A     -0.698226
      16A     -0.672937    17A     -0.662916    18A     -0.615615
      19A     -0.586590    20A     -0.581153    21A     -0.570423
      22A     -0.552599    23A     -0.529705    24A     -0.520550
      25A     -0.498899    26A     -0.484566    27A     -0.449005
      28A     -0.431527

  @DF-RHF Final Energy:  -345.03868169997367

   => Energetics <=

    Nuclear Repulsion Energy =            327.4638272511244281
    One-Electron Energy =               -1119.5159623808829110
    Two-Electron Energy =                 447.0134534297847040
    DFT Exchange-Correlation Energy =       0.0000000000000000
    Empirical Dispersion Energy =           0.0000000000000000
    PCM Polarization Energy =               0.0000000000000000
    EFP Energy =                            0.0000000000000000
    Total Energy =                       -345.0386816999737221
    Molecular point group: c1
  Basis Set: CC-PVTZ
  Basis Set:

  -Total Gradient:
     Atom            X                  Y                   Z
    ------   -----------------  -----------------  -----------------
       1        0.000001988529     0.000011030406    -0.000006671973
       2        0.000024070978    -0.000022241391     0.000025480525
       3       -0.000013566809    -0.000004769496    -0.000012999197
       4       -0.000031078698     0.000015076392    -0.000012304935
       5        0.000001689212    -0.000001243106     0.000007971523
       6        0.000001907903    -0.000002100633     0.000004529187
       7       -0.000002157906     0.000002753430    -0.000003306705
       8        0.000036763577     0.000010875154    -0.000001069833
       9       -0.000001729288    -0.000001646508     0.000001043178
      10       -0.000001619448    -0.000002175030    -0.000010794096
      11       -0.000002506865    -0.000006464217     0.000001353356
      12       -0.000000804923     0.000003783830    -0.000002265272
      13       -0.000008291122    -0.000005191159     0.000000424115
      14        0.000000108618     0.000003045207     0.000002508517
      15       -0.000007835395    -0.000001494319     0.000002980821
      16       -0.000000039923     0.000002009461    -0.000000313868
      17        0.000003101560    -0.000001248022     0.000003434657

  **** Optimization is complete! (in 8 steps) ****
    Final optimized geometry and variables:
    Molecular point group: c1

    Geometry (in Angstrom), charge = 0, multiplicity = 1:

    O           -1.265893966286     0.781379065833    -0.437953063751
    C           -1.058647082735    -0.205171718596     0.184061499078
    C           -2.136181945402    -1.063377247578     0.788355933542
    O            0.137828418493    -0.697175471974     0.439738287966
    H           -2.064512045060    -2.068647655867     0.393781877261
    H           -3.102486612316    -0.642839853340     0.562001741449
    H           -1.996099386406    -1.120860351774     1.860078558393
    C            1.345294233342    -0.071886182002    -0.020997915015
    C            1.551809422311     1.297368895244     0.605664179764
    C            1.445144238594    -0.075931386731    -1.537663137817
    H            2.098608424527    -0.740863990286     0.370130292902
    H            1.441567554864     1.239796398744     1.681936382626
    H            2.558611566285     1.636176718767     0.389912496528
    H            0.852450673968     2.023609679882     0.220618175861
    H            2.448347571583     0.216131945388    -1.826237553311
    H            1.261969050970    -1.071134543252    -1.924762142536
    H            0.742642194850     0.609144021393    -1.987029908505

  Mulliken Charges: (a.u.)
   Center  Symbol    Alpha    Beta     Spin     Total
       1     O     4.20214  4.20214  0.00000 -0.40428
       2     C     2.80039  2.80039  0.00000  0.39922
       3     C     3.13711  3.13711  0.00000 -0.27422
       4     O     4.16346  4.16346  0.00000 -0.32693
       5     H     0.44590  0.44590  0.00000  0.10820
       6     H     0.43879  0.43879  0.00000  0.12243
       7     H     0.44593  0.44593  0.00000  0.10814
       8     C     2.93827  2.93827  0.00000  0.12345
       9     C     3.15971  3.15971  0.00000 -0.31943
      10     C     3.15971  3.15971  0.00000 -0.31942
      11     H     0.43976  0.43976  0.00000  0.12049
      12     H     0.44827  0.44827  0.00000  0.10347
      13     H     0.45030  0.45030  0.00000  0.09940
      14     H     0.43585  0.43585  0.00000  0.12831
      15     H     0.45030  0.45030  0.00000  0.09939
      16     H     0.44827  0.44827  0.00000  0.10347
      17     H     0.43584  0.43584  0.00000  0.12832

   Total alpha = 28.00000, Total beta = 28.00000, Total charge = -0.00000

*** Psi4 exiting successfully. Buy a developer a beer!
