  ==> Input File <==

--------------------------------------------------------------------------
set {
	reference rhf
	basis cc-pvtz
}

set_num_threads( 4 )
memory 2 gb

molecule MOL {
0 1

O	 -0.294688	 1.318815	 -0.000872
C	 -0.448732	 0.145721	 -0.000187
C	 -1.780748	 -0.548101	 0.000195
O	 0.550743	 -0.719877	 0.000412
H	 -1.859389	 -1.183260	 -0.872613
H	 -2.570236	 0.185547	 -0.001342
H	 -1.860233	 -1.180337	 0.875064
C	 1.040579	 -1.144757	 -1.256012
H	 0.262249	 -1.634368	 -1.822150
H	 1.839524	 -1.836768	 -1.045084
H	 1.413941	 -0.304879	 -1.822781

	symmetry c1
}
set optking {
	frozen_dihedral = ("
		8 4 2 1
	")
}

ee = optimize('scf')
oeprop('DIPOLE', 'QUADRUPOLE', 'MULLIKEN_CHARGES')
f=open( 'psi4out.xyz', 'w' )
f.write( "11  " )
f.write( str(ee) + "\n" )
f.write( MOL.save_string_xyz() )
f.close()
--------------------------------------------------------------------------

    Molecular point group: c1
  Charge       = 0
  Multiplicity = 1
  Basis Set: CC-PVTZ
  Basis Set:
  @DF-RHF Final Energy:  -266.91806777053091
    Total Energy =                       -266.9180677705308540
    Molecular point group: c1
  Basis Set: CC-PVTZ
  Basis Set:
  Basis Set: CC-PVTZ
  Basis Set:
  @DF-RHF Final Energy:  -266.91709854460976
    Total Energy =                       -266.9170985446099280
  Basis Set: CC-PVTZ
  Basis Set:
  Basis Set: CC-PVTZ
  Basis Set:
  @DF-RHF Final Energy:  -266.91907121485224
    Total Energy =                       -266.9190712148524085
  Basis Set: CC-PVTZ
  Basis Set:
  Basis Set: CC-PVTZ
  Basis Set:
  @DF-RHF Final Energy:  -266.91958753434102
    Total Energy =                       -266.9195875343412467
  Basis Set: CC-PVTZ
  Basis Set:
  @DF-RHF Final Energy:  -266.91960508777606
    Total Energy =                       -266.9196050877761195
  @DF-RHF Final Energy:  -266.91960913261732
    Total Energy =                       -266.9196091326174383
  @DF-RHF Final Energy:  -266.91961022691214
    Total Energy =                       -266.9196102269122548
  @DF-RHF Final Energy:  -266.91839165613504
    Total Energy =                       -266.9183916561351566
  Basis Set: CC-PVTZ
  Basis Set:
  @DF-RHF Final Energy:  -266.91944457039887
    Total Energy =                       -266.9194445703988094
  Basis Set: CC-PVTZ
  Basis Set:
  Basis Set: CC-PVTZ
  Basis Set:
  @DF-RHF Final Energy:  -266.91960718655952
    Total Energy =                       -266.9196071865592330
  Basis Set: CC-PVTZ
  Basis Set:
  Basis Set: CC-PVTZ
  Basis Set:
  @DF-RHF Final Energy:  -266.91961060799491
    Total Energy =                       -266.9196106079950823
  Basis Set: CC-PVTZ
  Basis Set:
  Charge       = 0
  Multiplicity = 1
  Basis Set: CC-PVTZ
  Basis Set:

    Orbital Energies (a.u.)
    -----------------------

    Doubly Occupied:

       1A    -20.580179     2A    -20.547669     3A    -11.372374
       4A    -11.290813     5A    -11.238061     6A     -1.463990
       7A     -1.372223     8A     -1.027614     9A     -0.964475
      10A     -0.780264    11A     -0.697187    12A     -0.687066
      13A     -0.671473    14A     -0.615184    15A     -0.590356
      16A     -0.579341    17A     -0.543013    18A     -0.499494
      19A     -0.463420    20A     -0.444802

  @DF-RHF Final Energy:  -266.91961073676907

   => Energetics <=

    Nuclear Repulsion Energy =            182.7467169782084966
    One-Electron Energy =                -726.4746545663692814
    Two-Electron Energy =                 276.8083268513917687
    DFT Exchange-Correlation Energy =       0.0000000000000000
    Empirical Dispersion Energy =           0.0000000000000000
    PCM Polarization Energy =               0.0000000000000000
    EFP Energy =                            0.0000000000000000
    Total Energy =                       -266.9196107367690161
    Molecular point group: c1
  Basis Set: CC-PVTZ
  Basis Set:

  -Total Gradient:
     Atom            X                  Y                   Z
    ------   -----------------  -----------------  -----------------
       1       -0.000080079614    -0.000067724938     0.002891678270
       2       -0.000568633590    -0.000737963507    -0.004257188645
       3       -0.000000428396     0.000017883744    -0.000008470646
       4        0.002123766076     0.002541113643     0.001448215216
       5        0.000000432110    -0.000009440688     0.000004833243
       6        0.000005230500     0.000000975345     0.000003181305
       7        0.000006408744    -0.000005813261     0.000001032395
       8       -0.001482515375    -0.001737861191    -0.000087850875
       9       -0.000001949715     0.000001777749     0.000004199632
      10       -0.000000350034    -0.000001801304     0.000000883960
      11       -0.000001880705    -0.000001145593    -0.000000513857

  **** Optimization is complete! (in 12 steps) ****
    Final optimized geometry and variables:
    Molecular point group: c1

    Geometry (in Angstrom), charge = 0, multiplicity = 1:

    O           -0.111450971110     1.498942240352     0.287232116409
    C           -0.292064982423     0.338140611523     0.250080399530
    C           -1.644747050765    -0.315506492617     0.286043441393
    O            0.733658119923    -0.540027128203     0.253533623956
    H           -1.754916396005    -1.000201660572    -0.545711715397
    H           -2.420347664273     0.432496617459     0.255631704534
    H           -1.724172731073    -0.897135285201     1.196274270451
    C            1.251276416810    -0.919063033007    -1.001465364634
    H            0.497053364171    -1.412449469950    -1.604845042032
    H            2.055659597225    -1.610316479138    -0.810082832283
    H            1.634399994490    -0.057446912660    -1.532869306663

  Mulliken Charges: (a.u.)
   Center  Symbol    Alpha    Beta     Spin     Total
       1     O     4.16768  4.16768  0.00000 -0.33536
       2     C     2.79844  2.79844  0.00000  0.40313
       3     C     3.14068  3.14068  0.00000 -0.28136
       4     O     4.16588  4.16588  0.00000 -0.33177
       5     H     0.45101  0.45101  0.00000  0.09797
       6     H     0.43728  0.43728  0.00000  0.12545
       7     H     0.44350  0.44350  0.00000  0.11300
       8     C     3.02979  3.02979  0.00000 -0.05958
       9     H     0.46812  0.46812  0.00000  0.06377
      10     H     0.44338  0.44338  0.00000  0.11324
      11     H     0.45425  0.45425  0.00000  0.09151

   Total alpha = 20.00000, Total beta = 20.00000, Total charge = -0.00000
