                              Psi4 1.0.54 Driver

  ==> Input File <==

--------------------------------------------------------------------------
set {
	reference rhf
	basis cc-pvtz
}

set_num_threads( 4 )
memory 2 gb

molecule MOL {
0 1

O	 1.140725	 1.457963	 0.088467
C	 -0.028334	 1.329028	 0.221802
C	 -1.002251	 2.461927	 0.384524
O	 -0.637375	 0.157174	 0.243149
H	 -1.526375	 2.358252	 1.325941
H	 -0.472841	 3.400307	 0.356140
H	 -1.739010	 2.424892	 -0.407551
C	 0.162530	 -1.009518	 0.097799
C	 1.587210	 -0.664190	 0.477086
H	 0.096803	 -1.356267	 -0.924704
H	 -0.233803	 -1.785900	 0.736810
C	 2.256770	 0.342732	 -0.454344
H	 2.154716	 -1.590834	 0.479041
H	 1.598751	 -0.289614	 1.496104
C	 3.698146	 0.643205	 -0.057145
H	 2.235038	 -0.042575	 -1.470299
H	 1.683491	 1.262594	 -0.461300
H	 4.150202	 1.356548	 -0.736242
H	 4.305463	 -0.255904	 -0.069842
H	 3.749130	 1.061068	 0.942759

	symmetry c1
}
set optking {
	frozen_dihedral = ("
		2 4 8 10
	")
}

ee,wfn = optimize('scf', return_wfn=True)
oeprop( wfn, 'DIPOLE', 'QUADRUPOLE', 'MULLIKEN_CHARGES')
f=open( 'psi4out.xyz', 'w' )
f.write( "20  " )
f.write( str(ee) + "\n" )
f.write( MOL.save_string_xyz() )
f.close()
--------------------------------------------------------------------------

    Molecular point group: c1
  Charge       = 0
  Multiplicity = 1
  Basis Set: CC-PVTZ
  Basis Set:
  @DF-RHF Final Energy:  -383.59051395256199
    Total Energy =                       -383.5905139525623326
    Molecular point group: c1
  Basis Set: CC-PVTZ
  Basis Set:
  Basis Set: CC-PVTZ
  Basis Set:
  @DF-RHF Final Energy:  -383.79507283414046
    Total Energy =                       -383.7950728341411377
  Basis Set: CC-PVTZ
  Basis Set:
  Basis Set: CC-PVTZ
  Basis Set:
  @DF-RHF Final Energy:  -383.90972894535565
    Total Energy =                       -383.9097289453557096
  Basis Set: CC-PVTZ
  Basis Set:
  Basis Set: CC-PVTZ
  Basis Set:
  @DF-RHF Final Energy:  -383.96169846177997
    Total Energy =                       -383.9616984617804292
  Basis Set: CC-PVTZ
  Basis Set:
  @DF-RHF Final Energy:  -384.01657769490532
    Total Energy =                       -384.0165776949050951
  @DF-RHF Final Energy:  -384.04717606902528
    Total Energy =                       -384.0471760690249994
  @DF-RHF Final Energy:  -384.05796301243873
    Total Energy =                       -384.0579630124387904
  @DF-RHF Final Energy:  -384.06495370826281
    Total Energy =                       -384.0649537082630331
  @DF-RHF Final Energy:  -384.06856222302713
    Total Energy =                       -384.0685622230271292
  @DF-RHF Final Energy:  -384.07052484286106
    Total Energy =                       -384.0705248428604364
  @DF-RHF Final Energy:  -384.07172932026833
    Total Energy =                       -384.0717293202687870
  @DF-RHF Final Energy:  -384.07265793959431
    Total Energy =                       -384.0726579395942508
  @DF-RHF Final Energy:  -384.07317408653967
    Total Energy =                       -384.0731740865396660
  @DF-RHF Final Energy:  -384.07338423253310
    Total Energy =                       -384.0733842325329306
  @DF-RHF Final Energy:  -384.07347587932230
    Total Energy =                       -384.0734758793223591
  @DF-RHF Final Energy:  -384.07352926481911
    Total Energy =                       -384.0735292648189443
  @DF-RHF Final Energy:  -384.07356616704294
    Total Energy =                       -384.0735661670430545
  @DF-RHF Final Energy:  -384.07358606168185
    Total Energy =                       -384.0735860616821356
  @DF-RHF Final Energy:  -384.07360063581916
    Total Energy =                       -384.0736006358189343
  Basis Set: CC-PVTZ
  Basis Set:
  @DF-RHF Final Energy:  -384.07361238160939
    Total Energy =                       -384.0736123816089957
  Basis Set: CC-PVTZ
  Basis Set:
  Basis Set: CC-PVTZ
  Basis Set:
  @DF-RHF Final Energy:  -384.07362155427899
    Total Energy =                       -384.0736215542790433
  Basis Set: CC-PVTZ
  Basis Set:
  Basis Set: CC-PVTZ
  Basis Set:
  @DF-RHF Final Energy:  -384.07362401911541
    Total Energy =                       -384.0736240191154138
  Basis Set: CC-PVTZ
  Basis Set:
  Charge       = 0
  Multiplicity = 1
  Basis Set: CC-PVTZ
  Basis Set:

    Orbital Energies (a.u.)
    -----------------------

    Doubly Occupied:

       1A    -20.592085     2A    -20.530320     3A    -11.368646
       4A    -11.287252     5A    -11.229543     6A    -11.219555
       7A    -11.206489     8A    -11.201987     9A     -1.465136
      10A     -1.365576    11A     -1.079786    12A     -1.026281
      13A     -0.977545    14A     -0.895077    15A     -0.809008
      16A     -0.748911    17A     -0.693403    18A     -0.682096
      19A     -0.669910    20A     -0.625754    21A     -0.604588
      22A     -0.589935    23A     -0.565301    24A     -0.559941
      25A     -0.539696    26A     -0.525233    27A     -0.518718
      28A     -0.477481    29A     -0.467828    30A     -0.462061
      31A     -0.445008    32A     -0.433621

  @DF-RHF Final Energy:  -384.07362476789581

   => Energetics <=

    Nuclear Repulsion Energy =            394.0922695356046006
    One-Electron Energy =               -1304.6042425099290085
    Two-Electron Energy =                 526.4383482064287136
    DFT Exchange-Correlation Energy =       0.0000000000000000
    Empirical Dispersion Energy =           0.0000000000000000
    PCM Polarization Energy =               0.0000000000000000
    EFP Energy =                            0.0000000000000000
    Total Energy =                       -384.0736247678956943
    Molecular point group: c1
  Basis Set: CC-PVTZ
  Basis Set:

  -Total Gradient:
     Atom            X                  Y                   Z
    ------   -----------------  -----------------  -----------------
       1       -0.000139358899    -0.000066861743    -0.000142067932
       2        0.001637754457     0.000593864052     0.003221708261
       3        0.000022221788    -0.000001742146     0.000029954017
       4       -0.002486745678    -0.001587411458    -0.004620410735
       5        0.000001864440     0.000002402539     0.000007720961
       6       -0.000002150470     0.000003210087     0.000001467486
       7        0.000002272850    -0.000001758692    -0.000000091240
       8        0.001244577738     0.004376173082     0.000004939109
       9        0.000042280371    -0.000016414110    -0.000018193657
      10       -0.000396415305    -0.003290854813     0.001447292018
      11        0.000006530310    -0.000018511324    -0.000000472968
      12        0.000087335684    -0.000027083697    -0.000104311976
      13       -0.000004593737     0.000002539058     0.000004000924
      14       -0.000002502159     0.000005405195     0.000001743220
      15        0.000007919625    -0.000007050593     0.000004450125
      16       -0.000033137716     0.000005341739    -0.000008974695
      17        0.000006973077     0.000022762464     0.000174187181
      18        0.000000019865     0.000002360530    -0.000004509052
      19        0.000005548783    -0.000001189660    -0.000000792991
      20       -0.000000395027     0.000004819487     0.000002361945

  **** Optimization is complete! (in 23 steps) ****
    Final optimized geometry and variables:
    Molecular point group: c1

    Geometry (in Angstrom), charge = 0, multiplicity = 1:

    O           -0.962628513341     1.117987275623     0.068804461985
    C           -1.455253412768     0.182476614541     0.600440373281
    C           -2.725837784011     0.245927514165     1.404682655910
    O           -0.989548028630    -1.048808674798     0.566780794232
    H           -2.520321240999    -0.043079032182     2.427546329400
    H           -3.121412223710     1.248192717901     1.375885057769
    H           -3.447604910149    -0.453894904022     1.004657366049
    C            0.261192668388    -1.469036683785     0.012089307911
    C            1.433115550977    -0.488022082779    -0.021979164330
    H            0.052857163360    -1.877593139747    -0.968807472506
    H            0.520393154724    -2.304132849493     0.645471090950
    C            1.649128487223     0.230977774884    -1.351853972458
    H            2.320631976611    -1.077379681486     0.192644557230
    H            1.341228937300     0.226174700594     0.785255828477
    C            2.839466756570     1.182778850752    -1.308037035683
    H            1.813311209845    -0.512685953295    -2.128146296024
    H            0.757151934895     0.778537650691    -1.617211359604
    H            2.992436853795     1.659637295867    -2.269197575508
    H            3.755783788237     0.661625089007    -1.048306212706
    H            2.682766024098     1.964754457019    -0.573023583538

  Mulliken Charges: (a.u.)
   Center  Symbol    Alpha    Beta     Spin     Total
       1     O     4.19964  4.19964  0.00000 -0.39929
       2     C     2.80631  2.80631  0.00000  0.38738
       3     C     3.13537  3.13537  0.00000 -0.27073
       4     O     4.15545  4.15545  0.00000 -0.31090
       5     H     0.44703  0.44703  0.00000  0.10595
       6     H     0.43896  0.43896  0.00000  0.12208
       7     H     0.44513  0.44513  0.00000  0.10973
       8     C     2.98019  2.98019  0.00000  0.03962
       9     C     3.11244  3.11244  0.00000 -0.22488
      10     H     0.45699  0.45699  0.00000  0.08601
      11     H     0.44619  0.44619  0.00000  0.10761
      12     C     3.07939  3.07939  0.00000 -0.15879
      13     H     0.44591  0.44591  0.00000  0.10818
      14     H     0.44117  0.44117  0.00000  0.11766
      15     C     3.15269  3.15269  0.00000 -0.30538
      16     H     0.45888  0.45888  0.00000  0.08223
      17     H     0.43971  0.43971  0.00000  0.12059
      18     H     0.44858  0.44858  0.00000  0.10283
      19     H     0.45859  0.45859  0.00000  0.08282
      20     H     0.45137  0.45137  0.00000  0.09727

   Total alpha = 32.00000, Total beta = 32.00000, Total charge = -0.00000

*** Psi4 exiting successfully. Buy a developer a beer!
