  ==> Input File <==

--------------------------------------------------------------------------
set {
	reference rhf
	basis cc-pvtz
}

set_num_threads( 4 )
memory 2 gb

molecule MOL {
0 1

H	 -2.626000	 -0.646000	 1.264000
C	 -2.063000	 -0.388000	 0.389000
O	 -0.787000	 -0.131000	 0.764000
F	 -2.098000	 -1.387000	 -0.490000
F	 -2.601000	 0.667000	 -0.214000
C	 0.105000	 0.270000	 -0.214000
C	 1.374000	 -0.550000	 -0.022000
Cl	 0.455000	 2.001000	 -0.078000
H	 -0.269000	 0.089000	 -1.207000
F	 2.270000	 -0.231000	 -0.932000
F	 1.081000	 -1.827000	 -0.168000
F	 1.900000	 -0.379000	 1.166000

	symmetry c1
}
ee = optimize('scf')
oeprop('DIPOLE', 'QUADRUPOLE', 'MULLIKEN_CHARGES')
f=open( 'psi4out.xyz', 'w' )
f.write( "12  " )
f.write( str(ee) + "\n" )
f.write( MOL.save_string_xyz() )
f.close()
--------------------------------------------------------------------------

    Molecular point group: c1
  Charge       = 0
  Multiplicity = 1
  Basis Set: CC-PVTZ
  Basis Set:
  @DF-RHF Final Energy: -1146.62013309424265
    Total Energy =                      -1146.6201330942431014
    Molecular point group: c1
  Basis Set: CC-PVTZ
  Basis Set:
  Basis Set: CC-PVTZ
  Basis Set:
  @DF-RHF Final Energy: -1146.62038936692215
    Total Energy =                      -1146.6203893669219269
  Basis Set: CC-PVTZ
  Basis Set:
  Basis Set: CC-PVTZ
  Basis Set:
  @DF-RHF Final Energy: -1146.62043476886697
    Total Energy =                      -1146.6204347688662892
  Basis Set: CC-PVTZ
  Basis Set:
  Basis Set: CC-PVTZ
  Basis Set:
  @DF-RHF Final Energy: -1146.62044211572902
    Total Energy =                      -1146.6204421157285651
  Basis Set: CC-PVTZ
  Basis Set:
  Basis Set: CC-PVTZ
  Basis Set:
  @DF-RHF Final Energy: -1146.62044646523236
    Total Energy =                      -1146.6204464652332717
  Basis Set: CC-PVTZ
  Basis Set:
  Basis Set: CC-PVTZ
  Basis Set:
  @DF-RHF Final Energy: -1146.62044748756989
    Total Energy =                      -1146.6204474875708001
  Basis Set: CC-PVTZ
  Basis Set:
  Charge       = 0
  Multiplicity = 1
  Basis Set: CC-PVTZ
  Basis Set:

    Orbital Energies (a.u.)
    -----------------------

    Doubly Occupied:

       1A   -104.856417     2A    -26.354954     3A    -26.353864
       4A    -26.353177     5A    -26.343483     6A    -26.343442
       7A    -20.641461     8A    -11.520150     9A    -11.484186
      10A    -11.401089    11A    -10.581942    12A     -8.048739
      13A     -8.046754    14A     -8.046677    15A     -1.767932
      16A     -1.725074    17A     -1.662889    18A     -1.661280
      19A     -1.645087    20A     -1.487696    21A     -1.178228
      22A     -1.053216    23A     -0.991066    24A     -0.924704
      25A     -0.864977    26A     -0.858776    27A     -0.852242
      28A     -0.829782    29A     -0.818432    30A     -0.794031
      31A     -0.733704    32A     -0.733137    33A     -0.712792
      34A     -0.708525    35A     -0.684933    36A     -0.681468
      37A     -0.665466    38A     -0.664085    39A     -0.649644
      40A     -0.638975    41A     -0.599017    42A     -0.582019
      43A     -0.525528    44A     -0.478214    45A     -0.469785

  @DF-RHF Final Energy: -1146.62044792450752

   => Energetics <=

    Nuclear Repulsion Energy =            738.3250604206860999
    One-Electron Energy =               -3059.8529364461955993
    Two-Electron Energy =                1174.9074281010011873
    DFT Exchange-Correlation Energy =       0.0000000000000000
    Empirical Dispersion Energy =           0.0000000000000000
    PCM Polarization Energy =               0.0000000000000000
    EFP Energy =                            0.0000000000000000
    Total Energy =                      -1146.6204479245084258
    Molecular point group: c1
  Basis Set: CC-PVTZ
  Basis Set:

  -Total Gradient:
     Atom            X                  Y                   Z
    ------   -----------------  -----------------  -----------------
       1        0.000023013784     0.000005976254    -0.000021151580
       2       -0.000042018432     0.000004271045    -0.000069144396
       3        0.000088561556     0.000049208420     0.000003062913
       4       -0.000019615926    -0.000008510122     0.000017623296
       5       -0.000034936045    -0.000024916012     0.000024649106
       6       -0.000074851742    -0.000151862836     0.000085229348
       7       -0.000061566977     0.000103476702    -0.000058729780
       8        0.000055487922     0.000023821377    -0.000005870449
       9        0.000032403642     0.000026881494     0.000000128213
      10       -0.000006556731    -0.000042968983     0.000043588281
      11        0.000026520510     0.000020836276    -0.000005397317
      12        0.000013558462    -0.000006213458    -0.000013987634

  **** Optimization is complete! (in 7 steps) ****
    Final optimized geometry and variables:
    Molecular point group: c1

    Geometry (in Angstrom), charge = 0, multiplicity = 1:

    H           -2.644179678921    -0.653737073463     1.272254967296
    C           -2.092773860818    -0.380413980478     0.391915061078
    O           -0.808933948871    -0.154049109805     0.752536818098
    F           -2.163230222065    -1.351640495400    -0.507132947004
    F           -2.627232307245     0.691259628092    -0.169300582637
    C            0.085006050040     0.250799849006    -0.215073585971
    C            1.370439347438    -0.548013726520    -0.012992981222
    CL           0.421658020677     1.987696743313    -0.091006766818
    H           -0.272219283720     0.063283469097    -1.212507320860
    F            2.260616899175    -0.219323857238    -0.914418321193
    F            1.105891458596    -1.825383440804    -0.153189970209
    F            1.886155840406    -0.364478436045     1.171322266476

  Mulliken Charges: (a.u.)
   Center  Symbol    Alpha    Beta     Spin     Total
       1     H     0.45194  0.45194  0.00000  0.09612
       2     C     2.74011  2.74011  0.00000  0.51978
       3     O     4.15650  4.15650  0.00000 -0.31300
       4     F     4.61788  4.61788  0.00000 -0.23575
       5     F     4.61505  4.61505  0.00000 -0.23011
       6     C     2.93674  2.93674  0.00000  0.12651
       7     C     2.66944  2.66944  0.00000  0.66112
       8    CL     8.57416  8.57416  0.00000 -0.14833
       9     H     0.43052  0.43052  0.00000  0.13895
      10     F     4.60247  4.60247  0.00000 -0.20494
      11     F     4.60466  4.60466  0.00000 -0.20933
      12     F     4.60051  4.60051  0.00000 -0.20102

   Total alpha = 45.00000, Total beta = 45.00000, Total charge = -0.00000
