                              Psi4 1.0.54 Driver

  ==> Input File <==

--------------------------------------------------------------------------
set {
	reference rhf
	basis cc-pvtz
}

set_num_threads( 4 )
memory 2 gb

molecule MOL {
0 1

O	 -2.490746	 -0.507365	 1.360986
C	 -1.425117	 -0.305169	 1.845734
C	 -0.174373	 -0.949309	 1.281135
C	 -1.256342	 0.614164	 3.031951
C	 0.376695	 -0.140025	 0.100361
H	 -0.440401	 -1.944145	 0.947007
H	 0.583381	 -1.039400	 2.052211
C	 1.630207	 -0.772146	 -0.501001
H	 -0.402119	 -0.056706	 -0.647125
H	 0.608304	 0.871376	 0.425512
C	 2.907848	 -0.545876	 0.309149
H	 1.772784	 -0.391628	 -1.509394
H	 1.468529	 -1.842059	 -0.599744
C	 3.373802	 0.906639	 0.372125
H	 3.699140	 -1.146831	 -0.127906
H	 2.764321	 -0.923458	 1.318191
H	 3.519798	 1.311927	 -0.623875
H	 4.316899	 0.983758	 0.900700
H	 2.661122	 1.540651	 0.885346
H	 -0.957936	 0.029830	 3.896535
H	 -2.184432	 1.122477	 3.243696
H	 -0.469735	 1.337156	 2.847226

	symmetry c1
}
set optking {
	frozen_dihedral = ("
		3 5 8 12
	")
}

ee,wfn = optimize('scf', return_wfn=True)
oeprop( wfn, 'DIPOLE', 'QUADRUPOLE', 'MULLIKEN_CHARGES')
f=open( 'psi4out.xyz', 'w' )
f.write( "22  " )
f.write( str(ee) + "\n" )
f.write( MOL.save_string_xyz() )
f.close()
--------------------------------------------------------------------------

    Molecular point group: c1
  Charge       = 0
  Multiplicity = 1
  Basis Set: CC-PVTZ
  Basis Set:
  @DF-RHF Final Energy:  -348.22086176381305
    Total Energy =                       -348.2208617638132750
    Molecular point group: c1
  Basis Set: CC-PVTZ
  Basis Set:
  Basis Set: CC-PVTZ
  Basis Set:
  @DF-RHF Final Energy:  -348.22114093694000
    Total Energy =                       -348.2211409369401736
  Basis Set: CC-PVTZ
  Basis Set:
  Basis Set: CC-PVTZ
  Basis Set:
  @DF-RHF Final Energy:  -348.22123721274721
    Total Energy =                       -348.2212372127470417
  Basis Set: CC-PVTZ
  Basis Set:
  Basis Set: CC-PVTZ
  Basis Set:
  @DF-RHF Final Energy:  -348.22105130432016
    Total Energy =                       -348.2210513043204969
  Basis Set: CC-PVTZ
  Basis Set:
  @DF-RHF Final Energy:  -348.22131846853773
    Total Energy =                       -348.2213184685378451
  Basis Set: CC-PVTZ
  Basis Set:
  @DF-RHF Final Energy:  -348.22130248929386
    Total Energy =                       -348.2213024892937483
  Basis Set: CC-PVTZ
  Basis Set:
  Basis Set: CC-PVTZ
  Basis Set:
  @DF-RHF Final Energy:  -348.22132011912510
    Total Energy =                       -348.2213201191248118
  Basis Set: CC-PVTZ
  Basis Set:
  Basis Set: CC-PVTZ
  Basis Set:
  @DF-RHF Final Energy:  -348.22132190212614
    Total Energy =                       -348.2213219021265331
  Basis Set: CC-PVTZ
  Basis Set:
  Charge       = 0
  Multiplicity = 1
  Basis Set: CC-PVTZ
  Basis Set:

    Orbital Energies (a.u.)
    -----------------------

    Doubly Occupied:

       1A    -20.536752     2A    -11.319187     3A    -11.228208
       4A    -11.227271     5A    -11.226935     6A    -11.221482
       7A    -11.220846     8A    -11.213407     9A     -1.396858
      10A     -1.097646    11A     -1.045150    12A     -1.000527
      13A     -0.941532    14A     -0.864475    15A     -0.782340
      16A     -0.736208    17A     -0.662858    18A     -0.653569
      19A     -0.625282    20A     -0.614880    21A     -0.607147
      22A     -0.578446    23A     -0.566220    24A     -0.552115
      25A     -0.531633    26A     -0.523944    27A     -0.509549
      28A     -0.489145    29A     -0.467940    30A     -0.465125
      31A     -0.460461    32A     -0.399277

  @DF-RHF Final Energy:  -348.22132210884899

   => Energetics <=

    Nuclear Repulsion Energy =            377.8815741759040066
    One-Electron Energy =               -1220.6729598246918158
    Two-Electron Energy =                 494.5700635399384737
    DFT Exchange-Correlation Energy =       0.0000000000000000
    Empirical Dispersion Energy =           0.0000000000000000
    PCM Polarization Energy =               0.0000000000000000
    EFP Energy =                            0.0000000000000000
    Total Energy =                       -348.2213221088493356
    Molecular point group: c1
  Basis Set: CC-PVTZ
  Basis Set:

  -Total Gradient:
     Atom            X                  Y                   Z
    ------   -----------------  -----------------  -----------------
       1        0.000040655187     0.000018267477     0.000001520233
       2       -0.000034695136     0.000013351912     0.000000948423
       3       -0.000790402513    -0.000772992942    -0.000937817819
       4       -0.000030810579    -0.000035949772     0.000017651247
       5        0.000876090634     0.000719695868     0.001133081954
       6        0.000004247556     0.000005775175     0.000008818113
       7       -0.000004052694    -0.000002094914    -0.000016211694
       8        0.000981851133     0.001553128798     0.000573630348
       9        0.000005542326    -0.000002834875     0.000011012039
      10        0.000001243742     0.000001837673     0.000003295015
      11       -0.000004928653    -0.000006847883    -0.000002620558
      12       -0.001063790336    -0.001505136269    -0.000776360766
      13       -0.000001679908     0.000002899191     0.000001902642
      14        0.000001757579    -0.000005479834     0.000000350077
      15       -0.000000663207     0.000000149322     0.000000900255
      16        0.000002866490     0.000001668145     0.000005045052
      17        0.000001792225    -0.000001235658    -0.000001333367
      18       -0.000001264910     0.000001247501    -0.000001767806
      19       -0.000005872819     0.000002339694     0.000003345323
      20        0.000008086393     0.000014248651    -0.000007592557
      21        0.000013808971    -0.000002826103    -0.000004467867
      22        0.000000218529     0.000000788845    -0.000013328284

  **** Optimization is complete! (in 9 steps) ****
    Final optimized geometry and variables:
    Molecular point group: c1

    Geometry (in Angstrom), charge = 0, multiplicity = 1:

    O           -2.880520885248    -0.390980699940     0.334767381144
    C           -1.830973806788    -0.149301006340     0.835992477551
    C           -0.550294180635    -0.760940589911     0.303857928791
    C           -1.714388677477     0.788067761229     2.014535636225
    C            0.015545458717     0.076240971921    -0.852523980746
    H           -0.785643157182    -1.754673334720    -0.054426347892
    H            0.177447387417    -0.848511042367     1.102586357802
    C            1.294144784139    -0.509788425710    -1.460233672739
    H           -0.745521148634     0.128077591361    -1.622178349267
    H            0.187274294825     1.096421013544    -0.525743200543
    C            2.578372153789    -0.307192537674    -0.652368763091
    H            1.429005668445    -0.092694309607    -2.453897720805
    H            1.141725214673    -1.574815519559    -1.610807500817
    C            3.059727854802     1.139931800062    -0.579312720506
    H            3.359784877046    -0.908881944148    -1.105488867520
    H            2.450475341385    -0.696547249639     0.353294405626
    H            3.214401895712     1.548447196771    -1.572480794018
    H            4.000937823856     1.204871767299    -0.045732199791
    H            2.352537951881     1.781050875561    -0.066410849020
    H           -1.427828605144     0.219939811183     2.893792482110
    H           -2.659113562723     1.277377822895     2.195004982266
    H           -0.939393188211     1.526679203512     1.843781702347

  Mulliken Charges: (a.u.)
   Center  Symbol    Alpha    Beta     Spin     Total
       1     O     4.17710  4.17710  0.00000 -0.35420
       2     C     2.85636  2.85636  0.00000  0.28728
       3     C     3.09898  3.09898  0.00000 -0.19797
       4     C     3.15602  3.15602  0.00000 -0.31205
       5     C     3.11291  3.11291  0.00000 -0.22583
       6     H     0.43878  0.43878  0.00000  0.12245
       7     H     0.44919  0.44919  0.00000  0.10161
       8     C     3.10451  3.10451  0.00000 -0.20903
       9     H     0.43333  0.43333  0.00000  0.13335
      10     H     0.44863  0.44863  0.00000  0.10273
      11     C     3.09248  3.09248  0.00000 -0.18496
      12     H     0.44451  0.44451  0.00000  0.11097
      13     H     0.44710  0.44710  0.00000  0.10579
      14     C     3.15057  3.15057  0.00000 -0.30114
      15     H     0.44554  0.44554  0.00000  0.10892
      16     H     0.45406  0.45406  0.00000  0.09188
      17     H     0.45303  0.45303  0.00000  0.09394
      18     H     0.44571  0.44571  0.00000  0.10858
      19     H     0.45619  0.45619  0.00000  0.08762
      20     H     0.44840  0.44840  0.00000  0.10320
      21     H     0.43561  0.43561  0.00000  0.12878
      22     H     0.45097  0.45097  0.00000  0.09806

   Total alpha = 32.00000, Total beta = 32.00000, Total charge =  0.00000

*** Psi4 exiting successfully. Buy a developer a beer!
