  ==> Input File <==

--------------------------------------------------------------------------
set {
	reference rhf
	basis cc-pvtz
}

set_num_threads( 4 )
memory 2 gb

molecule MOL {
0 1

H	 2.775482	 0.757337	 -0.327934
N	 2.326826	 -0.066186	 0.000000
C	 0.934676	 -0.005420	 0.000000
H	 2.704105	 -0.877899	 -0.431051
C	 0.226436	 -0.001077	 -1.195129
C	 0.226436	 -0.001077	 1.195129
H	 0.759091	 -0.011439	 -2.128123
C	 -1.153391	 0.009141	 -1.189028
H	 0.759091	 -0.011439	 2.128123
C	 -1.153391	 0.009141	 1.189028
H	 -1.680905	 0.012964	 -2.124348
C	 -1.857876	 0.014675	 0.000000
H	 -1.680905	 0.012964	 2.124348
H	 -2.930222	 0.022904	 0.000000

	symmetry c1
}
set optking {
	frozen_dihedral = ("
		1 2 3 5
	")
}

ee = optimize('scf')
oeprop('DIPOLE', 'QUADRUPOLE', 'MULLIKEN_CHARGES')
f=open( 'psi4out.xyz', 'w' )
f.write( "14  " )
f.write( str(ee) + "\n" )
f.write( MOL.save_string_xyz() )
f.close()
--------------------------------------------------------------------------

    Molecular point group: c1
  Charge       = 0
  Multiplicity = 1
  Basis Set: CC-PVTZ
  Basis Set:
  @DF-RHF Final Energy:  -285.82509903160968
    Total Energy =                       -285.8250990316095681
    Molecular point group: c1
  Basis Set: CC-PVTZ
  Basis Set:
  Basis Set: CC-PVTZ
  Basis Set:
  @DF-RHF Final Energy:  -285.82686360788330
    Total Energy =                       -285.8268636078835243
  Basis Set: CC-PVTZ
  Basis Set:
  Basis Set: CC-PVTZ
  Basis Set:
  @DF-RHF Final Energy:  -285.82727078879651
    Total Energy =                       -285.8272707887965112
  Basis Set: CC-PVTZ
  Basis Set:
  Basis Set: CC-PVTZ
  Basis Set:
  @DF-RHF Final Energy:  -285.82729391782101
    Total Energy =                       -285.8272939178210095
  Basis Set: CC-PVTZ
  Basis Set:
  Charge       = 0
  Multiplicity = 1
  Basis Set: CC-PVTZ
  Basis Set:

    Orbital Energies (a.u.)
    -----------------------

    Doubly Occupied:

       1A    -15.542805     2A    -11.259730     3A    -11.228698
       4A    -11.227063     5A    -11.224213     6A    -11.223940
       7A    -11.219644     8A     -1.209985     9A     -1.131955
      10A     -1.016098    11A     -0.990443    12A     -0.830878
      13A     -0.810874    14A     -0.705976    15A     -0.663596
      16A     -0.648803    17A     -0.630757    18A     -0.593963
      19A     -0.585931    20A     -0.509266    21A     -0.500275
      22A     -0.496574    23A     -0.413882    24A     -0.336502
      25A     -0.328528

  @DF-RHF Final Energy:  -285.82729523459079

   => Energetics <=

    Nuclear Repulsion Energy =            272.9463908466819930
    One-Electron Energy =                -926.8866094888135194
    Two-Electron Energy =                 368.1129234075407908
    DFT Exchange-Correlation Energy =       0.0000000000000000
    Empirical Dispersion Energy =           0.0000000000000000
    PCM Polarization Energy =               0.0000000000000000
    EFP Energy =                            0.0000000000000000
    Total Energy =                       -285.8272952345907356
    Molecular point group: c1
  Basis Set: CC-PVTZ
  Basis Set:

  -Total Gradient:
     Atom            X                  Y                   Z
    ------   -----------------  -----------------  -----------------
       1        0.000026826877    -0.000383762623    -0.001128082827
       2        0.000052090796     0.000946471139     0.001414463423
       3       -0.000161762236    -0.001447448915    -0.000158001420
       4        0.000022389859    -0.000007565921    -0.000023333548
       5        0.000024722561     0.000927328337    -0.000074637711
       6        0.000081837484    -0.000021951597     0.000011930831
       7       -0.000009979460     0.000005435126     0.000017515009
       8        0.000019661183    -0.000058454568     0.000009106179
       9        0.000015512789     0.000005232416    -0.000003334170
      10       -0.000027540979    -0.000051853796    -0.000057813312
      11       -0.000027614121     0.000006040142     0.000005854944
      12       -0.000012275906     0.000082335068     0.000020853375
      13        0.000002869560     0.000006732531    -0.000012908233
      14       -0.000006738408    -0.000008537340    -0.000021612541

  **** Optimization is complete! (in 5 steps) ****
    Final optimized geometry and variables:
    Molecular point group: c1

    Geometry (in Angstrom), charge = 0, multiplicity = 1:

    H            2.745206768356     0.802089814488    -0.255979555015
    N            2.354650903718    -0.063589246833     0.052956699329
    C            0.925092444516    -0.030056660467     0.003382360886
    H            2.717599429719    -0.778810523136    -0.541106706498
    C            0.221639894796    -0.017388242355    -1.191713159756
    C            0.222762906230    -0.000266050892     1.194408233723
    H            0.759086513630    -0.035932992540    -2.121883215786
    C           -1.159309581135     0.017171829958    -1.193749291630
    H            0.771299498580    -0.014672714268     2.115701052291
    C           -1.159692465182     0.042841928666     1.193263695983
    H           -1.690564360244     0.022960077884    -2.126592573152
    C           -1.855548933885     0.050032069380     0.000230554423
    H           -1.691390978282     0.066243339004     2.125498159231
    H           -2.928263206872     0.079443598160    -0.000762334062

  Mulliken Charges: (a.u.)
   Center  Symbol    Alpha    Beta     Spin     Total
       1     H     0.42331  0.42331  0.00000  0.15338
       2     N     3.69930  3.69930  0.00000 -0.39860
       3     C     2.90748  2.90748  0.00000  0.18503
       4     H     0.42286  0.42286  0.00000  0.15428
       5     C     3.11435  3.11435  0.00000 -0.22869
       6     C     3.09576  3.09576  0.00000 -0.19152
       7     H     0.42615  0.42615  0.00000  0.14771
       8     C     3.07294  3.07294  0.00000 -0.14588
       9     H     0.41692  0.41692  0.00000  0.16616
      10     C     3.06592  3.06592  0.00000 -0.13184
      11     H     0.42358  0.42358  0.00000  0.15284
      12     C     3.08472  3.08472  0.00000 -0.16945
      13     H     0.42306  0.42306  0.00000  0.15388
      14     H     0.42366  0.42366  0.00000  0.15268

   Total alpha = 25.00000, Total beta = 25.00000, Total charge = -0.00000
