  ==> Input File <==

--------------------------------------------------------------------------
set {
	reference rhf
	basis 6-31G*
}

set_num_threads( 4 )
memory 2 gb

molecule MOL {
0 1

O	 2.863200	 1.355924	 -0.057898
C	 2.843464	 0.164689	 -0.000222
C	 1.546494	 -0.624492	 -0.000609
C	 4.122944	 -0.642775	 0.077801
C	 0.291004	 0.242674	 0.000989
H	 1.557904	 -1.283758	 -0.867573
H	 1.558622	 -1.285963	 0.864672
C	 -0.994322	 -0.586602	 0.000262
H	 0.309117	 0.896430	 -0.865270
H	 0.309661	 0.894078	 0.869017
C	 -2.259874	 0.272531	 0.000494
H	 -1.004862	 -1.240012	 -0.870939
H	 -1.005220	 -1.241071	 0.870675
C	 -3.549786	 -0.549746	 -0.000374
H	 -2.250389	 0.926680	 -0.869574
H	 -2.250838	 0.925513	 0.871430
C	 -4.809590	 0.315458	 -0.000369
H	 -3.560515	 -1.202009	 -0.871156
H	 -3.561123	 -1.202955	 0.869711
H	 -4.844746	 0.956611	 -0.876632
H	 -5.706986	 -0.295590	 -0.001609
H	 -4.845960	 0.954827	 0.877144
H	 4.189862	 -1.328926	 -0.761447
H	 4.975201	 0.022369	 0.069082
H	 4.138854	 -1.240394	 0.984572

	symmetry c1
}
set optking {
	frozen_dihedral = ("
		1 2 3 6
	")
}

ee = optimize('scf')
oeprop('DIPOLE', 'QUADRUPOLE', 'MULLIKEN_CHARGES')
f=open( 'psi4out.xyz', 'w' )
f.write( "25  " )
f.write( str(ee) + "\n" )
f.write( MOL.save_string_xyz() )
f.close()
--------------------------------------------------------------------------

    Molecular point group: c1
  Charge       = 0
  Multiplicity = 1
  Basis Set: 6-31G*
  Basis Set:
  @DF-RHF Final Energy:  -387.13652492017735
    Total Energy =                       -387.1365249201775214
    Molecular point group: c1
  Basis Set: 6-31G*
  Basis Set:
  Basis Set: 6-31G*
  Basis Set:
  @DF-RHF Final Energy:  -387.13641175129590
    Total Energy =                       -387.1364117512960092
  Basis Set: 6-31G*
  Basis Set:
  Basis Set: 6-31G*
  Basis Set:
  @DF-RHF Final Energy:  -387.13653252309626
    Total Energy =                       -387.1365325230968892
  Basis Set: 6-31G*
  Basis Set:
  Basis Set: 6-31G*
  Basis Set:
  @DF-RHF Final Energy:  -387.13653492223835
    Total Energy =                       -387.1365349222381838
  Basis Set: 6-31G*
  Basis Set:
  Basis Set: 6-31G*
  Basis Set:
  @DF-RHF Final Energy:  -387.13653606569102
    Total Energy =                       -387.1365360656907342
  Basis Set: 6-31G*
  Basis Set:
  Basis Set: 6-31G*
  Basis Set:
  @DF-RHF Final Energy:  -387.13653795389519
    Total Energy =                       -387.1365379538949583
  Basis Set: 6-31G*
  Basis Set:
  Charge       = 0
  Multiplicity = 1
  Basis Set: 6-31G*
  Basis Set:

    Orbital Energies (a.u.)
    -----------------------

    Doubly Occupied:

       1A    -20.550431     2A    -11.326322     3A    -11.231908
       4A    -11.228369     5A    -11.217134     6A    -11.216540
       7A    -11.215391     8A    -11.213539     9A    -11.208328
      10A     -1.395761    11A     -1.093642    12A     -1.056348
      13A     -1.014533    14A     -0.969269    15A     -0.890730
      16A     -0.814103    17A     -0.790831    18A     -0.729920
      19A     -0.661596    20A     -0.651894    21A     -0.631902
      22A     -0.624093    23A     -0.595972    24A     -0.584296
      25A     -0.566371    26A     -0.560001    27A     -0.540252
      28A     -0.526200    29A     -0.512741    30A     -0.489799
      31A     -0.487821    32A     -0.473221    33A     -0.463771
      34A     -0.462352    35A     -0.450800    36A     -0.399387

  @DF-RHF Final Energy:  -387.13653833495346

   => Energetics <=

    Nuclear Repulsion Energy =            438.3330816476916425
    One-Electron Energy =               -1393.2481043912468976
    Two-Electron Energy =                 567.7784844086023668
    DFT Exchange-Correlation Energy =       0.0000000000000000
    Empirical Dispersion Energy =           0.0000000000000000
    PCM Polarization Energy =               0.0000000000000000
    EFP Energy =                            0.0000000000000000
    Total Energy =                       -387.1365383349528884
    Molecular point group: c1
  Basis Set: 6-31G*
  Basis Set:

  -Total Gradient:
     Atom            X                  Y                   Z
    ------   -----------------  -----------------  -----------------
       1       -0.000005098994    -0.000005297930    -0.000037967634
       2        0.000008392976     0.000025865512     0.000019226382
       3        0.000030352177    -0.000050490354     0.000008902599
       4       -0.000000236558     0.000005977646    -0.000003584645
       5        0.000000537529    -0.000002202680     0.000019936189
       6       -0.000024556574     0.000040627717    -0.000027493256
       7       -0.000006142710    -0.000003484748     0.000006777625
       8        0.000000922204    -0.000000278380     0.000011467243
       9       -0.000008541843     0.000002695681     0.000007392550
      10        0.000011297961    -0.000007576374     0.000006475286
      11       -0.000001991714    -0.000000024355    -0.000041895781
      12        0.000011334697     0.000003662386     0.000006142248
      13       -0.000009120771    -0.000001079640     0.000005418515
      14       -0.000000484498     0.000000570472     0.000012546230
      15       -0.000001252757     0.000003729223    -0.000009329522
      16        0.000001480740    -0.000003800744    -0.000009198569
      17       -0.000000559029    -0.000000298033     0.000003926303
      18       -0.000003923471     0.000007430956     0.000000434532
      19        0.000003682965    -0.000007461310     0.000000452200
      20        0.000003677548     0.000000682159     0.000002850020
      21       -0.000000089212     0.000000107807    -0.000001629964
      22       -0.000003551988    -0.000000817436     0.000002913273
      23       -0.000003590330    -0.000000450800     0.000008685641
      24       -0.000000719499    -0.000001366068     0.000000858714
      25       -0.000001818854    -0.000006720705     0.000006693820

  **** Optimization is complete! (in 7 steps) ****
    Final optimized geometry and variables:
    Molecular point group: c1

    Geometry (in Angstrom), charge = 0, multiplicity = 1:

    O            2.862951752381     1.356477610366    -0.047972819193
    C            2.843477240626     0.164820164238     0.000050533775
    C            1.546621811714    -0.624507776623    -0.001934771425
    C            4.123140410370    -0.643143662244     0.068396484480
    C            0.291052106447     0.242548036035     0.004415724398
    H            1.558686484918    -1.275284542471    -0.875518140465
    H            1.558176320337    -1.294089046437     0.856875370608
    C           -0.994243737393    -0.586732964338    -0.004819723210
    H            0.310924223656     0.903075632676    -0.856366160180
    H            0.307900793493     0.887081400831     0.877867996635
    C           -2.259847371148     0.272348470196    -0.003184344218
    H           -1.002110184507    -1.234781788363    -0.880046623204
    H           -1.007732014912    -1.246520164172     0.861533801336
    C           -3.549724947787    -0.549956193230    -0.010426365327
    H           -2.248595225748     0.930568830735    -0.870135613161
    H           -2.252622765365     0.921230668159     0.870835623998
    C           -4.809560465792     0.315191297490    -0.006172327919
    H           -3.559602591741    -1.196725174937    -0.885309718204
    H           -3.561867834047    -1.208634464083     0.855514813287
    H           -4.843722952965     0.962086580473    -0.878232523168
    H           -5.706914481993    -0.295868953689    -0.012470568361
    H           -4.846976823595     0.948768307912     0.875488529963
    H            4.157285031147    -1.377564443036    -0.730681864762
    H            4.976109425799     0.016803743899    -0.007446961055
    H            4.171233985222    -1.186557787084     1.007869144548

  Mulliken Charges: (a.u.)
   Center  Symbol    Alpha    Beta     Spin     Total
       1     O     4.26121  4.26121  0.00000 -0.52243
       2     C     2.73561  2.73561  0.00000  0.52878
       3     C     3.21095  3.21095  0.00000 -0.42191
       4     C     3.28665  3.28665  0.00000 -0.57329
       5     C     3.14809  3.14809  0.00000 -0.29618
       6     H     0.40935  0.40935  0.00000  0.18130
       7     H     0.41058  0.41058  0.00000  0.17885
       8     C     3.15390  3.15390  0.00000 -0.30781
       9     H     0.41127  0.41127  0.00000  0.17745
      10     H     0.41301  0.41301  0.00000  0.17399
      11     C     3.15073  3.15073  0.00000 -0.30147
      12     H     0.42481  0.42481  0.00000  0.15037
      13     H     0.42492  0.42492  0.00000  0.15015
      14     C     3.15151  3.15151  0.00000 -0.30302
      15     H     0.42235  0.42235  0.00000  0.15529
      16     H     0.42252  0.42252  0.00000  0.15495
      17     C     3.23933  3.23933  0.00000 -0.47867
      18     H     0.42351  0.42351  0.00000  0.15298
      19     H     0.42356  0.42356  0.00000  0.15288
      20     H     0.42134  0.42134  0.00000  0.15731
      21     H     0.41953  0.41953  0.00000  0.16094
      22     H     0.42139  0.42139  0.00000  0.15722
      23     H     0.40951  0.40951  0.00000  0.18098
      24     H     0.39649  0.39649  0.00000  0.20703
      25     H     0.40786  0.40786  0.00000  0.18428

   Total alpha = 36.00000, Total beta = 36.00000, Total charge = -0.00000
