  ==> Input File <==

--------------------------------------------------------------------------
set {
	reference rhf
	basis 6-31G*
}

set_num_threads( 4 )
memory 2 gb

molecule MOL {
0 1

H	 4.660116	 -2.127027	 0.293068
C	 4.116185	 -1.740836	 -0.563389
C	 2.658725	 -1.450867	 -0.207152
H	 4.621953	 -0.839785	 -0.897527
H	 4.188319	 -2.476195	 -1.360160
C	 1.860427	 -0.910716	 -1.395753
H	 2.624618	 -0.734348	 0.607120
H	 2.189149	 -2.363490	 0.156591
C	 0.392794	 -0.628033	 -1.074177
H	 2.322711	 -0.000397	 -1.760798
H	 1.899323	 -1.633414	 -2.207686
C	 0.169600	 0.576866	 -0.172154
H	 -0.153815	 -0.431096	 -1.995157
H	 -0.082911	 -1.500054	 -0.630939
C	 -1.181045	 0.701995	 0.511084
O	 1.013909	 1.407191	 -0.016888
C	 -2.285934	 -0.139295	 -0.145128
H	 -1.449051	 1.751551	 0.493206
H	 -1.071135	 0.403303	 1.551943
C	 -3.651768	 0.085446	 0.506485
H	 -2.346596	 0.110469	 -1.202272
H	 -2.034737	 -1.195320	 -0.088721
C	 -4.759797	 -0.746382	 -0.137905
H	 -3.908762	 1.140117	 0.445781
H	 -3.588286	 -0.154158	 1.565709
H	 -4.868882	 -0.505166	 -1.191300
H	 -4.548009	 -1.809175	 -0.062213
H	 -5.715422	 -0.564821	 0.343442

	symmetry c1
}
set optking {
	frozen_dihedral = ("
		16 12 15 17
	")
}

ee = optimize('scf')
oeprop('DIPOLE', 'QUADRUPOLE', 'MULLIKEN_CHARGES')
f=open( 'psi4out.xyz', 'w' )
f.write( "28  " )
f.write( str(ee) + "\n" )
f.write( MOL.save_string_xyz() )
f.close()
--------------------------------------------------------------------------

    Molecular point group: c1
  Charge       = 0
  Multiplicity = 1
  Basis Set: 6-31G*
  Basis Set:
  @DF-RHF Final Energy:  -426.16492837143585
    Total Energy =                       -426.1649283714355079
    Molecular point group: c1
  Basis Set: 6-31G*
  Basis Set:
  Basis Set: 6-31G*
  Basis Set:
  @DF-RHF Final Energy:  -426.16590102856719
    Total Energy =                       -426.1659010285673048
  Basis Set: 6-31G*
  Basis Set:
  Basis Set: 6-31G*
  Basis Set:
  @DF-RHF Final Energy:  -426.16716085926350
    Total Energy =                       -426.1671608592637313
  Basis Set: 6-31G*
  Basis Set:
  Basis Set: 6-31G*
  Basis Set:
  @DF-RHF Final Energy:  -426.16736272800233
    Total Energy =                       -426.1673627280026722
  Basis Set: 6-31G*
  Basis Set:
  @DF-RHF Final Energy:  -426.16735410516651
    Total Energy =                       -426.1673541051666234
  @DF-RHF Final Energy:  -426.16744151996386
    Total Energy =                       -426.1674415199638588
  Basis Set: 6-31G*
  Basis Set:
  @DF-RHF Final Energy:  -426.16743827661014
    Total Energy =                       -426.1674382766100280
  Basis Set: 6-31G*
  Basis Set:
  Basis Set: 6-31G*
  Basis Set:
  @DF-RHF Final Energy:  -426.16744098097138
    Total Energy =                       -426.1674409809709232
  Basis Set: 6-31G*
  Basis Set:
  Basis Set: 6-31G*
  Basis Set:
  @DF-RHF Final Energy:  -426.16745157472610
    Total Energy =                       -426.1674515747261012
  Basis Set: 6-31G*
  Basis Set:
  Charge       = 0
  Multiplicity = 1
  Basis Set: 6-31G*
  Basis Set:

    Orbital Energies (a.u.)
    -----------------------

    Doubly Occupied:

       1A    -20.545907     2A    -11.323855     3A    -11.230713
       4A    -11.230559     5A    -11.230034     6A    -11.226298
       7A    -11.216796     8A    -11.215790     9A    -11.210373
      10A    -11.204559    11A     -1.392735    12A     -1.095288
      13A     -1.076512    14A     -1.021644    15A     -0.990549
      16A     -0.906434    17A     -0.875602    18A     -0.809791
      19A     -0.799546    20A     -0.721072    21A     -0.664437
      22A     -0.659642    23A     -0.628918    24A     -0.617324
      25A     -0.607909    26A     -0.585638    27A     -0.582634
      28A     -0.571934    29A     -0.540469    30A     -0.532501
      31A     -0.519129    32A     -0.514604    33A     -0.490673
      34A     -0.487396    35A     -0.481283    36A     -0.474916
      37A     -0.468042    38A     -0.464543    39A     -0.454638
      40A     -0.391989

  @DF-RHF Final Energy:  -426.16745126845137

   => Energetics <=

    Nuclear Repulsion Energy =            531.5166712204101032
    One-Electron Energy =               -1631.2428895856382951
    Two-Electron Energy =                 673.5587670967768190
    DFT Exchange-Correlation Energy =       0.0000000000000000
    Empirical Dispersion Energy =           0.0000000000000000
    PCM Polarization Energy =               0.0000000000000000
    EFP Energy =                            0.0000000000000000
    Total Energy =                       -426.1674512684514866
    Molecular point group: c1
  Basis Set: 6-31G*
  Basis Set:

  -Total Gradient:
     Atom            X                  Y                   Z
    ------   -----------------  -----------------  -----------------
       1       -0.000001263807     0.000005299508     0.000001248692
       2       -0.000000015041     0.000007695365    -0.000002519477
       3        0.000002992938    -0.000021886149    -0.000002803250
       4        0.000004460907     0.000000430876    -0.000005548499
       5        0.000001447245    -0.000000911664     0.000002528265
       6        0.000004281606     0.000004625415    -0.000005749570
       7       -0.000015221175    -0.000000432932     0.000003813430
       8        0.000005869921    -0.000004384486    -0.000000596491
       9       -0.000008761700     0.000002666371    -0.000012626017
      10        0.000005223326    -0.000003400537    -0.000009236178
      11       -0.000007929037    -0.000006302315     0.000011618573
      12       -0.000588739210     0.000801071351    -0.001613482828
      13        0.000017412770    -0.000001154980    -0.000003094128
      14       -0.000009628545    -0.000001896925    -0.000008765332
      15       -0.000141000215     0.001309392622    -0.000715448882
      16        0.000500374856    -0.000952572625     0.001489750774
      17        0.000219195922    -0.001120858041     0.000845171359
      18        0.000001498037     0.000007297045     0.000008586671
      19       -0.000000580217     0.000007869147    -0.000005152101
      20        0.000003852409    -0.000025303609     0.000019948867
      21       -0.000023213463    -0.000016092145     0.000001029605
      22        0.000017684496    -0.000006156168     0.000011672707
      23        0.000003077389     0.000023517446    -0.000019509144
      24        0.000009920429    -0.000002143791     0.000011946735
      25       -0.000004827577    -0.000014100563     0.000001217814
      26       -0.000000533671    -0.000006769913    -0.000009106736
      27        0.000001349121     0.000004414294     0.000009412010
      28        0.000003072287     0.000010087404    -0.000004306867

  **** Optimization is complete! (in 10 steps) ****
    Final optimized geometry and variables:
    Molecular point group: c1

    Geometry (in Angstrom), charge = 0, multiplicity = 1:

    H            5.049779716352    -1.617232552658     0.451292336331
    C            4.436805948716    -1.280812010937    -0.379165034791
    C            2.977762212261    -1.114449239564     0.043522220694
    H            4.848820936855    -0.340884097392    -0.734423983824
    H            4.535378180864    -2.009411840917    -1.179444984328
    C            2.083454703587    -0.650515818585    -1.108518478068
    H            2.918000392238    -0.400506463544     0.857432546636
    H            2.604849457083    -2.063094104339     0.426870559535
    C            0.613497156865    -0.484988136935    -0.722868607103
    H            2.455421676341     0.289321671737    -1.501715681950
    H            2.142968977900    -1.376531542194    -1.916349930848
    C            0.321430689173     0.736292501019     0.132009102851
    H           -0.003026428960    -0.404828060229    -1.616362332932
    H            0.251973799126    -1.368731635555    -0.201075439436
    C           -1.071626509808     0.911214920040     0.726659933829
    O            1.164978149286     1.545144487195     0.379042787762
    C           -2.238155243180     0.175264178021     0.062733456974
    H           -1.259099383328     1.978874287627     0.760172938780
    H           -0.987569361921     0.589299906028     1.764121514082
    C           -3.570625945351     0.467800746127     0.756550521550
    H           -2.313008854341     0.466067984968    -0.983106477978
    H           -2.063456071131    -0.896942054350     0.072658753969
    C           -4.749939619671    -0.252466228971     0.104559427220
    H           -3.752504305102     1.539904217099     0.748915113522
    H           -3.502613626269     0.177077408849     1.802588507007
    H           -4.864028160349     0.042548282174    -0.934618607686
    H           -4.614374821027    -1.330006702066     0.129173285245
    H           -5.679364486461    -0.024652935516     0.616571262045

  Mulliken Charges: (a.u.)
   Center  Symbol    Alpha    Beta     Spin     Total
       1     H     0.41953  0.41953  0.00000  0.16095
       2     C     3.24028  3.24028  0.00000 -0.48057
       3     C     3.15611  3.15611  0.00000 -0.31222
       4     H     0.41852  0.41852  0.00000  0.16297
       5     H     0.42410  0.42410  0.00000  0.15179
       6     C     3.14794  3.14794  0.00000 -0.29587
       7     H     0.40750  0.40750  0.00000  0.18499
       8     H     0.42852  0.42852  0.00000  0.14296
       9     C     3.21512  3.21512  0.00000 -0.43024
      10     H     0.40826  0.40826  0.00000  0.18348
      11     H     0.42226  0.42226  0.00000  0.15547
      12     C     2.73234  2.73234  0.00000  0.53531
      13     H     0.40437  0.40437  0.00000  0.19125
      14     H     0.40968  0.40968  0.00000  0.18063
      15     C     3.20292  3.20292  0.00000 -0.40583
      16     O     4.26888  4.26888  0.00000 -0.53775
      17     C     3.16097  3.16097  0.00000 -0.32193
      18     H     0.39920  0.39920  0.00000  0.20159
      19     H     0.40406  0.40406  0.00000  0.19189
      20     C     3.15232  3.15232  0.00000 -0.30463
      21     H     0.41926  0.41926  0.00000  0.16148
      22     H     0.41924  0.41924  0.00000  0.16152
      23     C     3.23991  3.23991  0.00000 -0.47981
      24     H     0.41950  0.41950  0.00000  0.16101
      25     H     0.42092  0.42092  0.00000  0.15815
      26     H     0.42050  0.42050  0.00000  0.15900
      27     H     0.42105  0.42105  0.00000  0.15790
      28     H     0.41674  0.41674  0.00000  0.16651

   Total alpha = 40.00000, Total beta = 40.00000, Total charge =  0.00000
