  ==> Input File <==

--------------------------------------------------------------------------
set {
	reference rhf
	basis 6-31G*
}

set_num_threads( 1 )
memory 2 gb

molecule MOL {
0 1

O	 1.255552	 1.239433	 -0.382453
C	 1.122059	 0.121804	 -0.000188
C	 -0.170150	 -0.657997	 -0.000612
O	 2.120323	 -0.602527	 0.489494
C	 -1.412532	 0.227344	 -0.000452
H	 -0.153702	 -1.313099	 -0.867402
H	 -0.153924	 -1.313811	 0.865644
C	 -2.706999	 -0.587347	 -0.000541
H	 -1.388000	 0.879466	 -0.868000
H	 -1.387972	 0.879138	 0.867341
C	 -3.956778	 0.291888	 0.000910
H	 -2.726114	 -1.239230	 -0.871609
H	 -2.725217	 -1.240844	 0.869333
H	 -3.985213	 0.933254	 -0.875158
H	 -4.860123	 -0.309979	 0.000519
H	 -3.984618	 0.931166	 0.878514
C	 3.393995	 0.013678	 0.546006
H	 3.724101	 0.295379	 -0.443520
H	 4.060046	 -0.723450	 0.966681
H	 3.363438	 0.892530	 1.173854

	symmetry c1
}
set optking {
	frozen_dihedral = ("
		9 5 8 12,
		9 5 3 6,
		1 2 4 17
	")
}

ee = energy('scf')
oeprop('DIPOLE', 'QUADRUPOLE', 'MULLIKEN_CHARGES')
f=open( 'psi4out.xyz', 'w' )
f.write( "20  " )
f.write( str(ee) + "\n" )
f.write( MOL.save_string_xyz() )
f.close()
--------------------------------------------------------------------------

    Molecular point group: c1

    Geometry (in Angstrom), charge = 0, multiplicity = 1:

       Center              X                  Y                   Z               Mass
    ------------   -----------------  -----------------  -----------------  -----------------
           O          1.264728792447     1.224273133301    -0.468279476148    15.994914619560
           C          1.131235792447     0.106644133301    -0.086014476148    12.000000000000
           C         -0.160973207553    -0.673156866699    -0.086438476148    12.000000000000
           O          2.129499792447    -0.617686866699     0.403667523852    15.994914619560
           C         -1.403355207553     0.212184133301    -0.086278476148    12.000000000000
           H         -0.144525207553    -1.328258866699    -0.953228476148     1.007825032070
           H         -0.144747207553    -1.328970866699     0.779817523852     1.007825032070
           C         -2.697822207553    -0.602506866699    -0.086367476148    12.000000000000
           H         -1.378823207553     0.864306133301    -0.953826476148     1.007825032070
           H         -1.378795207553     0.863978133301     0.781514523852     1.007825032070
           C         -3.947601207553     0.276728133301    -0.084916476148    12.000000000000
           H         -2.716937207553    -1.254389866699    -0.957435476148     1.007825032070
           H         -2.716040207553    -1.256003866699     0.783506523852     1.007825032070
           H         -3.976036207553     0.918094133301    -0.960984476148     1.007825032070
           H         -4.850946207553    -0.325138866699    -0.085307476148     1.007825032070
           H         -3.975441207553     0.916006133301     0.792687523852     1.007825032070
           C          3.403171792447    -0.001481866699     0.460179523852    12.000000000000
           H          3.733277792447     0.280219133301    -0.529346476148     1.007825032070
           H          4.069222792447    -0.738609866699     0.880854523852     1.007825032070
           H          3.372614792447     0.877370133301     1.088027523852     1.007825032070

  Charge       = 0
  Multiplicity = 1
  Basis Set: 6-31G*
  Basis Set:

    Orbital Energies (a.u.)
    -----------------------

    Doubly Occupied:

       1A    -20.604366     2A    -20.544958     3A    -11.372323
       4A    -11.280860     5A    -11.235190     6A    -11.221129
       7A    -11.220532     8A    -11.211134     9A     -1.469527
      10A     -1.362736    11A     -1.089287    12A     -1.024589
      13A     -0.969233    14A     -0.886323    15A     -0.804558
      16A     -0.768586    17A     -0.696261    18A     -0.683249
      19A     -0.672026    20A     -0.646231    21A     -0.597905
      22A     -0.592161    23A     -0.577883    24A     -0.543198
      25A     -0.535801    26A     -0.523215    27A     -0.500569
      28A     -0.478747    29A     -0.475199    30A     -0.470168
      31A     -0.456021    32A     -0.435815

  @DF-RHF Final Energy:  -383.94105566008841

   => Energetics <=

    Nuclear Repulsion Energy =            381.1014148070039482
    One-Electron Energy =               -1278.1856198271602807
    Two-Electron Energy =                 513.1431493600681506
    DFT Exchange-Correlation Energy =       0.0000000000000000
    Empirical Dispersion Energy =           0.0000000000000000
    PCM Polarization Energy =               0.0000000000000000
    EFP Energy =                            0.0000000000000000
    Total Energy =                       -383.9410556600881819

  Mulliken Charges: (a.u.)
   Center  Symbol    Alpha    Beta     Spin     Total
       1     O     4.28602  4.28602  0.00000 -0.57204
       2     C     2.60440  2.60440  0.00000  0.79121
       3     C     3.20943  3.20943  0.00000 -0.41886
       4     O     4.30666  4.30666  0.00000 -0.61332
       5     C     3.15328  3.15328  0.00000 -0.30655
       6     H     0.39970  0.39970  0.00000  0.20060
       7     H     0.40112  0.40112  0.00000  0.19776
       8     C     3.15406  3.15406  0.00000 -0.30813
       9     H     0.40744  0.40744  0.00000  0.18512
      10     H     0.41575  0.41575  0.00000  0.16849
      11     C     3.23948  3.23948  0.00000 -0.47896
      12     H     0.42240  0.42240  0.00000  0.15520
      13     H     0.42268  0.42268  0.00000  0.15465
      14     H     0.41954  0.41954  0.00000  0.16092
      15     H     0.41857  0.41857  0.00000  0.16287
      16     H     0.42033  0.42033  0.00000  0.15935
      17     C     3.09287  3.09287  0.00000 -0.18573
      18     H     0.40906  0.40906  0.00000  0.18188
      19     H     0.40839  0.40839  0.00000  0.18322
      20     H     0.40884  0.40884  0.00000  0.18232

   Total alpha = 32.00000, Total beta = 32.00000, Total charge = -0.00000
