  ==> Input File <==

--------------------------------------------------------------------------
set {
	reference rhf
	basis 6-31G*
}

set_num_threads( 4 )
memory 2 gb

molecule MOL {
0 1

H	 -2.646374	 -0.642757	 1.268656
C	 -2.083525	 -0.384536	 0.393091
O	 -0.807605	 -0.127164	 0.768327
F	 -2.118945	 -1.383102	 -0.486752
F	 -2.621877	 0.670592	 -0.209486
C	 0.084052	 0.273579	 -0.209957
C	 -0.231388	 -0.539104	 -1.459038
Cl	 1.755285	 -0.001945	 0.308003
H	 -0.014927	 1.317419	 -0.451566
F	 0.574185	 -0.200490	 -2.443178
F	 -1.467792	 -0.278124	 -1.834046
F	 -0.124272	 -1.828664	 -1.250388

	symmetry c1
}
set optking {
	frozen_dihedral = ("
		9 6 3 2
	")
}

ee = optimize('scf')
oeprop('DIPOLE', 'QUADRUPOLE', 'MULLIKEN_CHARGES')
f=open( 'psi4out.xyz', 'w' )
f.write( "12  " )
f.write( str(ee) + "\n" )
f.write( MOL.save_string_xyz() )
f.close()
--------------------------------------------------------------------------

    Molecular point group: c1
  Charge       = 0
  Multiplicity = 1
  Basis Set: 6-31G*
  Basis Set:
  @DF-RHF Final Energy: -1146.23261991396112
    Total Energy =                      -1146.2326199139611163
    Molecular point group: c1
  Basis Set: 6-31G*
  Basis Set:
  Basis Set: 6-31G*
  Basis Set:
  @DF-RHF Final Energy: -1146.26653886055465
    Total Energy =                      -1146.2665388605546468
  Basis Set: 6-31G*
  Basis Set:
  Basis Set: 6-31G*
  Basis Set:
  @DF-RHF Final Energy: -1146.28458169502710
    Total Energy =                      -1146.2845816950266453
  Basis Set: 6-31G*
  Basis Set:
  Basis Set: 6-31G*
  Basis Set:
  @DF-RHF Final Energy: -1146.29537009431715
    Total Energy =                      -1146.2953700943166950
  Basis Set: 6-31G*
  Basis Set:
  @DF-RHF Final Energy: -1146.30002773785350
    Total Energy =                      -1146.3000277378537248
  @DF-RHF Final Energy: -1146.30222291031487
    Total Energy =                      -1146.3022229103150949
  @DF-RHF Final Energy: -1146.30304307893130
    Total Energy =                      -1146.3030430789319780
  @DF-RHF Final Energy: -1146.30322590188189
    Total Energy =                      -1146.3032259018798413
  @DF-RHF Final Energy: -1146.30324904018516
    Total Energy =                      -1146.3032490401847099
  @DF-RHF Final Energy: -1146.30325275085625
    Total Energy =                      -1146.3032527508562453
  @DF-RHF Final Energy: -1146.30325510397961
    Total Energy =                      -1146.3032551039798363
  @DF-RHF Final Energy: -1146.28583051853275
    Total Energy =                      -1146.2858305185334302
  @DF-RHF Final Energy: -1146.29114413882962
    Total Energy =                      -1146.2911441388296225
  @DF-RHF Final Energy: -1146.24956727020617
    Total Energy =                      -1146.2495672702057163
  @DF-RHF Final Energy: -1146.29236515432012
    Total Energy =                      -1146.2923651543210326
  @DF-RHF Final Energy: -1146.29747686810720
    Total Energy =                      -1146.2974768681087880
  @DF-RHF Final Energy: -1146.29921572113926
    Total Energy =                      -1146.2992157211397171
  @DF-RHF Final Energy: -1146.29995079224432
    Total Energy =                      -1146.2999507922445446
  @DF-RHF Final Energy: -1146.30036331271367
    Total Energy =                      -1146.3003633127134435
  @DF-RHF Final Energy: -1146.30077597301374
    Total Energy =                      -1146.3007759730135149
  @DF-RHF Final Energy: -1146.30126128694815
    Total Energy =                      -1146.3012612869479199
  @DF-RHF Final Energy: -1146.30198236910678
    Total Energy =                      -1146.3019823691065540
  @DF-RHF Final Energy: -1146.30247633687486
    Total Energy =                      -1146.3024763368753156
  @DF-RHF Final Energy: -1146.30271149072587
    Total Energy =                      -1146.3027114907256419
  @DF-RHF Final Energy: -1146.30292217435317
    Total Energy =                      -1146.3029221743545349
  Basis Set: 6-31G*
  Basis Set:
  @DF-RHF Final Energy: -1146.30314510937956
    Total Energy =                      -1146.3031451093802389
  Basis Set: 6-31G*
  Basis Set:
  Basis Set: 6-31G*
  Basis Set:
  @DF-RHF Final Energy: -1146.30325221873250
    Total Energy =                      -1146.3032522187322684
  Basis Set: 6-31G*
  Basis Set:
  Basis Set: 6-31G*
  Basis Set:
  @DF-RHF Final Energy: -1146.30326039428837
    Total Energy =                      -1146.3032603942879177
  Basis Set: 6-31G*
  Basis Set:
  Charge       = 0
  Multiplicity = 1
  Basis Set: 6-31G*
  Basis Set:

    Orbital Energies (a.u.)
    -----------------------

    Doubly Occupied:

       1A   -104.845112     2A    -26.360788     3A    -26.360294
       4A    -26.359031     5A    -26.342736     6A    -26.340481
       7A    -20.644202     8A    -11.530756     9A    -11.487291
      10A    -11.404168    11A    -10.579807    12A     -8.049194
      13A     -8.045576    14A     -8.045486    15A     -1.763384
      16A     -1.712404    17A     -1.659277    18A     -1.657588
      19A     -1.635232    20A     -1.476857    21A     -1.182309
      22A     -1.042370    23A     -0.994654    24A     -0.918301
      25A     -0.856081    26A     -0.852197    27A     -0.848414
      28A     -0.827055    29A     -0.813098    30A     -0.774169
      31A     -0.729750    32A     -0.728391    33A     -0.706623
      34A     -0.690534    35A     -0.678159    36A     -0.673916
      37A     -0.660320    38A     -0.656846    39A     -0.648798
      40A     -0.642035    41A     -0.587227    42A     -0.546167
      43A     -0.535262    44A     -0.478621    45A     -0.468765

  @DF-RHF Final Energy: -1146.30326105202630

   => Energetics <=

    Nuclear Repulsion Energy =            753.4680946036692148
    One-Electron Energy =               -3089.8632662556069590
    Two-Electron Energy =                1190.0919105999118983
    DFT Exchange-Correlation Energy =       0.0000000000000000
    Empirical Dispersion Energy =           0.0000000000000000
    PCM Polarization Energy =               0.0000000000000000
    EFP Energy =                            0.0000000000000000
    Total Energy =                      -1146.3032610520258459
    Molecular point group: c1
  Basis Set: 6-31G*
  Basis Set:

  -Total Gradient:
     Atom            X                  Y                   Z
    ------   -----------------  -----------------  -----------------
       1       -0.000002990594     0.000026093059    -0.000000740747
       2        0.000884223041    -0.004741306424    -0.001007646941
       3       -0.000301610980     0.007434663108     0.002561003932
       4        0.000022420847     0.000034204952     0.000028266150
       5       -0.000028475482     0.000032372647    -0.000013678709
       6       -0.004366916113    -0.003687180213    -0.005211598098
       7       -0.000041781848    -0.000073415250     0.000047173275
       8       -0.000016603245     0.000010577585    -0.000004086567
       9        0.003832139054     0.000925124383     0.003665191407
      10        0.000017589204     0.000004793340     0.000001157543
      11        0.000003559825     0.000036787241    -0.000065729398
      12       -0.000001553654    -0.000002714428     0.000000688134

  **** Optimization is complete! (in 29 steps) ****
    Final optimized geometry and variables:
    Molecular point group: c1

    Geometry (in Angstrom), charge = 0, multiplicity = 1:

    H           -2.108967999561    -0.105749382862     2.141400215747
    C           -1.679651533657    -0.007480717806     1.162992452412
    O           -0.351910494563     0.211164529451     1.329590631646
    F           -1.913927663875    -1.109402641233     0.463885076796
    F           -2.252047018473     1.005395107109     0.516739838213
    C            0.517756547155     0.597390041335     0.314520835906
    C            0.394868391232    -0.150226485478    -1.017101477101
    CL           2.144777920323     0.340294375712     0.969437760505
    H            0.437637935762     1.655706806527     0.131450801044
    F            1.344852121725     0.265957536475    -1.828987894317
    F           -0.758434004345     0.121563938205    -1.592265441181
    F            0.501249577313    -1.447587689183    -0.874512962949

  Mulliken Charges: (a.u.)
   Center  Symbol    Alpha    Beta     Spin     Total
       1     H     0.40281  0.40281  0.00000  0.19438
       2     C     2.56119  2.56119  0.00000  0.87761
       3     O     4.31191  4.31191  0.00000 -0.62382
       4     F     4.68267  4.68267  0.00000 -0.36534
       5     F     4.68795  4.68795  0.00000 -0.37590
       6     C     3.02023  3.02023  0.00000 -0.04047
       7     C     2.45117  2.45117  0.00000  1.09766
       8    CL     8.49680  8.49680  0.00000  0.00640
       9     H     0.37088  0.37088  0.00000  0.25823
      10     F     4.67304  4.67304  0.00000 -0.34608
      11     F     4.67453  4.67453  0.00000 -0.34906
      12     F     4.66681  4.66681  0.00000 -0.33362

   Total alpha = 45.00000, Total beta = 45.00000, Total charge =  0.00000
