                              Psi4 1.0.54 Driver

  ==> Input File <==

--------------------------------------------------------------------------
set {
	reference rhf
	basis cc-pvtz
}

set_num_threads( 4 )
memory 2 gb

molecule MOL {
0 1

O	 3.219313	 0.959291	 -0.614106
C	 2.698710	 0.058177	 -0.050237
C	 1.246364	 -0.005813	 0.348416
O	 3.344101	 -1.038700	 0.312317
C	 0.453207	 1.232821	 -0.049003
H	 0.839270	 -0.907818	 -0.092281
H	 1.216683	 -0.160521	 1.422434
C	 -0.998367	 1.217982	 0.432195
H	 0.481498	 1.345443	 -1.127236
H	 0.951413	 2.105557	 0.354893
C	 -1.882951	 0.151251	 -0.211235
H	 -1.429490	 2.193659	 0.228843
H	 -1.019755	 1.099323	 1.513279
C	 -3.342450	 0.243269	 0.226009
H	 -1.826223	 0.246578	 -1.293162
H	 -1.508033	 -0.839650	 0.027695
C	 -4.234517	 -0.821434	 -0.405970
H	 -3.730149	 1.228245	 -0.022691
H	 -3.398860	 0.159952	 1.308941
C	 -4.278028	 -2.119281	 0.393703
H	 -5.242467	 -0.429098	 -0.510037
H	 -3.884667	 -1.031317	 -1.413150
H	 -4.918999	 -2.852762	 -0.081843
H	 -4.657493	 -1.948917	 1.395747
H	 -3.288824	 -2.555292	 0.486318
C	 4.720529	 -1.114346	 0.001449
H	 4.874321	 -1.055557	 -1.065852
H	 5.057824	 -2.067950	 0.373977
H	 5.264321	 -0.313596	 0.480350

	symmetry c1
}
set optking {
	frozen_dihedral = ("
		21 17 14 11
	")
}

ee,wfn = optimize('scf', return_wfn=True)
oeprop( wfn, 'DIPOLE', 'QUADRUPOLE', 'MULLIKEN_CHARGES')
f=open( 'psi4out.xyz', 'w' )
f.write( "29  " )
f.write( str(ee) + "\n" )
f.write( MOL.save_string_xyz() )
f.close()
--------------------------------------------------------------------------

    Molecular point group: c1
  Charge       = 0
  Multiplicity = 1
  Basis Set: CC-PVTZ
  Basis Set:
  @DF-RHF Final Energy:  -501.22172454311772
    Total Energy =                       -501.2217245431170340
    Molecular point group: c1
  Basis Set: CC-PVTZ
  Basis Set:
  Basis Set: CC-PVTZ
  Basis Set:
  @DF-RHF Final Energy:  -501.22193473205141
    Total Energy =                       -501.2219347320511815
  Basis Set: CC-PVTZ
  Basis Set:
  Basis Set: CC-PVTZ
  Basis Set:
  @DF-RHF Final Energy:  -501.22196819430815
    Total Energy =                       -501.2219681943087153
  Basis Set: CC-PVTZ
  Basis Set:
  Basis Set: CC-PVTZ
  Basis Set:
  @DF-RHF Final Energy:  -501.22197510629121
    Total Energy =                       -501.2219751062905289
  Basis Set: CC-PVTZ
  Basis Set:
  Basis Set: CC-PVTZ
  Basis Set:
  @DF-RHF Final Energy:  -501.22198209836597
    Total Energy =                       -501.2219820983655154
  Basis Set: CC-PVTZ
  Basis Set:
  Charge       = 0
  Multiplicity = 1
  Basis Set: CC-PVTZ
  Basis Set:

    Orbital Energies (a.u.)
    -----------------------

    Doubly Occupied:

       1A    -20.596026     2A    -20.533877     3A    -11.364291
       4A    -11.278271     5A    -11.233009     6A    -11.217081
       7A    -11.215451     8A    -11.213959     9A    -11.213755
      10A    -11.212360    11A    -11.207831    12A     -1.471918
      13A     -1.365506    14A     -1.099175    15A     -1.067231
      16A     -1.019602    17A     -0.977300    18A     -0.929009
      19A     -0.867540    20A     -0.802205    21A     -0.785494
      22A     -0.765889    23A     -0.702988    24A     -0.685518
      25A     -0.676017    26A     -0.644185    27A     -0.629245
      28A     -0.609409    29A     -0.597322    30A     -0.588429
      31A     -0.561370    32A     -0.555098    33A     -0.534498
      34A     -0.527665    35A     -0.521705    36A     -0.510296
      37A     -0.497894    38A     -0.476242    39A     -0.474625
      40A     -0.463739    41A     -0.459727    42A     -0.451645
      43A     -0.443915    44A     -0.437543

  @DF-RHF Final Energy:  -501.22198223470753

   => Energetics <=

    Nuclear Repulsion Energy =            616.4103631429078405
    One-Electron Energy =               -1904.2929838029031089
    Two-Electron Energy =                 786.6606384252881981
    DFT Exchange-Correlation Energy =       0.0000000000000000
    Empirical Dispersion Energy =           0.0000000000000000
    PCM Polarization Energy =               0.0000000000000000
    EFP Energy =                            0.0000000000000000
    Total Energy =                       -501.2219822347069567
    Molecular point group: c1
  Basis Set: CC-PVTZ
  Basis Set:

  -Total Gradient:
     Atom            X                  Y                   Z
    ------   -----------------  -----------------  -----------------
       1        0.000000339837     0.000000042028    -0.000019538622
       2        0.000006408617     0.000015933940     0.000039525403
       3       -0.000004840525    -0.000010810459    -0.000020477195
       4       -0.000003413524    -0.000013572324    -0.000013133650
       5        0.000003402253     0.000008578157    -0.000001698057
       6        0.000006937014     0.000000560375     0.000003008403
       7       -0.000002029656     0.000000677065     0.000008404732
       8        0.000005088420     0.000009467658    -0.000023707704
       9        0.000004364455    -0.000000002199    -0.000004516766
      10        0.000000082337     0.000002125889    -0.000000407339
      11       -0.000403692657     0.001312929720    -0.001695162646
      12       -0.000005908991     0.000006320096     0.000002637700
      13       -0.000005122997    -0.000011853585    -0.000002888934
      14        0.000754612016    -0.001614114412     0.001772153620
      15        0.000008531944     0.000002874085     0.000000057826
      16       -0.000007867145    -0.000012263957     0.000004407725
      17       -0.001055507257    -0.000656538890     0.002705355401
      18        0.000002295049     0.000034338293    -0.000003802531
      19        0.000007320924     0.000002432057     0.000031859060
      20       -0.000001505234    -0.000009620697    -0.000024280193
      21        0.000695475828     0.000964923174    -0.002778266619
      22       -0.000010509204    -0.000014057572     0.000005414284
      23       -0.000013499722    -0.000021151010    -0.000007644225
      24       -0.000010498942     0.000013018176     0.000015574459
      25        0.000030027830    -0.000012526266     0.000006103136
      26       -0.000001019395     0.000002245808     0.000001898643
      27       -0.000001292879     0.000000531789    -0.000003374977
      28       -0.000000168186    -0.000002840137     0.000001215555
      29        0.000001989795     0.000002353201     0.000001283512

  **** Optimization is complete! (in 6 steps) ****
    Final optimized geometry and variables:
    Molecular point group: c1

    Geometry (in Angstrom), charge = 0, multiplicity = 1:

    O            3.083509763810     1.113413807152    -0.637393437397
    C            2.567321182598     0.201918234250    -0.086287098298
    C            1.115412518740     0.125388519255     0.311900134554
    O            3.217905311418    -0.897281293823     0.259582775078
    C            0.316398388558     1.366205032581    -0.066604765035
    H            0.712288634762    -0.771702785210    -0.142340635963
    H            1.086704731276    -0.045742995441     1.383457517843
    C           -1.134937139930     1.337278871037     0.414732134222
    H            0.343802940197     1.495133286749    -1.143041448322
    H            0.810632166846     2.235143030647     0.350189615547
    C           -2.014527559539     0.275587526167    -0.243468062112
    H           -1.571089075890     2.313686294521     0.225390486561
    H           -1.155493634816     1.203215502935     1.493983402409
    C           -3.480710704374     0.375003215441     0.175820117971
    H           -1.950952322251     0.378965712411    -1.323898853477
    H           -1.638715704924    -0.715757030064    -0.009011560009
    C           -4.376133365056    -0.711380600032    -0.433913631939
    H           -3.851503569179     1.351271240684    -0.122561410798
    H           -3.556136363071     0.343285983214     1.259799885882
    C           -4.419421914263    -2.005901891557     0.372309964368
    H           -5.382127572357    -0.324034937585    -0.557287646255
    H           -4.029167578053    -0.929322866334    -1.440636994540
    H           -5.034002433608    -2.752305063213    -0.118011539670
    H           -4.832671544567    -1.834114744129     1.360561292986
    H           -3.428944849653    -2.429451139679     0.499089649215
    C            4.594452707013    -0.962088220595    -0.053267216478
    H            4.747187277409    -0.886752640459    -1.119687121723
    H            4.936380611198    -1.919574764758     0.304826642426
    H            5.134968828199    -0.166062814561     0.437099801612

  Mulliken Charges: (a.u.)
   Center  Symbol    Alpha    Beta     Spin     Total
       1     O     4.19698  4.19698  0.00000 -0.39395
       2     C     2.80479  2.80479  0.00000  0.39041
       3     C     3.10179  3.10179  0.00000 -0.20359
       4     O     4.14722  4.14722  0.00000 -0.29445
       5     C     3.09222  3.09222  0.00000 -0.18444
       6     H     0.43947  0.43947  0.00000  0.12105
       7     H     0.43981  0.43981  0.00000  0.12038
       8     C     3.10401  3.10401  0.00000 -0.20802
       9     H     0.44623  0.44623  0.00000  0.10754
      10     H     0.43955  0.43955  0.00000  0.12089
      11     C     3.09323  3.09323  0.00000 -0.18647
      12     H     0.44538  0.44538  0.00000  0.10924
      13     H     0.45329  0.45329  0.00000  0.09341
      14     C     3.09446  3.09446  0.00000 -0.18892
      15     H     0.45257  0.45257  0.00000  0.09486
      16     H     0.45290  0.45290  0.00000  0.09420
      17     C     3.09083  3.09083  0.00000 -0.18165
      18     H     0.44784  0.44784  0.00000  0.10432
      19     H     0.45523  0.45523  0.00000  0.08954
      20     C     3.14777  3.14777  0.00000 -0.29553
      21     H     0.44751  0.44751  0.00000  0.10498
      22     H     0.45597  0.45597  0.00000  0.08806
      23     H     0.44790  0.44790  0.00000  0.10421
      24     H     0.45492  0.45492  0.00000  0.09015
      25     H     0.45612  0.45612  0.00000  0.08776
      26     C     3.03818  3.03818  0.00000 -0.07635
      27     H     0.45435  0.45435  0.00000  0.09129
      28     H     0.44526  0.44526  0.00000  0.10947
      29     H     0.45421  0.45421  0.00000  0.09158

   Total alpha = 44.00000, Total beta = 44.00000, Total charge =  0.00000

*** Psi4 exiting successfully. Buy a developer a beer!
