                              Psi4 1.0.54 Driver

  ==> Input File <==

--------------------------------------------------------------------------
set {
	reference rhf
	basis cc-pvtz
}

set_num_threads( 4 )
memory 2 gb

molecule MOL {
0 1

H	 2.614283	 2.028610	 0.296620
O	 3.358864	 1.662087	 -0.142800
C	 3.565468	 0.338079	 0.273842
C	 2.533667	 -0.637565	 -0.272227
H	 4.548038	 0.064914	 -0.086598
H	 3.593945	 0.282242	 1.360360
C	 2.440971	 -0.664635	 -1.796209
H	 2.768166	 -1.631207	 0.097696
H	 1.565556	 -0.366662	 0.142227
C	 1.372595	 -1.630638	 -2.306354
H	 3.405221	 -0.941427	 -2.209261
H	 2.219829	 0.336867	 -2.161416
C	 1.185154	 -1.643890	 -3.824559
H	 1.608054	 -2.635799	 -1.965124
H	 0.423700	 -1.370147	 -1.845689
C	 2.369033	 -2.194820	 -4.617433
H	 0.307464	 -2.241677	 -4.054425
H	 0.960917	 -0.636077	 -4.166883
C	 2.095908	 -2.279970	 -6.116954
H	 2.620622	 -3.184863	 -4.243284
H	 3.246936	 -1.576515	 -4.456224
C	 3.277217	 -2.826114	 -6.912020
H	 1.225963	 -2.908076	 -6.288001
H	 1.836120	 -1.293128	 -6.490737
H	 3.541351	 -3.825884	 -6.583494
H	 3.049223	 -2.875846	 -7.970628
H	 4.153989	 -2.198214	 -6.792169

	symmetry c1
}
set optking {
	frozen_dihedral = ("
		8 4 3 2
	")
}

ee,wfn = optimize('scf', return_wfn=True)
oeprop( wfn, 'DIPOLE', 'QUADRUPOLE', 'MULLIKEN_CHARGES')
f=open( 'psi4out.xyz', 'w' )
f.write( "27  " )
f.write( str(ee) + "\n" )
f.write( MOL.save_string_xyz() )
f.close()
--------------------------------------------------------------------------

    Molecular point group: c1
  Charge       = 0
  Multiplicity = 1
  Basis Set: CC-PVTZ
  Basis Set:
  @DF-RHF Final Energy:  -388.42787464483922
    Total Energy =                       -388.4278746448394486
    Molecular point group: c1
  Basis Set: CC-PVTZ
  Basis Set:
  Basis Set: CC-PVTZ
  Basis Set:
  @DF-RHF Final Energy:  -388.42805992700727
    Total Energy =                       -388.4280599270076664
  Basis Set: CC-PVTZ
  Basis Set:
  Basis Set: CC-PVTZ
  Basis Set:
  @DF-RHF Final Energy:  -388.42809814194419
    Total Energy =                       -388.4280981419442469
  Basis Set: CC-PVTZ
  Basis Set:
  Basis Set: CC-PVTZ
  Basis Set:
  @DF-RHF Final Energy:  -388.42810112598363
    Total Energy =                       -388.4281011259836305
  Basis Set: CC-PVTZ
  Basis Set:
  Charge       = 0
  Multiplicity = 1
  Basis Set: CC-PVTZ
  Basis Set:

    Orbital Energies (a.u.)
    -----------------------

    Doubly Occupied:

       1A    -20.546412     2A    -11.265495     3A    -11.214988
       4A    -11.210705     5A    -11.210671     6A    -11.209337
       7A    -11.208264     8A    -11.208014     9A    -11.204524
      10A     -1.364181    11A     -1.092297    12A     -1.059699
      13A     -1.010375    14A     -0.945911    15A     -0.884474
      16A     -0.820943    17A     -0.801267    18A     -0.775014
      19A     -0.682733    20A     -0.652420    21A     -0.640202
      22A     -0.613717    23A     -0.607215    24A     -0.584865
      25A     -0.571147    26A     -0.557856    27A     -0.538628
      28A     -0.517701    29A     -0.511235    30A     -0.491420
      31A     -0.479390    32A     -0.470967    33A     -0.464773
      34A     -0.457660    35A     -0.455274    36A     -0.440447
      37A     -0.422470

  @DF-RHF Final Energy:  -388.42810149385093

   => Energetics <=

    Nuclear Repulsion Energy =            459.4346582948879814
    One-Electron Energy =               -1437.3401491432387047
    Two-Electron Energy =                 589.4773893545000192
    DFT Exchange-Correlation Energy =       0.0000000000000000
    Empirical Dispersion Energy =           0.0000000000000000
    PCM Polarization Energy =               0.0000000000000000
    EFP Energy =                            0.0000000000000000
    Total Energy =                       -388.4281014938507042
    Molecular point group: c1
  Basis Set: CC-PVTZ
  Basis Set:

  -Total Gradient:
     Atom            X                  Y                   Z
    ------   -----------------  -----------------  -----------------
       1       -0.000024813149     0.000007244602     0.000003529575
       2        0.000516220606    -0.000171612125    -0.000701752749
       3       -0.000536961336     0.000112067466     0.000763202258
       4       -0.000600751945     0.000223984526     0.000832982007
       5       -0.000001763945     0.000003095329    -0.000008278330
       6       -0.000009565336     0.000037694992     0.000000985667
       7        0.000019314262    -0.000097569312    -0.000010474369
       8        0.000630005809    -0.000175086214    -0.000908647212
       9       -0.000014583466    -0.000008521549     0.000017351019
      10        0.000018186929     0.000024298917     0.000013176259
      11        0.000014278337    -0.000011173068    -0.000010008159
      12       -0.000013876600     0.000026399517     0.000003879363
      13       -0.000009994473     0.000010820671    -0.000003082186
      14        0.000008055523     0.000015552080    -0.000006613612
      15       -0.000003152787    -0.000001163501     0.000011761522
      16        0.000010369836    -0.000006203196    -0.000000995896
      17        0.000000578306     0.000006284939     0.000012907704
      18       -0.000003999903     0.000000578703    -0.000006599234
      19        0.000001162116     0.000006220297     0.000000169027
      20        0.000000035459     0.000001404100    -0.000001855462
      21        0.000001346235    -0.000004450578    -0.000002593537
      22        0.000000562331    -0.000002272548     0.000000917834
      23        0.000001206118     0.000001561351     0.000001600379
      24       -0.000001609614     0.000002260296    -0.000002124022
      25        0.000001466471    -0.000000227924     0.000000019216
      26       -0.000001166496    -0.000001424472     0.000000854489
      27       -0.000000549283     0.000000236705    -0.000000311548

  **** Optimization is complete! (in 5 steps) ****
    Final optimized geometry and variables:
    Molecular point group: c1

    Geometry (in Angstrom), charge = 0, multiplicity = 1:

    H            0.101109723678     3.042086237957     3.041625893915
    O            0.896813424929     2.703123811863     2.673078445949
    C            1.086557171347     1.375139208577     3.084869108539
    C            0.031516656629     0.417667637767     2.551178828145
    H            2.063701081376     1.090575532444     2.715431615829
    H            1.122308854701     1.316303818433     4.169751176754
    C           -0.053837145773     0.379873766329     1.027320249448
    H            0.265384082860    -0.576892495247     2.923541269000
    H           -0.938570297168     0.683071495814     2.968048707810
    C           -1.119163822526    -0.590432459661     0.520235008772
    H            0.919408868279     0.105832323978     0.632128430368
    H           -0.264452537412     1.376362313394     0.654668692036
    C           -1.311417137695    -0.599250352005    -0.997433822416
    H           -0.881440251578    -1.597240047939     0.856709592880
    H           -2.068685984071    -0.335107351130     0.983451438454
    C           -0.122970984692    -1.132313264230    -1.795454771003
    H           -2.183062142534    -1.205542115131    -1.228671064640
    H           -1.546461807774     0.407963962769    -1.333509453896
    C           -0.396975839520    -1.210209430677    -3.295125422360
    H            0.139121654916    -2.122549164141    -1.428605719637
    H            0.747832719656    -0.505560608190    -1.630417016156
    C            0.789006991082    -1.738453931708    -4.095262183200
    H           -1.260677657022    -1.845992399804    -3.469912527313
    H           -0.666973442836    -0.223483393128    -3.661621896689
    H            1.063428355943    -2.738046267315    -3.774517642233
    H            0.560772601665    -1.782565504237    -5.154097241233
    H            1.659350250997    -1.102649699192    -3.971106431053

  Mulliken Charges: (a.u.)
   Center  Symbol    Alpha    Beta     Spin     Total
       1     H     0.39511  0.39511  0.00000  0.20977
       2     O     4.20358  4.20358  0.00000 -0.40715
       3     C     2.97793  2.97793  0.00000  0.04413
       4     C     3.10519  3.10519  0.00000 -0.21037
       5     H     0.45855  0.45855  0.00000  0.08291
       6     H     0.46010  0.46010  0.00000  0.07980
       7     C     3.08759  3.08759  0.00000 -0.17517
       8     H     0.45316  0.45316  0.00000  0.09367
       9     H     0.45708  0.45708  0.00000  0.08584
      10     C     3.09861  3.09861  0.00000 -0.19722
      11     H     0.45354  0.45354  0.00000  0.09291
      12     H     0.44689  0.44689  0.00000  0.10621
      13     C     3.09735  3.09735  0.00000 -0.19471
      14     H     0.45475  0.45475  0.00000  0.09049
      15     H     0.44938  0.44938  0.00000  0.10123
      16     C     3.08811  3.08811  0.00000 -0.17621
      17     H     0.44912  0.44912  0.00000  0.10177
      18     H     0.45362  0.45362  0.00000  0.09277
      19     C     3.08388  3.08388  0.00000 -0.16777
      20     H     0.45590  0.45590  0.00000  0.08821
      21     H     0.45237  0.45237  0.00000  0.09526
      22     C     3.14980  3.14980  0.00000 -0.29960
      23     H     0.45450  0.45450  0.00000  0.09099
      24     H     0.45444  0.45444  0.00000  0.09111
      25     H     0.45562  0.45562  0.00000  0.08876
      26     H     0.44871  0.44871  0.00000  0.10258
      27     H     0.45510  0.45510  0.00000  0.08979

   Total alpha = 37.00000, Total beta = 37.00000, Total charge = -0.00000

*** Psi4 exiting successfully. Buy a developer a beer!
