  ==> Input File <==

--------------------------------------------------------------------------
set {
	reference rhf
	basis cc-pvtz
}

set_num_threads( 4 )
memory 2 gb

molecule MOL {
0 1

O	 -2.440701	 -0.934798	 -0.415053
C	 -1.922978	 0.063265	 -0.045005
C	 -2.632749	 1.372204	 0.158357
O	 -0.637375	 0.157174	 0.243149
H	 -2.187724	 2.129143	 -0.474664
H	 -3.677681	 1.257276	 -0.079438
H	 -2.516788	 1.693160	 1.185542
C	 0.162530	 -1.009518	 0.097799
C	 1.587210	 -0.664190	 0.477086
H	 0.096803	 -1.356267	 -0.924704
H	 -0.233803	 -1.785900	 0.736810
C	 2.256770	 0.342732	 -0.454344
H	 2.154716	 -1.590834	 0.479041
H	 1.598751	 -0.289614	 1.496104
C	 2.811076	 -0.304315	 -1.719133
H	 1.536502	 1.109547	 -0.726942
H	 3.057005	 0.846115	 0.075818
H	 3.276536	 0.432352	 -2.363381
H	 2.026361	 -0.792218	 -2.287961
H	 3.558678	 -1.053188	 -1.479763

	symmetry c1
}
set optking {
	frozen_dihedral = ("
		16 12 9 8
	")
}

ee = optimize('scf')
oeprop('DIPOLE', 'QUADRUPOLE', 'MULLIKEN_CHARGES')
f=open( 'psi4out.xyz', 'w' )
f.write( "20  " )
f.write( str(ee) + "\n" )
f.write( MOL.save_string_xyz() )
f.close()
--------------------------------------------------------------------------

    Molecular point group: c1
  Charge       = 0
  Multiplicity = 1
  Basis Set: CC-PVTZ
  Basis Set:
  @DF-RHF Final Energy:  -384.08507019478679
    Total Energy =                       -384.0850701947867947
    Molecular point group: c1
  Basis Set: CC-PVTZ
  Basis Set:
  Basis Set: CC-PVTZ
  Basis Set:
  @DF-RHF Final Energy:  -384.08523652526202
    Total Energy =                       -384.0852365252624168
  Basis Set: CC-PVTZ
  Basis Set:
  Basis Set: CC-PVTZ
  Basis Set:
  @DF-RHF Final Energy:  -384.08499733515350
    Total Energy =                       -384.0849973351531617
  Basis Set: CC-PVTZ
  Basis Set:
  Basis Set: CC-PVTZ
  Basis Set:
  @DF-RHF Final Energy:  -384.08526561972684
    Total Energy =                       -384.0852656197273518
  Basis Set: CC-PVTZ
  Basis Set:
  Basis Set: CC-PVTZ
  Basis Set:
  @DF-RHF Final Energy:  -384.08526663956587
    Total Energy =                       -384.0852666395661572
  Basis Set: CC-PVTZ
  Basis Set:
  Charge       = 0
  Multiplicity = 1
  Basis Set: CC-PVTZ
  Basis Set:

    Orbital Energies (a.u.)
    -----------------------

    Doubly Occupied:

       1A    -20.594552     2A    -20.532841     3A    -11.366883
       4A    -11.280103     5A    -11.231819     6A    -11.223479
       7A    -11.218821     8A    -11.211479     9A     -1.471272
      10A     -1.365439    11A     -1.086498    12A     -1.028296
      13A     -0.980188    14A     -0.887691    15A     -0.810340
      16A     -0.772599    17A     -0.693459    18A     -0.690726
      19A     -0.668847    20A     -0.623540    21A     -0.615590
      22A     -0.580998    23A     -0.576203    24A     -0.563396
      25A     -0.538838    26A     -0.528668    27A     -0.521627
      28A     -0.482791    29A     -0.476472    30A     -0.469640
      31A     -0.451220    32A     -0.442229

  @DF-RHF Final Energy:  -384.08526665381089

   => Energetics <=

    Nuclear Repulsion Energy =            389.1857030248228284
    One-Electron Energy =               -1294.5688498785543743
    Two-Electron Energy =                 521.2978801999203142
    DFT Exchange-Correlation Energy =       0.0000000000000000
    Empirical Dispersion Energy =           0.0000000000000000
    PCM Polarization Energy =               0.0000000000000000
    EFP Energy =                            0.0000000000000000
    Total Energy =                       -384.0852666538112317
    Molecular point group: c1
  Basis Set: CC-PVTZ
  Basis Set:

  -Total Gradient:
     Atom            X                  Y                   Z
    ------   -----------------  -----------------  -----------------
       1       -0.000003721862     0.000001422308     0.000010758416
       2       -0.000011447158    -0.000000066278     0.000001962787
       3        0.000002595101     0.000001327869    -0.000010362490
       4        0.000006382528    -0.000020480040     0.000027853669
       5       -0.000000048515     0.000001518351     0.000002692708
       6        0.000000353216     0.000000149587    -0.000000145306
       7       -0.000000629140    -0.000002106533     0.000001478584
       8       -0.000588611068     0.001401352915     0.000901567221
       9        0.000700312224    -0.002235455863    -0.001844562362
      10        0.000004230854    -0.000013681883     0.000014108503
      11       -0.000011103486    -0.000003000385     0.000018216369
      12        0.000569836918     0.002213789108     0.002757494962
      13        0.000000947208     0.000009449287    -0.000005505205
      14        0.000009138616     0.000011763222     0.000007659821
      15       -0.000002440202    -0.000008485096     0.000013243204
      16       -0.000673309891    -0.001349752841    -0.001901184729
      17        0.000000714534    -0.000011014300     0.000004099960
      18       -0.000000051360     0.000007841346     0.000003406963
      19       -0.000002766766    -0.000002147382    -0.000000652041
      20       -0.000000381752    -0.000002423392    -0.000002131035

  **** Optimization is complete! (in 6 steps) ****
    Final optimized geometry and variables:
    Molecular point group: c1

    Geometry (in Angstrom), charge = 0, multiplicity = 1:

    O           -2.330162721559    -0.803909974947    -0.214482074150
    C           -1.814106261687     0.188195068323     0.173371517271
    C           -2.524528413287     1.493899652548     0.392778411223
    O           -0.529632748049     0.277513852011     0.468047001964
    H           -2.077272813339     2.259592053087    -0.227982602264
    H           -3.568654156286     1.382445897577     0.149812155145
    H           -2.411810577166     1.800119857993     1.424735229954
    C            0.270455260472    -0.887378713881     0.310461383679
    C            1.695486579873    -0.536976315805     0.691197534948
    H            0.192448436372    -1.231364897265    -0.711299369765
    H           -0.119322572334    -1.666939336256     0.949658893402
    C            2.381354158276     0.459072239670    -0.250046758209
    H            2.266491879533    -1.459656375453     0.733019532308
    H            1.678198063599    -0.136790779858     1.699150066339
    C            2.953280049322    -0.188888287657    -1.509616447750
    H            1.670475933270     1.224409261301    -0.539324025274
    H            3.181609118416     0.958656015468     0.284148110016
    H            3.408632979850     0.553364563505    -2.154937420005
    H            2.185483122484    -0.693468603199    -2.085908271499
    H            3.713421491623    -0.921975567283    -1.260954727400

  Mulliken Charges: (a.u.)
   Center  Symbol    Alpha    Beta     Spin     Total
       1     O     4.19719  4.19719  0.00000 -0.39437
       2     C     2.80943  2.80943  0.00000  0.38114
       3     C     3.13812  3.13812  0.00000 -0.27624
       4     O     4.15323  4.15323  0.00000 -0.30645
       5     H     0.44634  0.44634  0.00000  0.10733
       6     H     0.43785  0.43785  0.00000  0.12431
       7     H     0.44560  0.44560  0.00000  0.10880
       8     C     2.99278  2.99278  0.00000  0.01444
       9     C     3.09001  3.09001  0.00000 -0.18002
      10     H     0.45083  0.45083  0.00000  0.09833
      11     H     0.44388  0.44388  0.00000  0.11225
      12     C     3.09321  3.09321  0.00000 -0.18641
      13     H     0.45188  0.45188  0.00000  0.09623
      14     H     0.44670  0.44670  0.00000  0.10660
      15     C     3.14974  3.14974  0.00000 -0.29948
      16     H     0.44903  0.44903  0.00000  0.10195
      17     H     0.44742  0.44742  0.00000  0.10516
      18     H     0.44701  0.44701  0.00000  0.10598
      19     H     0.45451  0.45451  0.00000  0.09097
      20     H     0.45526  0.45526  0.00000  0.08948

   Total alpha = 32.00000, Total beta = 32.00000, Total charge =  0.00000
