  ==> Input File <==

--------------------------------------------------------------------------
set {
	reference rhf
	basis 6-31G*
}

set_num_threads( 4 )
memory 2 gb

molecule MOL {
0 1

H	 2.773549	 0.620956	 0.568858
N	 2.332695	 -0.069570	 0.000000
C	 0.936681	 -0.007078	 0.000000
H	 2.741749	 -0.089428	 -0.909427
C	 0.227108	 -0.002120	 -1.198267
C	 0.227108	 -0.002120	 1.198267
H	 0.761569	 -0.014657	 -2.132680
C	 -1.156334	 0.010459	 -1.192360
H	 0.761569	 -0.014657	 2.132680
C	 -1.156334	 0.010459	 1.192360
H	 -1.684791	 0.014915	 -2.129421
C	 -1.862085	 0.017996	 0.000000
H	 -1.684791	 0.014915	 2.129421
H	 -2.936703	 0.028387	 0.000000

	symmetry c1
}
set optking {
	frozen_dihedral = ("
		1 2 3 5
	")
}

ee = optimize('scf')
oeprop('DIPOLE', 'QUADRUPOLE', 'MULLIKEN_CHARGES')
f=open( 'psi4out.xyz', 'w' )
f.write( "14  " )
f.write( str(ee) + "\n" )
f.write( MOL.save_string_xyz() )
f.close()
--------------------------------------------------------------------------

    Molecular point group: c1
  Charge       = 0
  Multiplicity = 1
  Basis Set: 6-31G*
  Basis Set:
  @DF-RHF Final Energy:  -285.72899387878982
    Total Energy =                       -285.7289938787898791
    Molecular point group: c1
  Basis Set: 6-31G*
  Basis Set:
  Basis Set: 6-31G*
  Basis Set:
  @DF-RHF Final Energy:  -285.72933404703269
    Total Energy =                       -285.7293340470330349
  Basis Set: 6-31G*
  Basis Set:
  Basis Set: 6-31G*
  Basis Set:
  @DF-RHF Final Energy:  -285.72940627647887
    Total Energy =                       -285.7294062764785849
  Basis Set: 6-31G*
  Basis Set:
  Basis Set: 6-31G*
  Basis Set:
  @DF-RHF Final Energy:  -285.72941116879434
    Total Energy =                       -285.7294111687945133
  Basis Set: 6-31G*
  Basis Set:
  Charge       = 0
  Multiplicity = 1
  Basis Set: 6-31G*
  Basis Set:

    Orbital Energies (a.u.)
    -----------------------

    Doubly Occupied:

       1A    -15.558691     2A    -11.268842     3A    -11.229155
       4A    -11.228675     5A    -11.219896     6A    -11.217914
       7A    -11.216141     8A     -1.219406     9A     -1.126030
      10A     -1.010062    11A     -0.984492    12A     -0.828597
      13A     -0.808615    14A     -0.702539    15A     -0.678288
      16A     -0.650705    17A     -0.599806    18A     -0.590438
      19A     -0.579757    20A     -0.522281    21A     -0.502461
      22A     -0.485866    23A     -0.440004    24A     -0.331270
      25A     -0.295335

  @DF-RHF Final Energy:  -285.72941160885188

   => Energetics <=

    Nuclear Repulsion Energy =            272.9301678462471159
    One-Electron Energy =                -926.7286217223752374
    Two-Electron Energy =                 368.0690422672760178
    DFT Exchange-Correlation Energy =       0.0000000000000000
    Empirical Dispersion Energy =           0.0000000000000000
    PCM Polarization Energy =               0.0000000000000000
    EFP Energy =                            0.0000000000000000
    Total Energy =                       -285.7294116088521605
    Molecular point group: c1
  Basis Set: 6-31G*
  Basis Set:

  -Total Gradient:
     Atom            X                  Y                   Z
    ------   -----------------  -----------------  -----------------
       1        0.000110916602     0.001535676763    -0.001795046482
       2       -0.000069352396    -0.001011956647     0.002319460672
       3       -0.000150825726    -0.002367456452    -0.000356837432
       4        0.000013424229     0.000008534183    -0.000036027867
       5       -0.000016820006     0.001850775632    -0.000071948852
       6        0.000093258569    -0.000000832710    -0.000058230823
       7        0.000001372582    -0.000004729273     0.000003562780
       8        0.000092475854    -0.000039602159    -0.000047816383
       9        0.000003658375     0.000012321860     0.000015027874
      10       -0.000084596107    -0.000025768394    -0.000053813520
      11       -0.000008034301     0.000009372008     0.000003955395
      12       -0.000000199935     0.000034963189     0.000096747518
      13        0.000015457672    -0.000004944141    -0.000001149258
      14       -0.000000735408     0.000003646140    -0.000017883618

  **** Optimization is complete! (in 5 steps) ****
    Final optimized geometry and variables:
    Molecular point group: c1

    Geometry (in Angstrom), charge = 0, multiplicity = 1:

    H            2.748415847067     0.617444674528     0.603913897796
    N            2.339101731424    -0.078675223183     0.015138883716
    C            0.934125202754    -0.023849444663    -0.004762893513
    H            2.740646432000    -0.007138485398    -0.896587576520
    C            0.222630598490    -0.009646768590    -1.198638668168
    C            0.230103694496    -0.004032862997     1.196904655063
    H            0.752591336575    -0.017487456444    -2.135948839263
    C           -1.163090633068     0.007243536062    -1.189465434060
    H            0.772972472073    -0.028380083627     2.125595659493
    C           -1.151502098219     0.031526251364     1.197112588778
    H           -1.695413514994     0.011454804711    -2.124334157576
    C           -1.861086251568     0.033550055672     0.004933476485
    H           -1.677786987489     0.048639859578     2.135243057069
    H           -2.935728492059     0.054360094350     0.009335139586

  Mulliken Charges: (a.u.)
   Center  Symbol    Alpha    Beta     Spin     Total
       1     H     0.32136  0.32136  0.00000  0.35727
       2     N     3.94108  3.94108  0.00000 -0.88217
       3     C     2.86312  2.86312  0.00000  0.27377
       4     H     0.32287  0.32287  0.00000  0.35427
       5     C     3.12734  3.12734  0.00000 -0.25469
       6     C     3.11927  3.11927  0.00000 -0.23855
       7     H     0.40488  0.40488  0.00000  0.19025
       8     C     3.09126  3.09126  0.00000 -0.18253
       9     H     0.40027  0.40027  0.00000  0.19947
      10     C     3.09196  3.09196  0.00000 -0.18393
      11     H     0.40062  0.40062  0.00000  0.19877
      12     C     3.11325  3.11325  0.00000 -0.22650
      13     H     0.40047  0.40047  0.00000  0.19906
      14     H     0.40225  0.40225  0.00000  0.19551

   Total alpha = 25.00000, Total beta = 25.00000, Total charge = -0.00000
