                              Psi4 1.0.54 Driver

  ==> Input File <==

--------------------------------------------------------------------------
set {
	reference rhf
	basis cc-pvtz
}

set_num_threads( 4 )
memory 2 gb

molecule MOL {
0 1

O	 -2.071633	 -1.227563	 -0.223463
C	 -1.652164	 -0.152425	 0.058082
C	 -0.327811	 0.006324	 0.778296
C	 -2.402515	 1.108629	 -0.298924
C	 0.843231	 -0.001575	 -0.211665
H	 -0.319484	 0.928173	 1.350354
H	 -0.227804	 -0.823091	 1.466705
C	 2.197693	 0.138030	 0.476937
H	 0.722944	 0.805202	 -0.930230
H	 0.813976	 -0.926978	 -0.776588
C	 2.263804	 1.335422	 1.418766
H	 2.415353	 -0.770486	 1.031685
H	 2.973382	 0.228744	 -0.277793
H	 1.521885	 1.256130	 2.206359
H	 2.081426	 2.262307	 0.885857
H	 3.237562	 1.409796	 1.888516
H	 -3.240910	 0.874416	 -0.936711
H	 -1.747554	 1.818823	 -0.790984
H	 -2.760419	 1.579708	 0.610998

	symmetry c1
}
set optking {
	frozen_dihedral = ("
		11 8 5 9
	")
}

ee,wfn = optimize('scf', return_wfn=True)
oeprop( wfn, 'DIPOLE', 'QUADRUPOLE', 'MULLIKEN_CHARGES')
f=open( 'psi4out.xyz', 'w' )
f.write( "19  " )
f.write( str(ee) + "\n" )
f.write( MOL.save_string_xyz() )
f.close()
--------------------------------------------------------------------------

    Molecular point group: c1
  Charge       = 0
  Multiplicity = 1
  Basis Set: CC-PVTZ
  Basis Set:
  @DF-RHF Final Energy:  -309.17372781400087
    Total Energy =                       -309.1737278140008129
    Molecular point group: c1
  Basis Set: CC-PVTZ
  Basis Set:
  Basis Set: CC-PVTZ
  Basis Set:
  @DF-RHF Final Energy:  -308.74212171639590
    Total Energy =                       -308.7421217163956726
  Basis Set: CC-PVTZ
  Basis Set:
  Basis Set: CC-PVTZ
  Basis Set:
  @DF-RHF Final Energy:  -308.92230962611103
    Total Energy =                       -308.9223096261110868
  Basis Set: CC-PVTZ
  Basis Set:
  Basis Set: CC-PVTZ
  Basis Set:
  @DF-RHF Final Energy:  -309.12045888103262
    Total Energy =                       -309.1204588810327323
  Basis Set: CC-PVTZ
  Basis Set:
  @DF-RHF Final Energy:  -309.17151800928292
    Total Energy =                       -309.1715180092833180
  @DF-RHF Final Energy:  -309.17485744187462
    Total Energy =                       -309.1748574418748490
  @DF-RHF Final Energy:  -309.17395081184475
    Total Energy =                       -309.1739508118448612
  @DF-RHF Final Energy:  -309.17477997675797
    Total Energy =                       -309.1747799767580318
  @DF-RHF Final Energy:  -309.17513779665290
    Total Energy =                       -309.1751377966528480
  @DF-RHF Final Energy:  -309.17514650598537
    Total Energy =                       -309.1751465059853103
  Basis Set: CC-PVTZ
  Basis Set:
  @DF-RHF Final Energy:  -309.17513053592688
    Total Energy =                       -309.1751305359268258
  Basis Set: CC-PVTZ
  Basis Set:
  Basis Set: CC-PVTZ
  Basis Set:
  @DF-RHF Final Energy:  -309.17515698233399
    Total Energy =                       -309.1751569823338741
  Basis Set: CC-PVTZ
  Basis Set:
  Basis Set: CC-PVTZ
  Basis Set:
  @DF-RHF Final Energy:  -309.17515996967757
    Total Energy =                       -309.1751599696772246
  Basis Set: CC-PVTZ
  Basis Set:
  Charge       = 0
  Multiplicity = 1
  Basis Set: CC-PVTZ
  Basis Set:

    Orbital Energies (a.u.)
    -----------------------

    Doubly Occupied:

       1A    -20.536841     2A    -11.319449     3A    -11.229106
       4A    -11.227648     5A    -11.226885     6A    -11.223426
       7A    -11.214790     8A     -1.397052     9A     -1.092688
      10A     -1.028899    11A     -0.982604    12A     -0.902592
      13A     -0.798140    14A     -0.736273    15A     -0.660408
      16A     -0.654072    17A     -0.622176    18A     -0.605582
      19A     -0.598096    20A     -0.570982    21A     -0.553116
      22A     -0.543312    23A     -0.522844    24A     -0.499755
      25A     -0.481448    26A     -0.472634    27A     -0.466611
      28A     -0.399822

  @DF-RHF Final Energy:  -309.17516019756988

   => Energetics <=

    Nuclear Repulsion Energy =            305.3328168624022965
    One-Electron Energy =               -1023.8814549632004400
    Two-Electron Energy =                 409.3734779032284337
    DFT Exchange-Correlation Energy =       0.0000000000000000
    Empirical Dispersion Energy =           0.0000000000000000
    PCM Polarization Energy =               0.0000000000000000
    EFP Energy =                            0.0000000000000000
    Total Energy =                       -309.1751601975697099
    Molecular point group: c1
  Basis Set: CC-PVTZ
  Basis Set:

  -Total Gradient:
     Atom            X                  Y                   Z
    ------   -----------------  -----------------  -----------------
       1        0.000016465327     0.000038392595     0.000017089333
       2       -0.000028099121    -0.000013245704    -0.000017393132
       3        0.000019893093     0.000014673066     0.000010045032
       4       -0.000002855817    -0.000005400259    -0.000037416103
       5       -0.000026219938     0.000033232614     0.003611291423
       6        0.000004504097    -0.000010182986    -0.000009547224
       7        0.000001483974     0.000010121200     0.000002677329
       8        0.000681435049     0.002080624189    -0.002102780003
       9       -0.000157959707    -0.000566547501    -0.002554571661
      10        0.000003103117     0.000003666497     0.000011675947
      11       -0.000510327513    -0.001555386558     0.001045846340
      12        0.000006243075    -0.000000825661     0.000002415041
      13        0.000003913260     0.000003274122    -0.000001208624
      14       -0.000002557107    -0.000002125997     0.000000083667
      15       -0.000001131049    -0.000006047958    -0.000000660136
      16       -0.000006438782     0.000000767891    -0.000001636235
      17        0.000015282727     0.000002191672     0.000011439412
      18       -0.000011382621    -0.000019142707     0.000011896867
      19       -0.000005352067    -0.000008038514     0.000000752725

  **** Optimization is complete! (in 14 steps) ****
    Final optimized geometry and variables:
    Molecular point group: c1

    Geometry (in Angstrom), charge = 0, multiplicity = 1:

    O           -2.307710735823    -0.734716285106    -0.180682463004
    C           -1.538654767989     0.042191721457     0.284020799726
    C           -0.073801814180    -0.310254810189     0.452487129023
    C           -1.972711431388     1.422280462015     0.717498879059
    C            0.705213799089    -0.020915831510    -0.836806462616
    H            0.345224231503     0.244487615298     1.283038167155
    H           -0.016390449099    -1.367168495638     0.681743677963
    C            2.163843752064    -0.483634524553    -0.818239332789
    H            0.667309824341     1.039850596945    -1.071910638040
    H            0.199428216287    -0.523317560372    -1.653955264048
    C            2.998283256949     0.040414306092     0.347368112080
    H            2.186437749852    -1.569670289115    -0.805438578339
    H            2.624594133916    -0.182026126994    -1.753071214014
    H            2.651745335325    -0.346132953921     1.297946733693
    H            2.969708087914     1.124618875769     0.398694804796
    H            4.034852165444    -0.255150904049     0.236053781153
    H           -2.987909707368     1.608457477556     0.402558272419
    H           -1.311754630110     2.179063519859     0.310596110302
    H           -1.911641407289     1.490788765263     1.798990136210

  Mulliken Charges: (a.u.)
   Center  Symbol    Alpha    Beta     Spin     Total
       1     O     4.17692  4.17692  0.00000 -0.35384
       2     C     2.85709  2.85709  0.00000  0.28582
       3     C     3.10144  3.10144  0.00000 -0.20289
       4     C     3.15626  3.15626  0.00000 -0.31253
       5     C     3.10625  3.10625  0.00000 -0.21250
       6     H     0.44703  0.44703  0.00000  0.10594
       7     H     0.43916  0.43916  0.00000  0.12168
       8     C     3.09006  3.09006  0.00000 -0.18012
       9     H     0.45055  0.45055  0.00000  0.09890
      10     H     0.43711  0.43711  0.00000  0.12578
      11     C     3.15645  3.15645  0.00000 -0.31290
      12     H     0.45019  0.45019  0.00000  0.09962
      13     H     0.44648  0.44648  0.00000  0.10705
      14     H     0.45239  0.45239  0.00000  0.09521
      15     H     0.45442  0.45442  0.00000  0.09117
      16     H     0.44335  0.44335  0.00000  0.11330
      17     H     0.43570  0.43570  0.00000  0.12860
      18     H     0.45069  0.45069  0.00000  0.09862
      19     H     0.44846  0.44846  0.00000  0.10308

   Total alpha = 28.00000, Total beta = 28.00000, Total charge = -0.00000

*** Psi4 exiting successfully. Buy a developer a beer!
