  ==> Input File <==

--------------------------------------------------------------------------
set {
	reference rhf
	basis 6-31G*
}

set_num_threads( 4 )
memory 2 gb

molecule MOL {
0 1

O	 2.824497	 1.417205	 -0.502110
C	 2.785376	 0.256629	 -0.774674
C	 1.489120	 -0.533682	 -0.766415
C	 4.038076	 -0.508479	 -1.149519
C	 0.262506	 0.287782	 -0.380608
H	 1.361751	 -0.975117	 -1.753989
H	 1.616935	 -1.376434	 -0.088304
C	 -1.022970	 -0.541257	 -0.383627
H	 0.164324	 1.123780	 -1.065880
H	 0.419633	 0.721846	 0.601761
C	 -2.259874	 0.272531	 0.000494
H	 -1.172570	 -0.976400	 -1.370702
H	 -0.917054	 -1.378780	 0.304417
C	 -3.549786	 -0.549746	 -0.000374
H	 -2.367142	 1.109639	 -0.687084
H	 -2.111808	 0.707293	 0.987436
C	 -4.809590	 0.315458	 -0.000369
H	 -3.560515	 -1.202009	 -0.871156
H	 -3.561123	 -1.202955	 0.869711
H	 -4.844746	 0.956611	 -0.876632
H	 -5.706986	 -0.295590	 -0.001609
H	 -4.845960	 0.954827	 0.877144
H	 3.939493	 -0.932945	 -2.144370
H	 4.891958	 0.154095	 -1.122758
H	 4.197889	 -1.333624	 -0.461601

	symmetry c1
}
set optking {
	frozen_dihedral = ("
		15 11 14 18
	")
}

ee = optimize('scf')
oeprop('DIPOLE', 'QUADRUPOLE', 'MULLIKEN_CHARGES')
f=open( 'psi4out.xyz', 'w' )
f.write( "25  " )
f.write( str(ee) + "\n" )
f.write( MOL.save_string_xyz() )
f.close()
--------------------------------------------------------------------------

    Molecular point group: c1
  Charge       = 0
  Multiplicity = 1
  Basis Set: 6-31G*
  Basis Set:
  @DF-RHF Final Energy:  -387.13559725235513
    Total Energy =                       -387.1355972523554101
    Molecular point group: c1
  Basis Set: 6-31G*
  Basis Set:
  Basis Set: 6-31G*
  Basis Set:
  @DF-RHF Final Energy:  -387.13569129561432
    Total Energy =                       -387.1356912956148335
  Basis Set: 6-31G*
  Basis Set:
  Basis Set: 6-31G*
  Basis Set:
  @DF-RHF Final Energy:  -387.13574054031767
    Total Energy =                       -387.1357405403177836
  Basis Set: 6-31G*
  Basis Set:
  Basis Set: 6-31G*
  Basis Set:
  @DF-RHF Final Energy:  -387.13565852880043
    Total Energy =                       -387.1356585288006045
  Basis Set: 6-31G*
  Basis Set:
  Basis Set: 6-31G*
  Basis Set:
  @DF-RHF Final Energy:  -387.13574069466489
    Total Energy =                       -387.1357406946657420
  Basis Set: 6-31G*
  Basis Set:
  Basis Set: 6-31G*
  Basis Set:
  @DF-RHF Final Energy:  -387.13574357474459
    Total Energy =                       -387.1357435747453337
  Basis Set: 6-31G*
  Basis Set:
  Charge       = 0
  Multiplicity = 1
  Basis Set: 6-31G*
  Basis Set:

    Orbital Energies (a.u.)
    -----------------------

    Doubly Occupied:

       1A    -20.550511     2A    -11.326352     3A    -11.231954
       4A    -11.228381     5A    -11.217309     6A    -11.216652
       7A    -11.215272     8A    -11.213406     9A    -11.208609
      10A     -1.395817    11A     -1.093521    12A     -1.056130
      13A     -1.014572    14A     -0.969402    15A     -0.890867
      16A     -0.814511    17A     -0.791192    18A     -0.729975
      19A     -0.660785    20A     -0.652099    21A     -0.630642
      22A     -0.624112    23A     -0.596148    24A     -0.584784
      25A     -0.567083    26A     -0.559639    27A     -0.539991
      28A     -0.526615    29A     -0.512830    30A     -0.490316
      31A     -0.487604    32A     -0.473386    33A     -0.464634
      34A     -0.459996    35A     -0.450935    36A     -0.399512

  @DF-RHF Final Energy:  -387.13574352911473

   => Energetics <=

    Nuclear Repulsion Energy =            438.3015404610714540
    One-Electron Energy =               -1393.1834760530873609
    Two-Electron Energy =                 567.7461920629010592
    DFT Exchange-Correlation Energy =       0.0000000000000000
    Empirical Dispersion Energy =           0.0000000000000000
    PCM Polarization Energy =               0.0000000000000000
    EFP Energy =                            0.0000000000000000
    Total Energy =                       -387.1357435291148477
    Molecular point group: c1
  Basis Set: 6-31G*
  Basis Set:

  -Total Gradient:
     Atom            X                  Y                   Z
    ------   -----------------  -----------------  -----------------
       1        0.000000209809     0.000000722009     0.000001229344
       2        0.000000030222    -0.000001998052    -0.000004164136
       3        0.000001440290     0.000005688756    -0.000012331903
       4        0.000000091225     0.000001370151    -0.000003320076
       5        0.000003645317    -0.000004264585    -0.000010112288
       6        0.000001831784    -0.000003267054    -0.000002945381
       7       -0.000002350483     0.000004282930    -0.000000457138
       8        0.000013960326    -0.000005975534     0.000038562540
       9       -0.000000002654     0.000006310265     0.000005104351
      10       -0.000000021619    -0.000009328350     0.000001016735
      11        0.001536501494    -0.002491785077    -0.002278896171
      12        0.000002575000     0.000002275439     0.000010588978
      13        0.000003055452    -0.000007107909     0.000007013992
      14       -0.001891102035     0.002897306848    -0.001405591949
      15       -0.000997147836     0.001638174782     0.002130530622
      16        0.000012397331    -0.000013467899    -0.000005731241
      17       -0.000012562953    -0.000002777198     0.000021073342
      18        0.001345433718    -0.002026722524     0.001506854022
      19       -0.000009885804     0.000010752878    -0.000003164159
      20        0.000001153766    -0.000012269364    -0.000001150862
      21       -0.000005321968     0.000002738170     0.000006224423
      22       -0.000004177371     0.000010011516    -0.000003661853
      23        0.000000136353    -0.000001065524     0.000001103499
      24        0.000000057511     0.000000007654     0.000000683154
      25        0.000000053118     0.000000387668     0.000001542154

  **** Optimization is complete! (in 7 steps) ****
    Final optimized geometry and variables:
    Molecular point group: c1

    Geometry (in Angstrom), charge = 0, multiplicity = 1:

    O            2.862987652574     1.358796304517    -0.035093238025
    C            2.822844561933     0.200986631192    -0.318996779221
    C            1.523893959910    -0.584837809658    -0.331920626607
    C            4.076848940395    -0.564972773653    -0.687666778438
    C            0.295932652982     0.237617583777     0.047416326036
    H            1.406013234505    -1.017367808125    -1.324595905804
    H            1.641295489206    -1.433776155625     0.340337807825
    C           -0.991953791737    -0.587175429748     0.024516779501
    H            0.207298749090     1.079120421248    -0.632449171414
    H            0.444141894536     0.663637179110     1.034605375188
    C           -2.231417520732     0.228893697917     0.391046784862
    H           -1.129118236151    -1.020534576183    -0.964990739461
    H           -0.899143563023    -1.426148821368     0.713001783303
    C           -3.520451285242    -0.597892248187     0.426020003938
    H           -2.348686518843     1.060003167861    -0.302259692299
    H           -2.082292095832     0.687534961905     1.367297181427
    C           -4.784971349285     0.256963696369     0.477443509803
    H           -3.552949490398    -1.262461464509    -0.435005994011
    H           -3.494483931691    -1.252589446436     1.295026851096
    H           -4.873619199965     0.878961090702    -0.408635701722
    H           -5.675942609581    -0.360179085755     0.539848285633
    H           -4.777247135559     0.914803383877     1.342095080783
    H            3.987674911055    -0.979157546304    -1.687724342037
    H            4.932734605539     0.094161147566    -0.644999668458
    H            4.226174472356    -1.397500406925    -0.006310954370

  Mulliken Charges: (a.u.)
   Center  Symbol    Alpha    Beta     Spin     Total
       1     O     4.26114  4.26114  0.00000 -0.52228
       2     C     2.73569  2.73569  0.00000  0.52862
       3     C     3.21090  3.21090  0.00000 -0.42181
       4     C     3.28663  3.28663  0.00000 -0.57326
       5     C     3.14819  3.14819  0.00000 -0.29639
       6     H     0.40998  0.40998  0.00000  0.18004
       7     H     0.40998  0.40998  0.00000  0.18003
       8     C     3.15414  3.15414  0.00000 -0.30828
       9     H     0.41206  0.41206  0.00000  0.17588
      10     H     0.41205  0.41205  0.00000  0.17590
      11     C     3.15149  3.15149  0.00000 -0.30298
      12     H     0.42461  0.42461  0.00000  0.15079
      13     H     0.42471  0.42471  0.00000  0.15058
      14     C     3.15192  3.15192  0.00000 -0.30385
      15     H     0.42238  0.42238  0.00000  0.15525
      16     H     0.42209  0.42209  0.00000  0.15582
      17     C     3.23947  3.23947  0.00000 -0.47893
      18     H     0.42365  0.42365  0.00000  0.15269
      19     H     0.42308  0.42308  0.00000  0.15383
      20     H     0.42128  0.42128  0.00000  0.15744
      21     H     0.41954  0.41954  0.00000  0.16092
      22     H     0.42112  0.42112  0.00000  0.15775
      23     H     0.40872  0.40872  0.00000  0.18255
      24     H     0.39645  0.39645  0.00000  0.20710
      25     H     0.40870  0.40870  0.00000  0.18260

   Total alpha = 36.00000, Total beta = 36.00000, Total charge = -0.00000
