  ==> Input File <==

--------------------------------------------------------------------------
set {
	reference rhf
	basis cc-pvtz
}

set_num_threads( 4 )
memory 2 gb

molecule MOL {
0 1

O	 3.219313	 0.959291	 -0.614106
C	 2.698710	 0.058177	 -0.050237
C	 1.246364	 -0.005813	 0.348416
O	 3.344101	 -1.038700	 0.312317
C	 0.453207	 1.232821	 -0.049003
H	 0.839270	 -0.907818	 -0.092281
H	 1.216683	 -0.160521	 1.422434
C	 -0.998367	 1.217982	 0.432195
H	 0.481498	 1.345443	 -1.127236
H	 0.951413	 2.105557	 0.354893
C	 -1.882951	 0.151251	 -0.211235
H	 -1.429490	 2.193659	 0.228843
H	 -1.019755	 1.099323	 1.513279
C	 -3.342450	 0.243269	 0.226009
H	 -1.826223	 0.246578	 -1.293162
H	 -1.508033	 -0.839650	 0.027695
C	 -4.234517	 -0.821434	 -0.405970
H	 -3.730149	 1.228245	 -0.022691
H	 -3.398860	 0.159952	 1.308941
C	 -3.921896	 -2.232291	 0.081398
H	 -5.274726	 -0.589808	 -0.193753
H	 -4.129033	 -0.782843	 -1.486822
H	 -4.571991	 -2.962833	 -0.386223
H	 -4.052495	 -2.313163	 1.155415
H	 -2.897477	 -2.507267	 -0.146993
C	 4.720529	 -1.114346	 0.001449
H	 4.874321	 -1.055557	 -1.065852
H	 5.057824	 -2.067950	 0.373977
H	 5.264321	 -0.313596	 0.480350

	symmetry c1
}
set optking {
	frozen_dihedral = ("
		21 17 14 11
	")
}

ee = optimize('scf')
oeprop('DIPOLE', 'QUADRUPOLE', 'MULLIKEN_CHARGES')
f=open( 'psi4out.xyz', 'w' )
f.write( "29  " )
f.write( str(ee) + "\n" )
f.write( MOL.save_string_xyz() )
f.close()
--------------------------------------------------------------------------

    Molecular point group: c1
  Charge       = 0
  Multiplicity = 1
  Basis Set: CC-PVTZ
  Basis Set:
  @DF-RHF Final Energy:  -501.22273359699955
    Total Energy =                       -501.2227335969996602
    Molecular point group: c1
  Basis Set: CC-PVTZ
  Basis Set:
  Basis Set: CC-PVTZ
  Basis Set:
  @DF-RHF Final Energy:  -501.22306773742616
    Total Energy =                       -501.2230677374265042
  Basis Set: CC-PVTZ
  Basis Set:
  Basis Set: CC-PVTZ
  Basis Set:
  @DF-RHF Final Energy:  -501.22318336317517
    Total Energy =                       -501.2231833631749396
  Basis Set: CC-PVTZ
  Basis Set:
  Basis Set: CC-PVTZ
  Basis Set:
  @DF-RHF Final Energy:  -501.22291594625108
    Total Energy =                       -501.2229159462514190
  Basis Set: CC-PVTZ
  Basis Set:
  Basis Set: CC-PVTZ
  Basis Set:
  @DF-RHF Final Energy:  -501.22319492947770
    Total Energy =                       -501.2231949294773585
  Basis Set: CC-PVTZ
  Basis Set:
  Basis Set: CC-PVTZ
  Basis Set:
  @DF-RHF Final Energy:  -501.22319595282647
    Total Energy =                       -501.2231959528266998
  Basis Set: CC-PVTZ
  Basis Set:
  Charge       = 0
  Multiplicity = 1
  Basis Set: CC-PVTZ
  Basis Set:

    Orbital Energies (a.u.)
    -----------------------

    Doubly Occupied:

       1A    -20.596015     2A    -20.533865     3A    -11.364278
       4A    -11.278259     5A    -11.232999     6A    -11.217012
       7A    -11.215452     8A    -11.214301     9A    -11.213296
      10A    -11.212513    11A    -11.207381    12A     -1.471910
      13A     -1.365498    14A     -1.099262    15A     -1.067522
      16A     -1.019387    17A     -0.976887    18A     -0.929022
      19A     -0.870523    20A     -0.803175    21A     -0.780889
      22A     -0.765840    23A     -0.703045    24A     -0.685473
      25A     -0.676025    26A     -0.643446    27A     -0.631998
      28A     -0.607820    29A     -0.597053    30A     -0.591149
      31A     -0.558999    32A     -0.555694    33A     -0.537081
      34A     -0.525405    35A     -0.522782    36A     -0.510866
      37A     -0.496617    38A     -0.478243    39A     -0.473484
      40A     -0.462091    41A     -0.459933    42A     -0.451950
      43A     -0.444475    44A     -0.437856

  @DF-RHF Final Energy:  -501.22319605369887

   => Energetics <=

    Nuclear Repulsion Energy =            617.6343408070491705
    One-Electron Energy =               -1906.7415320181046354
    Two-Electron Energy =                 787.8839951573557983
    DFT Exchange-Correlation Energy =       0.0000000000000000
    Empirical Dispersion Energy =           0.0000000000000000
    PCM Polarization Energy =               0.0000000000000000
    EFP Energy =                            0.0000000000000000
    Total Energy =                       -501.2231960536997804
    Molecular point group: c1
  Basis Set: CC-PVTZ
  Basis Set:

  -Total Gradient:
     Atom            X                  Y                   Z
    ------   -----------------  -----------------  -----------------
       1       -0.000001168858     0.000001831454     0.000004313252
       2       -0.000002383136     0.000002323266    -0.000003734030
       3        0.000015990210     0.000001004838     0.000008138672
       4       -0.000003183166     0.000002091199     0.000004554338
       5       -0.000008918793    -0.000011095359    -0.000032430166
       6        0.000022413656     0.000016742850     0.000002597375
       7        0.000001480321    -0.000004542316     0.000003945246
       8        0.000011258262    -0.000017665950     0.000029169345
       9        0.000000458284    -0.000006074706    -0.000002108614
      10       -0.000001580699     0.000007449833    -0.000004154185
      11       -0.000091320594     0.000171893665    -0.000200560108
      12        0.000003536848    -0.000004726156     0.000006943850
      13        0.000004837038    -0.000009723272     0.000003980181
      14        0.000064701827    -0.000184452362     0.000192023681
      15        0.000003085987    -0.000010492379    -0.000007790019
      16       -0.000029284985    -0.000004153895     0.000008154931
      17        0.000014370589    -0.000185841842     0.000301123013
      18       -0.000006522242     0.000004923085    -0.000001833743
      19        0.000009995075    -0.000004172381    -0.000003988488
      20       -0.000011586642     0.000022313274     0.000004621468
      21       -0.000014541749     0.000194979983    -0.000293582171
      22        0.000001974456    -0.000000370912    -0.000010418994
      23       -0.000004909223     0.000001822463    -0.000008212768
      24        0.000004056567    -0.000002775654     0.000004501952
      25        0.000017840633     0.000018604629    -0.000004360250
      26       -0.000000836732    -0.000000132406    -0.000001302521
      27        0.000000423211     0.000000005552     0.000000196613
      28        0.000000108065    -0.000000061868     0.000000105124
      29       -0.000000294204     0.000000295368     0.000000107014

  **** Optimization is complete! (in 7 steps) ****
    Final optimized geometry and variables:
    Molecular point group: c1

    Geometry (in Angstrom), charge = 0, multiplicity = 1:

    O            3.056084164977     1.104034841120    -0.647485145389
    C            2.547911314679     0.213213001140    -0.056576014066
    C            1.098317058340     0.144782654026     0.351412408220
    O            3.206784723764    -0.866640569290     0.331907112852
    C            0.290011363422     1.363858105057    -0.075044164367
    H            0.698849927840    -0.773167445599    -0.062543772668
    H            1.075683632830     0.018860531928     1.429345784226
    C           -1.158747878087     1.347991718919     0.414720469749
    H            0.311368633288     1.447579611152    -1.156075750326
    H            0.781485289819     2.252206957520     0.302243354885
    C           -2.039161751845     0.261768585335    -0.202167644349
    H           -1.598070723371     2.316296817909     0.194645886846
    H           -1.173045596667     1.250704134951     1.498096654889
    C           -3.496284765674     0.360472290345     0.246731171664
    H           -1.994550056242     0.340493576851    -1.286274941298
    H           -1.646890115052    -0.716972550832     0.050422972725
    C           -4.435345440597    -0.663999612019    -0.392746042641
    H           -3.862759703808     1.356264924407     0.013380251487
    H           -3.547101310512     0.265554692269     1.329130957171
    C           -4.192055593765    -2.108454845536     0.037416367675
    H           -5.457555805086    -0.394229772882    -0.145993093285
    H           -4.358912211321    -0.592445034373    -1.474602569741
    H           -4.927792838179    -2.770534448108    -0.404654828515
    H           -4.262534140846    -2.210518124223     1.115650570319
    H           -3.213866545452    -2.462850877259    -0.264831762468
    C            4.582338969563    -0.936203574425     0.015738718745
    H            4.730013879317    -0.904596754028    -1.053578510533
    H            4.931739254767    -1.875806319303     0.411951005973
    H            5.120018976931    -0.117143166182     0.469947217983

  Mulliken Charges: (a.u.)
   Center  Symbol    Alpha    Beta     Spin     Total
       1     O     4.19699  4.19699  0.00000 -0.39398
       2     C     2.80479  2.80479  0.00000  0.39041
       3     C     3.10154  3.10154  0.00000 -0.20308
       4     O     4.14724  4.14724  0.00000 -0.29448
       5     C     3.09231  3.09231  0.00000 -0.18461
       6     H     0.43967  0.43967  0.00000  0.12066
       7     H     0.43983  0.43983  0.00000  0.12034
       8     C     3.10282  3.10282  0.00000 -0.20564
       9     H     0.44629  0.44629  0.00000  0.10741
      10     H     0.43960  0.43960  0.00000  0.12081
      11     C     3.09499  3.09499  0.00000 -0.18999
      12     H     0.44516  0.44516  0.00000  0.10968
      13     H     0.45371  0.45371  0.00000  0.09259
      14     C     3.09483  3.09483  0.00000 -0.18966
      15     H     0.45315  0.45315  0.00000  0.09370
      16     H     0.45154  0.45154  0.00000  0.09691
      17     C     3.08961  3.08961  0.00000 -0.17921
      18     H     0.44865  0.44865  0.00000  0.10270
      19     H     0.45411  0.45411  0.00000  0.09177
      20     C     3.15243  3.15243  0.00000 -0.30486
      21     H     0.44824  0.44824  0.00000  0.10352
      22     H     0.45471  0.45471  0.00000  0.09059
      23     H     0.44596  0.44596  0.00000  0.10808
      24     H     0.45494  0.45494  0.00000  0.09013
      25     H     0.45485  0.45485  0.00000  0.09030
      26     C     3.03822  3.03822  0.00000 -0.07644
      27     H     0.45436  0.45436  0.00000  0.09129
      28     H     0.44526  0.44526  0.00000  0.10948
      29     H     0.45420  0.45420  0.00000  0.09159

   Total alpha = 44.00000, Total beta = 44.00000, Total charge =  0.00000
