  ==> Input File <==

--------------------------------------------------------------------------
set {
	reference rhf
	basis 6-31G*
}

set_num_threads( 1 )
memory 2 gb

molecule MOL {
0 1

H	 -3.008554	 1.835872	 -0.518434
C	 -2.272916	 1.233236	 -0.022121
C	 -2.076860	 -0.007332	 -0.404944
H	 -1.711501	 1.668044	 0.783278
O	 -1.180634	 -0.819263	 0.215062
H	 -2.623452	 -0.459193	 -1.213804
C	 0.051604	 -1.018856	 -0.387932
C	 1.043764	 0.054862	 -0.001873
H	 -0.017620	 -1.041351	 -1.469781
H	 0.437898	 -1.966374	 -0.042284
F	 2.212596	 -0.199467	 -0.571921
F	 0.652529	 1.252447	 -0.405055
F	 1.230877	 0.110694	 1.300533

	symmetry c1
}
set optking {
	frozen_dihedral = ("
		11 8 7 9,
		3 5 7 9,
		6 3 2 1
	")
}

ee = energy('scf')
oeprop('DIPOLE', 'QUADRUPOLE', 'MULLIKEN_CHARGES')
f=open( 'psi4out.xyz', 'w' )
f.write( "13  " )
f.write( str(ee) + "\n" )
f.write( MOL.save_string_xyz() )
f.close()
--------------------------------------------------------------------------

    Molecular point group: c1

    Geometry (in Angstrom), charge = 0, multiplicity = 1:

       Center              X                  Y                   Z               Mass
    ------------   -----------------  -----------------  -----------------  -----------------
           H         -3.110935456230     1.739195127759    -0.497044061304     1.007825032070
           C         -2.375297456230     1.136559127759    -0.000731061304    12.000000000000
           C         -2.179241456230    -0.104008872241    -0.383554061304    12.000000000000
           H         -1.813882456230     1.571367127759     0.804667938696     1.007825032070
           O         -1.283015456230    -0.915939872241     0.236451938696    15.994914619560
           H         -2.725833456230    -0.555869872241    -1.192414061304     1.007825032070
           C         -0.050777456230    -1.115532872241    -0.366542061304    12.000000000000
           C          0.941382543770    -0.041814872241     0.019516938696    12.000000000000
           H         -0.120001456230    -1.138027872241    -1.448391061304     1.007825032070
           H          0.335516543770    -2.063050872241    -0.020894061304     1.007825032070
           F          2.110214543770    -0.296143872241    -0.550531061304    18.998403224000
           F          0.550147543770     1.155770127759    -0.383665061304    18.998403224000
           F          1.128495543770     0.014017127759     1.321922938696    18.998403224000

  Charge       = 0
  Multiplicity = 1
  Basis Set: 6-31G*
  Basis Set:

    Orbital Energies (a.u.)
    -----------------------

    Doubly Occupied:

       1A    -26.340985     2A    -26.338386     3A    -26.337772
       4A    -20.596538     5A    -11.499021     6A    -11.313624
       7A    -11.291402     8A    -11.224624     9A     -1.738105
      10A     -1.636277    11A     -1.634550    12A     -1.430128
      13A     -1.078490    14A     -1.016889    15A     -0.923873
      16A     -0.834303    17A     -0.827333    18A     -0.813089
      19A     -0.785541    20A     -0.714067    21A     -0.710741
      22A     -0.687018    23A     -0.669840    24A     -0.665401
      25A     -0.652059    26A     -0.644455    27A     -0.639664
      28A     -0.586080    29A     -0.564677    30A     -0.526365
      31A     -0.465036    32A     -0.370686

  @DF-RHF Final Energy:  -527.53064608064028

   => Energetics <=

    Nuclear Repulsion Energy =            420.7103242071556224
    One-Electron Energy =               -1565.3679721171772599
    Two-Electron Energy =                 617.1270018293807880
    DFT Exchange-Correlation Energy =       0.0000000000000000
    Empirical Dispersion Energy =           0.0000000000000000
    PCM Polarization Energy =               0.0000000000000000
    EFP Energy =                            0.0000000000000000
    Total Energy =                       -527.5306460806409632

  Mulliken Charges: (a.u.)
   Center  Symbol    Alpha    Beta     Spin     Total
       1     H     0.40719  0.40719  0.00000  0.18563
       2     C     3.20482  3.20482  0.00000 -0.40963
       3     C     2.92361  2.92361  0.00000  0.15278
       4     H     0.39894  0.39894  0.00000  0.20213
       5     O     4.30633  4.30633  0.00000 -0.61267
       6     H     0.40828  0.40828  0.00000  0.18344
       7     C     3.05294  3.05294  0.00000 -0.10588
       8     C     2.45780  2.45780  0.00000  1.08439
       9     H     0.40758  0.40758  0.00000  0.18485
      10     H     0.39438  0.39438  0.00000  0.21124
      11     F     4.68328  4.68328  0.00000 -0.36656
      12     F     4.67864  4.67864  0.00000 -0.35728
      13     F     4.67622  4.67622  0.00000 -0.35244

   Total alpha = 32.00000, Total beta = 32.00000, Total charge =  0.00000
