  ==> Input File <==

--------------------------------------------------------------------------
set {
	reference rhf
	basis 6-31G*
}

set_num_threads( 4 )
memory 2 gb

molecule MOL {
0 1

H	 5.268524	 0.192471	 1.070992
C	 4.673736	 -0.214914	 0.259335
C	 3.185378	 -0.203514	 0.605509
H	 4.871837	 0.380453	 -0.627026
H	 5.025590	 -1.224632	 0.065769
C	 2.317601	 -0.778379	 -0.516234
H	 2.874655	 0.814325	 0.817774
H	 3.023650	 -0.778480	 1.515976
C	 2.003854	 0.224052	 -1.627073
H	 2.808940	 -1.642246	 -0.949782
H	 1.377384	 -1.126956	 -0.094893
C	 3.192900	 0.574168	 -2.509587
H	 1.238967	 -0.184705	 -2.285582
H	 1.580651	 1.138459	 -1.217275
C	 3.087761	 1.823913	 -3.366207
O	 4.168690	 -0.113493	 -2.546492
C	 1.958455	 1.767477	 -4.405748
H	 4.044155	 1.951643	 -3.858864
H	 2.932491	 2.679716	 -2.711855
C	 1.943190	 2.998177	 -5.314459
H	 2.075459	 0.873051	 -5.013965
H	 0.996145	 1.681519	 -3.907710
C	 0.823612	 2.953749	 -6.353437
H	 2.902451	 3.083132	 -5.819099
H	 1.836880	 3.893214	 -4.705359
H	 0.922017	 2.085753	 -6.998903
H	 -0.151936	 2.903540	 -5.878150
H	 0.839196	 3.837471	 -6.983254

	symmetry c1
}
set optking {
	frozen_dihedral = ("
		10 6 3 2
	")
}

ee = optimize('scf')
oeprop('DIPOLE', 'QUADRUPOLE', 'MULLIKEN_CHARGES')
f=open( 'psi4out.xyz', 'w' )
f.write( "28  " )
f.write( str(ee) + "\n" )
f.write( MOL.save_string_xyz() )
f.close()
--------------------------------------------------------------------------

    Molecular point group: c1
  Charge       = 0
  Multiplicity = 1
  Basis Set: 6-31G*
  Basis Set:
  @DF-RHF Final Energy:  -426.15864096383223
    Total Energy =                       -426.1586409638318855
    Molecular point group: c1
  Basis Set: 6-31G*
  Basis Set:
  Basis Set: 6-31G*
  Basis Set:
  @DF-RHF Final Energy:  -426.16299033193047
    Total Energy =                       -426.1629903319308141
  Basis Set: 6-31G*
  Basis Set:
  Basis Set: 6-31G*
  Basis Set:
  @DF-RHF Final Energy:  -426.16370522879663
    Total Energy =                       -426.1637052287962888
  Basis Set: 6-31G*
  Basis Set:
  Basis Set: 6-31G*
  Basis Set:
  @DF-RHF Final Energy:  -426.16257167733829
    Total Energy =                       -426.1625716773380645
  Basis Set: 6-31G*
  Basis Set:
  @DF-RHF Final Energy:  -426.16443596312013
    Total Energy =                       -426.1644359631201269
  @DF-RHF Final Energy:  -426.16467199985459
    Total Energy =                       -426.1646719998548178
  @DF-RHF Final Energy:  -426.16456239391994
    Total Energy =                       -426.1645623939198231
  @DF-RHF Final Energy:  -426.16471603365687
    Total Energy =                       -426.1647160336564184
  Basis Set: 6-31G*
  Basis Set:
  @DF-RHF Final Energy:  -426.16479213771379
    Total Energy =                       -426.1647921377139028
  Basis Set: 6-31G*
  Basis Set:
  Basis Set: 6-31G*
  Basis Set:
  @DF-RHF Final Energy:  -426.16479641435569
    Total Energy =                       -426.1647964143555782
  Basis Set: 6-31G*
  Basis Set:
  Basis Set: 6-31G*
  Basis Set:
  @DF-RHF Final Energy:  -426.16479791625795
    Total Energy =                       -426.1647979162573847
  Basis Set: 6-31G*
  Basis Set:
  Charge       = 0
  Multiplicity = 1
  Basis Set: 6-31G*
  Basis Set:

    Orbital Energies (a.u.)
    -----------------------

    Doubly Occupied:

       1A    -20.547231     2A    -11.321940     3A    -11.232539
       4A    -11.229535     5A    -11.228923     6A    -11.226154
       7A    -11.217503     8A    -11.216348     9A    -11.216005
      10A    -11.202777    11A     -1.392777    12A     -1.095117
      13A     -1.076017    14A     -1.021594    15A     -0.988869
      16A     -0.909224    17A     -0.878211    18A     -0.808962
      19A     -0.794275    20A     -0.723102    21A     -0.667470
      22A     -0.648122    23A     -0.637286    24A     -0.624752
      25A     -0.599059    26A     -0.589401    27A     -0.581096
      28A     -0.560963    29A     -0.550705    30A     -0.536805
      31A     -0.517987    32A     -0.506609    33A     -0.503097
      34A     -0.484712    35A     -0.478694    36A     -0.475290
      37A     -0.469082    38A     -0.465517    39A     -0.450965
      40A     -0.391608

  @DF-RHF Final Energy:  -426.16479800650859

   => Energetics <=

    Nuclear Repulsion Energy =            539.0216650806673897
    One-Electron Energy =               -1646.2402810013527414
    Two-Electron Energy =                 681.0538179141763067
    DFT Exchange-Correlation Energy =       0.0000000000000000
    Empirical Dispersion Energy =           0.0000000000000000
    PCM Polarization Energy =               0.0000000000000000
    EFP Energy =                            0.0000000000000000
    Total Energy =                       -426.1647980065090451
    Molecular point group: c1
  Basis Set: 6-31G*
  Basis Set:

  -Total Gradient:
     Atom            X                  Y                   Z
    ------   -----------------  -----------------  -----------------
       1        0.000009980650     0.000008131369    -0.000019456934
       2        0.000330778571    -0.001850623789     0.000911699693
       3       -0.000113531825     0.003113215434    -0.001746712077
       4        0.000006357398    -0.000027956004     0.000055731083
       5        0.000001372487     0.000006463603    -0.000010297688
       6       -0.001511935167    -0.003095119231     0.002711474356
       7        0.000002939513    -0.000004364309     0.000001277249
       8        0.000016475185    -0.000002481708     0.000016360463
       9       -0.000014332611    -0.000032041647    -0.000053425311
      10        0.001261749140     0.001849432361    -0.001818170929
      11        0.000005503245    -0.000016354437     0.000014785700
      12        0.000074094946     0.000037218838     0.000002257295
      13        0.000004450778     0.000026669883    -0.000018794155
      14        0.000013519361    -0.000018736449    -0.000023139523
      15       -0.000041339670    -0.000043582035    -0.000018221387
      16       -0.000063214135     0.000013056733     0.000007958770
      17        0.000017022954     0.000036133410     0.000010674194
      18       -0.000010654296     0.000015191015     0.000009047453
      19        0.000014330899    -0.000000347053     0.000026425446
      20        0.000000563032    -0.000031661892    -0.000036764485
      21        0.000004735889    -0.000001121059    -0.000002734507
      22        0.000000731138     0.000005946281    -0.000025102361
      23       -0.000013365956     0.000023613210     0.000013588301
      24       -0.000005046799    -0.000005946993    -0.000013907851
      25        0.000013364525    -0.000008942059     0.000001192066
      26        0.000009927604     0.000005889291     0.000001025861
      27       -0.000005657760    -0.000007320518    -0.000001667797
      28       -0.000008819094     0.000005637758     0.000004897076

  **** Optimization is complete! (in 12 steps) ****
    Final optimized geometry and variables:
    Molecular point group: c1

    Geometry (in Angstrom), charge = 0, multiplicity = 1:

    H            2.354496790384    -0.460958982336     3.980480078299
    C            1.906779782174    -0.864018961800     3.076837957053
    C            0.395359725565    -1.022699201629     3.255491598039
    H            2.159275683703    -0.197512400605     2.260076289196
    H            2.374117991877    -1.820653027483     2.868338365073
    C           -0.341625959362    -1.684113553154     2.079312967493
    H           -0.056065078429    -0.056261390755     3.471772950285
    H            0.227189841177    -1.632239455604     4.140062281669
    C           -0.678257275812    -0.739486398617     0.917561685143
    H            0.249689212881    -2.501404831164     1.683255891772
    H           -1.273380963528    -2.102637138624     2.447271264561
    C            0.457883336330    -0.492919718536    -0.065332253519
    H           -1.483822607682    -1.171860208659     0.325270624411
    H           -1.060240445043     0.209209876659     1.285173676082
    C            0.417932392624     0.789868005256    -0.876199118047
    O            1.330238537194    -1.292796626621    -0.224370457862
    C           -0.793948008180     0.879710883928    -1.816026948606
    H            1.337819200341     0.836294606247    -1.446529682425
    H            0.405453044533     1.634501135514    -0.189815315986
    C           -0.769119761244     2.143128386534    -2.678385067349
    H           -0.811347272913     0.004042756316    -2.461222918060
    H           -1.715574584494     0.860100511476    -1.239905383361
    C           -1.971456356158     2.244247139310    -3.615984590231
    H            0.147943509243     2.160791438772    -3.262118261264
    H           -0.738589616918     3.018134911157    -2.032773357936
    H           -2.009399020332     1.399204521388    -4.297272705326
    H           -2.903903067468     2.262063355507    -3.058908734080
    H           -1.926333900402     3.149016394708    -4.213713643402

  Mulliken Charges: (a.u.)
   Center  Symbol    Alpha    Beta     Spin     Total
       1     H     0.42306  0.42306  0.00000  0.15388
       2     C     3.23630  3.23630  0.00000 -0.47261
       3     C     3.15581  3.15581  0.00000 -0.31163
       4     H     0.42062  0.42062  0.00000  0.15877
       5     H     0.41546  0.41546  0.00000  0.16909
       6     C     3.15691  3.15691  0.00000 -0.31383
       7     H     0.42599  0.42599  0.00000  0.14803
       8     H     0.42007  0.42007  0.00000  0.15986
       9     C     3.20984  3.20984  0.00000 -0.41968
      10     H     0.40134  0.40134  0.00000  0.19732
      11     H     0.41920  0.41920  0.00000  0.16161
      12     C     2.73063  2.73063  0.00000  0.53873
      13     H     0.40261  0.40261  0.00000  0.19478
      14     H     0.41396  0.41396  0.00000  0.17209
      15     C     3.20164  3.20164  0.00000 -0.40328
      16     O     4.26804  4.26804  0.00000 -0.53608
      17     C     3.16402  3.16402  0.00000 -0.32804
      18     H     0.39989  0.39989  0.00000  0.20021
      19     H     0.41336  0.41336  0.00000  0.17328
      20     C     3.15177  3.15177  0.00000 -0.30354
      21     H     0.41335  0.41335  0.00000  0.17329
      22     H     0.41834  0.41834  0.00000  0.16332
      23     C     3.24035  3.24035  0.00000 -0.48070
      24     H     0.41835  0.41835  0.00000  0.16330
      25     H     0.42147  0.42147  0.00000  0.15706
      26     H     0.41955  0.41955  0.00000  0.16090
      27     H     0.42119  0.42119  0.00000  0.15763
      28     H     0.41688  0.41688  0.00000  0.16625

   Total alpha = 40.00000, Total beta = 40.00000, Total charge = -0.00000
