  ==> Input File <==

--------------------------------------------------------------------------
set {
	reference rhf
	basis 6-31G*
}

set_num_threads( 4 )
memory 2 gb

molecule MOL {
0 1

O	 0.749854	 1.307668	 -0.000040
C	 0.576249	 0.131685	 -0.000108
C	 -0.766779	 -0.556801	 -0.000461
O	 1.568443	 -0.749345	 -0.000005
C	 -1.945214	 0.412366	 0.000161
H	 -0.796911	 -1.211249	 -0.867467
H	 -0.796854	 -1.212390	 0.865687
C	 -1.733879	 1.573009	 -0.970825
H	 -2.095272	 0.792866	 1.004802
H	 -2.851165	 -0.125532	 -0.257702
H	 -0.848003	 2.147351	 -0.714297
H	 -2.581654	 2.250082	 -0.954978
H	 -1.613411	 1.218877	 -1.990899
C	 2.886820	 -0.232538	 0.000322
H	 3.059106	 0.369571	 -0.880203
H	 3.540187	 -1.091012	 0.000050
H	 3.059019	 0.368956	 0.881266

	symmetry c1
}
set optking {
	frozen_dihedral = ("
		9 5 3 6
	")
}

ee = optimize('scf')
oeprop('DIPOLE', 'QUADRUPOLE', 'MULLIKEN_CHARGES')
f=open( 'psi4out.xyz', 'w' )
f.write( "17  " )
f.write( str(ee) + "\n" )
f.write( MOL.save_string_xyz() )
f.close()
--------------------------------------------------------------------------

    Molecular point group: c1
  Charge       = 0
  Multiplicity = 1
  Basis Set: 6-31G*
  Basis Set:
  @DF-RHF Final Energy:  -344.89424229357076
    Total Energy =                       -344.8942422935704712
    Molecular point group: c1
  Basis Set: 6-31G*
  Basis Set:
  Basis Set: 6-31G*
  Basis Set:
  @DF-RHF Final Energy:  -344.90165259940085
    Total Energy =                       -344.9016525994009612
  Basis Set: 6-31G*
  Basis Set:
  Basis Set: 6-31G*
  Basis Set:
  @DF-RHF Final Energy:  -344.90296027612396
    Total Energy =                       -344.9029602761243609
  Basis Set: 6-31G*
  Basis Set:
  Basis Set: 6-31G*
  Basis Set:
  @DF-RHF Final Energy:  -344.90068195622462
    Total Energy =                       -344.9006819562242185
  Basis Set: 6-31G*
  Basis Set:
  @DF-RHF Final Energy:  -344.90369893387799
    Total Energy =                       -344.9036989338776493
  @DF-RHF Final Energy:  -344.90401518921294
    Total Energy =                       -344.9040151892127142
  Basis Set: 6-31G*
  Basis Set:
  @DF-RHF Final Energy:  -344.90416206745647
    Total Energy =                       -344.9041620674565252
  Basis Set: 6-31G*
  Basis Set:
  Basis Set: 6-31G*
  Basis Set:
  @DF-RHF Final Energy:  -344.90418088876345
    Total Energy =                       -344.9041808887634488
  Basis Set: 6-31G*
  Basis Set:
  Basis Set: 6-31G*
  Basis Set:
  @DF-RHF Final Energy:  -344.90418478150139
    Total Energy =                       -344.9041847815012147
  Basis Set: 6-31G*
  Basis Set:
  Charge       = 0
  Multiplicity = 1
  Basis Set: 6-31G*
  Basis Set:

    Orbital Energies (a.u.)
    -----------------------

    Doubly Occupied:

       1A    -20.605493     2A    -20.544776     3A    -11.373463
       4A    -11.281439     5A    -11.236049     6A    -11.225015
       7A    -11.207463     8A     -1.470516     9A     -1.363067
      10A     -1.078240    11A     -0.999434    12A     -0.940011
      13A     -0.831391    14A     -0.766436    15A     -0.698328
      16A     -0.681500    17A     -0.671003    18A     -0.625514
      19A     -0.611364    20A     -0.570061    21A     -0.561179
      22A     -0.533398    23A     -0.524319    24A     -0.492408
      25A     -0.484156    26A     -0.478890    27A     -0.456209
      28A     -0.434941

  @DF-RHF Final Energy:  -344.90418495051489

   => Energetics <=

    Nuclear Repulsion Energy =            318.6390078568395552
    One-Electron Energy =               -1101.5942550184852280
    Two-Electron Energy =                 438.0510622111309544
    DFT Exchange-Correlation Energy =       0.0000000000000000
    Empirical Dispersion Energy =           0.0000000000000000
    PCM Polarization Energy =               0.0000000000000000
    EFP Energy =                            0.0000000000000000
    Total Energy =                       -344.9041849505147752
    Molecular point group: c1
  Basis Set: 6-31G*
  Basis Set:

  -Total Gradient:
     Atom            X                  Y                   Z
    ------   -----------------  -----------------  -----------------
       1        0.000022485729    -0.000034895699    -0.000026909389
       2       -0.000037031820     0.000004824198     0.000021589307
       3        0.002975574973     0.003133942487    -0.003439516587
       4        0.000011935016     0.000033886291     0.000026285028
       5        0.003331499877     0.003862239747    -0.000783420267
       6       -0.002994751559    -0.003207432400     0.002953549742
       7       -0.000005741184     0.000012527190     0.000000021454
       8       -0.000000026505    -0.000004900480     0.000003446216
       9       -0.003339929266    -0.003798050703     0.001246265830
      10       -0.000011064814     0.000004618362     0.000000016979
      11        0.000005987690     0.000007628895     0.000003984144
      12        0.000012645152    -0.000010413294     0.000009524370
      13        0.000004153759    -0.000003680719     0.000007070216
      14       -0.000002444943    -0.000004464294    -0.000039185253
      15        0.000013809735    -0.000000341705     0.000005355286
      16        0.000017201723     0.000005438238     0.000006572724
      17       -0.000004303561    -0.000000926115     0.000005350200

  **** Optimization is complete! (in 10 steps) ****
    Final optimized geometry and variables:
    Molecular point group: c1

    Geometry (in Angstrom), charge = 0, multiplicity = 1:

    O            0.593323423908     0.920959231834     0.736698231331
    C            0.368433052449    -0.154226929524     0.279883891863
    C           -0.999823941296    -0.778428211150     0.165196343184
    O            1.319146830588    -0.974083960602    -0.145626642909
    C           -2.164899785056     0.211178141553     0.059427125145
    H           -1.017406867386    -1.502267418546    -0.640866403568
    H           -1.120536265092    -1.369394979103     1.072043441269
    C           -2.027495333774     1.257130107971    -1.045448414138
    H           -2.333847371766     0.678425859935     1.023427193425
    H           -3.056598612800    -0.381968793201    -0.129855756800
    H           -1.200305067451     1.928780677637    -0.856372877651
    H           -2.932522314117     1.851699889605    -1.117872159960
    H           -1.868800274459     0.783207131553    -2.011071356778
    C            2.656803963915    -0.524683173604    -0.023667549514
    H            2.806564005790     0.380038360261    -0.594882591999
    H            3.271889893360    -1.320215725572    -0.414345270529
    H            2.901156045331    -0.335794144998     1.011758658988

  Mulliken Charges: (a.u.)
   Center  Symbol    Alpha    Beta     Spin     Total
       1     O     4.28798  4.28798  0.00000 -0.57596
       2     C     2.60450  2.60450  0.00000  0.79100
       3     C     3.21110  3.21110  0.00000 -0.42219
       4     O     4.30535  4.30535  0.00000 -0.61070
       5     C     3.14968  3.14968  0.00000 -0.29936
       6     H     0.40036  0.40036  0.00000  0.19928
       7     H     0.39873  0.39873  0.00000  0.20253
       8     C     3.24964  3.24964  0.00000 -0.49927
       9     H     0.41064  0.41064  0.00000  0.17873
      10     H     0.41899  0.41899  0.00000  0.16202
      11     H     0.40211  0.40211  0.00000  0.19577
      12     H     0.41821  0.41821  0.00000  0.16359
      13     H     0.42413  0.42413  0.00000  0.15174
      14     C     3.09285  3.09285  0.00000 -0.18570
      15     H     0.40850  0.40850  0.00000  0.18300
      16     H     0.40825  0.40825  0.00000  0.18350
      17     H     0.40899  0.40899  0.00000  0.18202

   Total alpha = 28.00000, Total beta = 28.00000, Total charge = -0.00000
