                              Psi4 1.0.54 Driver

  ==> Input File <==

--------------------------------------------------------------------------
set {
	reference rhf
	basis cc-pvtz
}

set_num_threads( 4 )
memory 2 gb

molecule MOL {
0 1

O	 3.219313	 0.959291	 -0.614106
C	 2.698710	 0.058177	 -0.050237
C	 1.246364	 -0.005813	 0.348416
O	 3.344101	 -1.038700	 0.312317
C	 0.453207	 1.232821	 -0.049003
H	 0.839270	 -0.907818	 -0.092281
H	 1.216683	 -0.160521	 1.422434
C	 -0.998367	 1.217982	 0.432195
H	 0.481498	 1.345443	 -1.127236
H	 0.951413	 2.105557	 0.354893
C	 -1.882951	 0.151251	 -0.211235
H	 -1.429490	 2.193659	 0.228843
H	 -1.019755	 1.099323	 1.513279
C	 -2.041597	 -1.094789	 0.655946
H	 -2.864046	 0.575604	 -0.411856
H	 -1.474941	 -0.142254	 -1.174001
C	 -2.918564	 -2.169897	 0.020456
H	 -2.463248	 -0.811583	 1.617374
H	 -1.059988	 -1.512904	 0.866870
C	 -3.073734	 -3.410678	 0.893474
H	 -3.899824	 -1.753647	 -0.190698
H	 -2.496962	 -2.456083	 -0.939338
H	 -3.700976	 -4.153121	 0.413547
H	 -3.525874	 -3.163309	 1.848192
H	 -2.111831	 -3.870646	 1.094425
C	 4.720529	 -1.114346	 0.001449
H	 4.874321	 -1.055557	 -1.065852
H	 5.057824	 -2.067950	 0.373977
H	 5.264321	 -0.313596	 0.480350

	symmetry c1
}
set optking {
	frozen_dihedral = ("
		15 11 8 5
	")
}

ee,wfn = optimize('scf', return_wfn=True)
oeprop( wfn, 'DIPOLE', 'QUADRUPOLE', 'MULLIKEN_CHARGES')
f=open( 'psi4out.xyz', 'w' )
f.write( "29  " )
f.write( str(ee) + "\n" )
f.write( MOL.save_string_xyz() )
f.close()
--------------------------------------------------------------------------

    Molecular point group: c1
  Charge       = 0
  Multiplicity = 1
  Basis Set: CC-PVTZ
  Basis Set:
  @DF-RHF Final Energy:  -501.21959523157579
    Total Energy =                       -501.2195952315756813
    Molecular point group: c1
  Basis Set: CC-PVTZ
  Basis Set:
  Basis Set: CC-PVTZ
  Basis Set:
  @DF-RHF Final Energy:  -501.22013541302260
    Total Energy =                       -501.2201354130220352
  Basis Set: CC-PVTZ
  Basis Set:
  Basis Set: CC-PVTZ
  Basis Set:
  @DF-RHF Final Energy:  -501.22025169379015
    Total Energy =                       -501.2202516937907149
  Basis Set: CC-PVTZ
  Basis Set:
  Basis Set: CC-PVTZ
  Basis Set:
  @DF-RHF Final Energy:  -501.22009156786589
    Total Energy =                       -501.2200915678662341
  Basis Set: CC-PVTZ
  Basis Set:
  Basis Set: CC-PVTZ
  Basis Set:
  @DF-RHF Final Energy:  -501.22025437144521
    Total Energy =                       -501.2202543714445255
  Basis Set: CC-PVTZ
  Basis Set:
  Basis Set: CC-PVTZ
  Basis Set:
  @DF-RHF Final Energy:  -501.22026373652147
    Total Energy =                       -501.2202637365217015
  Basis Set: CC-PVTZ
  Basis Set:
  Charge       = 0
  Multiplicity = 1
  Basis Set: CC-PVTZ
  Basis Set:

    Orbital Energies (a.u.)
    -----------------------

    Doubly Occupied:

       1A    -20.596208     2A    -20.534091     3A    -11.364393
       4A    -11.278427     5A    -11.233146     6A    -11.217164
       7A    -11.215596     8A    -11.214577     9A    -11.214177
      10A    -11.213189    11A    -11.207914    12A     -1.472111
      13A     -1.365732    14A     -1.098583    15A     -1.067207
      16A     -1.020016    17A     -0.977600    18A     -0.932130
      19A     -0.862966    20A     -0.803211    21A     -0.787598
      22A     -0.765750    23A     -0.703552    24A     -0.685882
      25A     -0.675750    26A     -0.649777    27A     -0.628701
      28A     -0.606943    29A     -0.596865    30A     -0.576032
      31A     -0.566142    32A     -0.563877    33A     -0.537354
      34A     -0.527537    35A     -0.517138    36A     -0.505588
      37A     -0.501716    38A     -0.478270    39A     -0.473329
      40A     -0.463604    41A     -0.460493    42A     -0.456823
      43A     -0.439830    44A     -0.437612

  @DF-RHF Final Energy:  -501.22026393096132

   => Energetics <=

    Nuclear Repulsion Energy =            625.6621194642042383
    One-Electron Energy =               -1922.7755595646788151
    Two-Electron Energy =                 795.8931761695141631
    DFT Exchange-Correlation Energy =       0.0000000000000000
    Empirical Dispersion Energy =           0.0000000000000000
    PCM Polarization Energy =               0.0000000000000000
    EFP Energy =                            0.0000000000000000
    Total Energy =                       -501.2202639309605274
    Molecular point group: c1
  Basis Set: CC-PVTZ
  Basis Set:

  -Total Gradient:
     Atom            X                  Y                   Z
    ------   -----------------  -----------------  -----------------
       1       -0.000035216088    -0.000062362365     0.000038146035
       2        0.000039738850     0.000043602381    -0.000028775197
       3       -0.000013017109    -0.000016831275     0.000018324102
       4       -0.000041094906     0.000025723182    -0.000006764583
       5       -0.000056724934     0.000148227705    -0.000149944402
       6        0.000009926252     0.000017942809     0.000007187794
       7        0.000000184303    -0.000002894200    -0.000013949491
       8        0.000121515914    -0.000145494031     0.000165104689
       9       -0.000011443517     0.000003702688     0.000010194522
      10        0.000004683040    -0.000007756241    -0.000007519194
      11       -0.000181800107    -0.000028046099     0.000230835373
      12        0.000020287685     0.000000905262     0.000006766126
      13        0.000016976173     0.000012497100    -0.000006579688
      14        0.000023322675    -0.000030995861    -0.000007483455
      15        0.000080013748     0.000067379967    -0.000269695266
      16       -0.000019150282    -0.000009870124     0.000017131193
      17        0.000006198737    -0.000006392021    -0.000002281189
      18       -0.000003553955     0.000007947428    -0.000014692209
      19       -0.000001632736    -0.000015981375     0.000014103338
      20        0.000002595111     0.000004104375     0.000002879283
      21        0.000000391532     0.000000024850     0.000001126613
      22       -0.000000966437    -0.000001115931    -0.000002191914
      23       -0.000000302368     0.000004022422    -0.000001476280
      24        0.000000640666     0.000000640630     0.000001825713
      25       -0.000000393382    -0.000000428971    -0.000001352463
      26        0.000049623159     0.000007306594    -0.000009319542
      27       -0.000004994553    -0.000000074261     0.000024600199
      28        0.000003043012     0.000000597630    -0.000002496354
      29       -0.000008850473    -0.000016382269    -0.000013703754

  **** Optimization is complete! (in 7 steps) ****
    Final optimized geometry and variables:
    Molecular point group: c1

    Geometry (in Angstrom), charge = 0, multiplicity = 1:

    O            2.720422445039     1.543666889177    -0.782608103060
    C            2.231474365861     0.617183599656    -0.231864011725
    C            0.782622741438     0.497922060223     0.168509245793
    O            2.913968211790    -0.463079693336     0.112217288147
    C           -0.050444407246     1.714576815259    -0.212368279815
    H            0.405724453904    -0.409558141767    -0.287561434606
    H            0.760690164201     0.324828208066     1.239572134729
    C           -1.505371938133     1.669300932099     0.261629825782
    H           -0.026567208343     1.836842082147    -1.289601653571
    H            0.423185543222     2.598472806600     0.197368265984
    C           -2.375011735017     0.550618180829    -0.341566929013
    H           -1.946759340410     2.627561617238     0.011439833821
    H           -1.532393991183     1.605544399863     1.346551607217
    C           -2.545107457669    -0.683368582419     0.544825960906
    H           -3.362411199462     0.948526616112    -0.553140286812
    H           -1.967292392191     0.252749581791    -1.304472740378
    C           -3.396066649746    -1.773747209791    -0.100090810497
    H           -3.004510660912    -0.380558735697     1.482718518261
    H           -1.576245092405    -1.097912739770     0.806083415744
    C           -3.589055910974    -2.992875679932     0.795695785343
    H           -4.366995700370    -1.362450618121    -0.362412783975
    H           -2.935472083061    -2.083242543816    -1.034450409167
    H           -4.196567243166    -3.746586952539     0.308077149956
    H           -4.080530335257    -2.722257100816     1.724326494043
    H           -2.637113252368    -3.448347447686     1.047927363376
    C            4.291629802383    -0.487700465037    -0.201838349954
    H            4.441185717025    -0.406896878136    -1.268267447734
    H            4.661451418592    -1.435226755184     0.154998533592
    H            4.809226661797     0.323149283425     0.288872635051

  Mulliken Charges: (a.u.)
   Center  Symbol    Alpha    Beta     Spin     Total
       1     O     4.19644  4.19644  0.00000 -0.39287
       2     C     2.80650  2.80650  0.00000  0.38701
       3     C     3.10588  3.10588  0.00000 -0.21177
       4     O     4.14712  4.14712  0.00000 -0.29425
       5     C     3.08762  3.08762  0.00000 -0.17524
       6     H     0.43836  0.43836  0.00000  0.12328
       7     H     0.43762  0.43762  0.00000  0.12475
       8     C     3.10939  3.10939  0.00000 -0.21878
       9     H     0.44663  0.44663  0.00000  0.10673
      10     H     0.44013  0.44013  0.00000  0.11974
      11     C     3.10684  3.10684  0.00000 -0.21367
      12     H     0.44017  0.44017  0.00000  0.11966
      13     H     0.45371  0.45371  0.00000  0.09258
      14     C     3.08930  3.08930  0.00000 -0.17860
      15     H     0.44404  0.44404  0.00000  0.11192
      16     H     0.45141  0.45141  0.00000  0.09718
      17     C     3.08503  3.08503  0.00000 -0.17005
      18     H     0.45263  0.45263  0.00000  0.09474
      19     H     0.45293  0.45293  0.00000  0.09413
      20     C     3.14977  3.14977  0.00000 -0.29954
      21     H     0.45334  0.45334  0.00000  0.09332
      22     H     0.45455  0.45455  0.00000  0.09091
      23     H     0.44804  0.44804  0.00000  0.10391
      24     H     0.45504  0.45504  0.00000  0.08992
      25     H     0.45520  0.45520  0.00000  0.08960
      26     C     3.03856  3.03856  0.00000 -0.07712
      27     H     0.45437  0.45437  0.00000  0.09126
      28     H     0.44522  0.44522  0.00000  0.10955
      29     H     0.45415  0.45415  0.00000  0.09170

   Total alpha = 44.00000, Total beta = 44.00000, Total charge = -0.00000

*** Psi4 exiting successfully. Buy a developer a beer!
