                              Psi4 1.0.54 Driver

  ==> Input File <==

--------------------------------------------------------------------------
set {
	reference rhf
	basis cc-pvtz
}

set_num_threads( 4 )
memory 2 gb

molecule MOL {
0 1

H	 -2.624137	 -1.241064	 0.776911
O	 -2.658848	 -0.704215	 -0.000460
C	 -1.605397	 0.107680	 0.001145
C	 -0.310616	 -0.658853	 0.000791
O	 -1.718351	 1.284629	 -0.000627
C	 0.926581	 0.227233	 0.000178
H	 -0.327628	 -1.313681	 -0.864448
H	 -0.327041	 -1.313334	 0.866298
C	 2.220156	 -0.582071	 -0.000088
H	 0.899945	 0.878221	 -0.866390
H	 0.900542	 0.878581	 0.866486
C	 3.466689	 0.296012	 -0.000457
H	 2.239073	 -1.234095	 -0.869382
H	 2.239505	 -1.233985	 0.869270
H	 3.493549	 0.935857	 -0.875887
H	 4.368821	 -0.304526	 -0.001199
H	 3.494559	 0.935166	 0.875458

	symmetry c1
}
set optking {
	frozen_dihedral = ("
		1 2 3 5
	")
}

ee,wfn = optimize('scf', return_wfn=True)
oeprop( wfn, 'DIPOLE', 'QUADRUPOLE', 'MULLIKEN_CHARGES')
f=open( 'psi4out.xyz', 'w' )
f.write( "17  " )
f.write( str(ee) + "\n" )
f.write( MOL.save_string_xyz() )
f.close()
--------------------------------------------------------------------------

    Molecular point group: c1
  Charge       = 0
  Multiplicity = 1
  Basis Set: CC-PVTZ
  Basis Set:
  @DF-RHF Final Energy:  -345.02953240664004
    Total Energy =                       -345.0295324066395892
    Molecular point group: c1
  Basis Set: CC-PVTZ
  Basis Set:
  Basis Set: CC-PVTZ
  Basis Set:
  @DF-RHF Final Energy:  -345.03090658008381
    Total Energy =                       -345.0309065800836379
  Basis Set: CC-PVTZ
  Basis Set:
  Basis Set: CC-PVTZ
  Basis Set:
  @DF-RHF Final Energy:  -345.03103125537899
    Total Energy =                       -345.0310312553791618
  Basis Set: CC-PVTZ
  Basis Set:
  Basis Set: CC-PVTZ
  Basis Set:
  @DF-RHF Final Energy:  -345.03088774542397
    Total Energy =                       -345.0308877454241951
  Basis Set: CC-PVTZ
  Basis Set:
  Basis Set: CC-PVTZ
  Basis Set:
  @DF-RHF Final Energy:  -345.03104959314578
    Total Energy =                       -345.0310495931459513
  Basis Set: CC-PVTZ
  Basis Set:
  Charge       = 0
  Multiplicity = 1
  Basis Set: CC-PVTZ
  Basis Set:

    Orbital Energies (a.u.)
    -----------------------

    Doubly Occupied:

       1A    -20.590719     2A    -20.547202     3A    -11.373849
       4A    -11.245385     5A    -11.224714     6A    -11.224063
       7A    -11.213187     8A     -1.464851     9A     -1.372332
      10A     -1.095384    11A     -1.019553    12A     -0.909217
      13A     -0.828573    14A     -0.802008    15A     -0.714835
      16A     -0.676185    17A     -0.664052    18A     -0.641804
      19A     -0.599231    20A     -0.586528    21A     -0.544455
      22A     -0.542836    23A     -0.516100    24A     -0.498681
      25A     -0.483797    26A     -0.477328    27A     -0.475644
      28A     -0.445001

  @DF-RHF Final Energy:  -345.03105038555924

   => Energetics <=

    Nuclear Repulsion Energy =            304.1952363635647885
    One-Electron Energy =               -1072.8975511923977137
    Two-Electron Energy =                 423.6712644432735146
    DFT Exchange-Correlation Energy =       0.0000000000000000
    Empirical Dispersion Energy =           0.0000000000000000
    PCM Polarization Energy =               0.0000000000000000
    EFP Energy =                            0.0000000000000000
    Total Energy =                       -345.0310503855593538
    Molecular point group: c1
  Basis Set: CC-PVTZ
  Basis Set:

  -Total Gradient:
     Atom            X                  Y                   Z
    ------   -----------------  -----------------  -----------------
       1       -0.002844017846     0.004067807951     0.002718618378
       2        0.003579807910    -0.005083880209    -0.001247269258
       3       -0.000730019664     0.000864076272    -0.006404462974
       4       -0.000041702743     0.000020616075    -0.000058586713
       5        0.000012639935     0.000128143373     0.004935302346
       6        0.000007478804     0.000012133920     0.000022644240
       7        0.000004756187    -0.000000009982     0.000028649957
       8       -0.000002631443     0.000001880264     0.000025069010
       9        0.000010058338     0.000000167806    -0.000008258309
      10       -0.000000372566    -0.000004532182    -0.000000637441
      11       -0.000001876414    -0.000007352493    -0.000013613343
      12        0.000006446273    -0.000002324694     0.000004060053
      13        0.000000824117     0.000000397044    -0.000002191671
      14       -0.000001914401     0.000000353124     0.000000232718
      15        0.000000041833    -0.000000698630    -0.000001972857
      16       -0.000000107069     0.000001440613     0.000000777922
      17        0.000000588739     0.000001781749     0.000001637941

  **** Optimization is complete! (in 6 steps) ****
    Final optimized geometry and variables:
    Molecular point group: c1

    Geometry (in Angstrom), charge = 0, multiplicity = 1:

    H           -2.748248662007    -1.211792411231     0.781977971311
    O           -2.715007874956    -0.667608575880     0.013506664078
    C           -1.611717442884     0.116819348989    -0.002715670561
    C           -0.311408667402    -0.648359461390    -0.009640784663
    O           -1.706751889546     1.286399325931    -0.026920557908
    C            0.929040555984     0.233103369401    -0.002030745917
    H           -0.330979375571    -1.293981288903    -0.882047326501
    H           -0.315416459108    -1.316410136352     0.848897805723
    C            2.221510976688    -0.577961116507    -0.015286973042
    H            0.899360550810     0.893227809834    -0.861099853109
    H            0.906290972191     0.875208683852     0.871425590000
    C            3.469101289958     0.298580685233    -0.010183200445
    H            2.236651233653    -1.220176933652    -0.891857099860
    H            2.243547058938    -1.239536197156     0.846942039949
    H            3.493889143815     0.947221043319    -0.879048983815
    H            4.370364471711    -0.303090455451    -0.019877415576
    H            3.500338347924     0.928641741619     0.872150432653

  Mulliken Charges: (a.u.)
   Center  Symbol    Alpha    Beta     Spin     Total
       1     H     0.38940  0.38940  0.00000  0.22120
       2     O     4.16463  4.16463  0.00000 -0.32925
       3     C     2.80141  2.80141  0.00000  0.39718
       4     C     3.12201  3.12201  0.00000 -0.24401
       5     O     4.16236  4.16236  0.00000 -0.32473
       6     C     3.08439  3.08439  0.00000 -0.16878
       7     H     0.43540  0.43540  0.00000  0.12919
       8     H     0.45108  0.45108  0.00000  0.09785
       9     C     3.08630  3.08630  0.00000 -0.17260
      10     H     0.44325  0.44325  0.00000  0.11350
      11     H     0.44630  0.44630  0.00000  0.10739
      12     C     3.14923  3.14923  0.00000 -0.29846
      13     H     0.45431  0.45431  0.00000  0.09137
      14     H     0.45564  0.45564  0.00000  0.08873
      15     H     0.45289  0.45289  0.00000  0.09421
      16     H     0.44778  0.44778  0.00000  0.10444
      17     H     0.45361  0.45361  0.00000  0.09278

   Total alpha = 28.00000, Total beta = 28.00000, Total charge =  0.00000

*** Psi4 exiting successfully. Buy a developer a beer!
