  ==> Input File <==

--------------------------------------------------------------------------
set {
	reference rhf
	basis 6-31G*
}

set_num_threads( 4 )
memory 2 gb

molecule MOL {
0 1

H	 -2.270257	 1.560644	 -2.349089
C	 -2.978262	 1.700794	 -1.522827
C	 -2.660244	 0.921717	 -0.272021
O	 -3.912409	 2.423433	 -1.652872
C	 -1.220012	 1.144545	 0.209990
H	 -3.381879	 1.189990	 0.490856
H	 -2.799898	 -0.132604	 -0.507731
C	 -0.252658	 0.041456	 -0.226725
H	 -0.873521	 2.100229	 -0.171974
H	 -1.211708	 1.231594	 1.295398
C	 1.180775	 0.282413	 0.250794
H	 -0.266029	 -0.034465	 -1.312038
H	 -0.597733	 -0.921000	 0.146291
C	 2.148627	 -0.814315	 -0.201312
H	 1.516199	 1.249228	 -0.115937
H	 1.192670	 0.346017	 1.338083
C	 3.580890	 -0.659131	 0.322722
H	 2.166869	 -0.852443	 -1.289387
H	 1.762857	 -1.776509	 0.128956
C	 4.324889	 0.564933	 -0.213704
H	 4.142010	 -1.551473	 0.056605
H	 3.564836	 -0.624694	 1.410140
H	 4.342616	 0.565491	 -1.300421
H	 3.866655	 1.493402	 0.110242
H	 5.353900	 0.572371	 0.132816

	symmetry c1
}
set optking {
	frozen_dihedral = ("
		6 3 5 8
	")
}

ee = optimize('scf')
oeprop('DIPOLE', 'QUADRUPOLE', 'MULLIKEN_CHARGES')
f=open( 'psi4out.xyz', 'w' )
f.write( "25  " )
f.write( str(ee) + "\n" )
f.write( MOL.save_string_xyz() )
f.close()
--------------------------------------------------------------------------

    Molecular point group: c1
  Charge       = 0
  Multiplicity = 1
  Basis Set: 6-31G*
  Basis Set:
  @DF-RHF Final Energy:  -387.11828892649760
    Total Energy =                       -387.1182889264974847
    Molecular point group: c1
  Basis Set: 6-31G*
  Basis Set:
  Basis Set: 6-31G*
  Basis Set:
  @DF-RHF Final Energy:  -387.11847318832844
    Total Energy =                       -387.1184731883286076
  Basis Set: 6-31G*
  Basis Set:
  Basis Set: 6-31G*
  Basis Set:
  @DF-RHF Final Energy:  -387.11851885884840
    Total Energy =                       -387.1185188588485744
  Basis Set: 6-31G*
  Basis Set:
  Basis Set: 6-31G*
  Basis Set:
  @DF-RHF Final Energy:  -387.11868250664747
    Total Energy =                       -387.1186825066474739
  Basis Set: 6-31G*
  Basis Set:
  @DF-RHF Final Energy:  -387.11870282277869
    Total Energy =                       -387.1187028227785731
  Basis Set: 6-31G*
  Basis Set:
  @DF-RHF Final Energy:  -387.11871081221648
    Total Energy =                       -387.1187108122157952
  Basis Set: 6-31G*
  Basis Set:
  Basis Set: 6-31G*
  Basis Set:
  @DF-RHF Final Energy:  -387.11871824770373
    Total Energy =                       -387.1187182477038959
  Basis Set: 6-31G*
  Basis Set:
  Basis Set: 6-31G*
  Basis Set:
  @DF-RHF Final Energy:  -387.11872012051981
    Total Energy =                       -387.1187201205204929
  Basis Set: 6-31G*
  Basis Set:
  Charge       = 0
  Multiplicity = 1
  Basis Set: 6-31G*
  Basis Set:

    Orbital Energies (a.u.)
    -----------------------

    Doubly Occupied:

       1A    -20.561267     2A    -11.326490     3A    -11.235360
       4A    -11.234464     5A    -11.228087     6A    -11.222105
       7A    -11.220355     8A    -11.219767     9A    -11.212343
      10A     -1.401588    11A     -1.105160    12A     -1.070464
      13A     -1.014820    14A     -0.944560    15A     -0.876572
      16A     -0.820569    17A     -0.791616    18A     -0.783859
      19A     -0.668099    20A     -0.662974    21A     -0.633951
      22A     -0.620506    23A     -0.606927    24A     -0.592849
      25A     -0.571630    26A     -0.559379    27A     -0.540186
      28A     -0.521040    29A     -0.509032    30A     -0.502736
      31A     -0.485641    32A     -0.479313    33A     -0.467003
      34A     -0.461469    35A     -0.446641    36A     -0.408624

  @DF-RHF Final Energy:  -387.11872034802133

   => Energetics <=

    Nuclear Repulsion Energy =            434.1837326996252955
    One-Electron Energy =               -1384.5900171360794957
    Two-Electron Energy =                 563.2875640884323047
    DFT Exchange-Correlation Energy =       0.0000000000000000
    Empirical Dispersion Energy =           0.0000000000000000
    PCM Polarization Energy =               0.0000000000000000
    EFP Energy =                            0.0000000000000000
    Total Energy =                       -387.1187203480218386
    Molecular point group: c1
  Basis Set: 6-31G*
  Basis Set:

  -Total Gradient:
     Atom            X                  Y                   Z
    ------   -----------------  -----------------  -----------------
       1       -0.000005719649    -0.000023157982     0.000005067983
       2        0.000018569328     0.000038633591     0.000037202808
       3       -0.000214762066     0.002863760695    -0.000562843406
       4       -0.000021165586     0.000001097029    -0.000010908766
       5        0.000545975937     0.000684343403    -0.001980103082
       6        0.000072449957    -0.002527908753     0.000906852387
       7        0.000027032108    -0.000020919283     0.000012441382
       8       -0.000392531898    -0.001037834202     0.001621244628
       9       -0.000025688568    -0.000001512247    -0.000008628445
      10       -0.000012020509    -0.000000593858     0.000004591829
      11       -0.000002847439    -0.000005702423    -0.000006685059
      12        0.000012795734    -0.000008463209    -0.000001764423
      13       -0.000002992828     0.000004663262     0.000009327079
      14       -0.000003185689     0.000011872354    -0.000012726426
      15        0.000003665908     0.000002079831    -0.000002839402
      16       -0.000000463599     0.000004591789     0.000000970979
      17       -0.000003943133     0.000011903742    -0.000003338097
      18        0.000006390290     0.000016414605    -0.000005792600
      19        0.000002192225    -0.000004523460    -0.000014724722
      20        0.000006767770    -0.000017697914    -0.000004651638
      21       -0.000003241624    -0.000007860228     0.000015068303
      22       -0.000005394565     0.000020323332     0.000002007343
      23       -0.000006066509     0.000005172917    -0.000001373544
      24        0.000001848638    -0.000001298711     0.000005767788
      25        0.000002335778    -0.000007384289    -0.000004162899

  **** Optimization is complete! (in 9 steps) ****
    Final optimized geometry and variables:
    Molecular point group: c1

    Geometry (in Angstrom), charge = 0, multiplicity = 1:

    H           -2.218779621560     1.078100782057    -1.908681828121
    C           -3.002846845524     1.083184405148    -1.141764349752
    C           -2.684375777824     0.310366654362     0.112212669386
    O           -4.019625272529     1.667410612440    -1.333008352250
    C           -1.237677701586     0.525293863305     0.602858596388
    H           -3.416055918745     0.566091712035     0.868646052782
    H           -2.837178988029    -0.743910562317    -0.116835284134
    C           -0.266689886558    -0.570522682629     0.156094574076
    H           -0.873710941507     1.495908758047     0.271199443161
    H           -1.241140953224     0.567721742638     1.687640710835
    C            1.168983079106    -0.329141449711     0.625057427318
    H           -0.280228981565    -0.653496377190    -0.930094178912
    H           -0.617548458285    -1.527528703446     0.537217360351
    C            2.131678417095    -1.435722584159     0.185895490324
    H            1.507696854847     0.631540293914     0.245807850369
    H            1.182610697310    -0.251733241589     1.711219373789
    C            3.563762098456    -1.283085048505     0.711099458707
    H            2.152659109080    -1.484154501015    -0.901757889360
    H            1.740104272596    -2.392784420839     0.524441963067
    C            4.315560934487    -0.068583753934     0.163444850635
    H            4.120361216915    -2.181517433118     0.456401666584
    H            3.544767827359    -1.236672503333     1.798044877389
    H            4.338687782824    -0.081222146501    -0.922985853502
    H            3.860219524417     0.865930162486     0.474080142604
    H            5.342778759472    -0.061509346602     0.514508854567

  Mulliken Charges: (a.u.)
   Center  Symbol    Alpha    Beta     Spin     Total
       1     H     0.43160  0.43160  0.00000  0.13679
       2     C     2.83001  2.83001  0.00000  0.33998
       3     C     3.21170  3.21170  0.00000 -0.42340
       4     O     4.23942  4.23942  0.00000 -0.47884
       5     C     3.16820  3.16820  0.00000 -0.33641
       6     H     0.39624  0.39624  0.00000  0.20752
       7     H     0.40464  0.40464  0.00000  0.19073
       8     C     3.15462  3.15462  0.00000 -0.30925
       9     H     0.41601  0.41601  0.00000  0.16798
      10     H     0.41104  0.41104  0.00000  0.17792
      11     C     3.15473  3.15473  0.00000 -0.30947
      12     H     0.42325  0.42325  0.00000  0.15349
      13     H     0.42015  0.42015  0.00000  0.15970
      14     C     3.15299  3.15299  0.00000 -0.30597
      15     H     0.42008  0.42008  0.00000  0.15985
      16     H     0.42248  0.42248  0.00000  0.15503
      17     C     3.15274  3.15274  0.00000 -0.30547
      18     H     0.42367  0.42367  0.00000  0.15265
      19     H     0.42173  0.42173  0.00000  0.15653
      20     C     3.24153  3.24153  0.00000 -0.48306
      21     H     0.42002  0.42002  0.00000  0.15996
      22     H     0.42281  0.42281  0.00000  0.15437
      23     H     0.42194  0.42194  0.00000  0.15612
      24     H     0.42015  0.42015  0.00000  0.15970
      25     H     0.41823  0.41823  0.00000  0.16353

   Total alpha = 36.00000, Total beta = 36.00000, Total charge = -0.00000
