  ==> Input File <==

--------------------------------------------------------------------------
set {
	reference rhf
	basis cc-pvtz
}

set_num_threads( 4 )
memory 2 gb

molecule MOL {
0 1

H	 1.193182	 -2.070647	 -0.310385
C	 0.641838	 -1.502638	 0.430253
N	 0.526300	 -0.128137	 0.000000
H	 1.194833	 -1.551234	 1.359702
H	 -0.319956	 -1.998174	 0.578467
C	 -0.247113	 0.037112	 -1.209233
H	 0.136223	 0.425480	 0.731443
H	 -0.996493	 -0.743733	 -1.271440
H	 0.397975	 -0.057351	 -2.073512
H	 -0.763794	 0.997171	 -1.271673

	symmetry c1
}
set optking {
	frozen_dihedral = ("
		2 3 6 8
	")
}

ee = optimize('scf')
oeprop('DIPOLE', 'QUADRUPOLE', 'MULLIKEN_CHARGES')
f=open( 'psi4out.xyz', 'w' )
f.write( "10  " )
f.write( str(ee) + "\n" )
f.write( MOL.save_string_xyz() )
f.close()
--------------------------------------------------------------------------

    Molecular point group: c1
  Charge       = 0
  Multiplicity = 1
  Basis Set: CC-PVTZ
  Basis Set:
  @DF-RHF Final Energy:  -134.29017801534010
    Total Energy =                       -134.2901780153401035
    Molecular point group: c1
  Basis Set: CC-PVTZ
  Basis Set:
  Basis Set: CC-PVTZ
  Basis Set:
  @DF-RHF Final Energy:  -134.29099521978839
    Total Energy =                       -134.2909952197883001
  Basis Set: CC-PVTZ
  Basis Set:
  Basis Set: CC-PVTZ
  Basis Set:
  @DF-RHF Final Energy:  -134.29111423526780
    Total Energy =                       -134.2911142352678269
  Basis Set: CC-PVTZ
  Basis Set:
  Basis Set: CC-PVTZ
  Basis Set:
  @DF-RHF Final Energy:  -134.29111605468776
    Total Energy =                       -134.2911160546877625
  Basis Set: CC-PVTZ
  Basis Set:
  Charge       = 0
  Multiplicity = 1
  Basis Set: CC-PVTZ
  Basis Set:

    Orbital Energies (a.u.)
    -----------------------

    Doubly Occupied:

       1A    -15.532317     2A    -11.234485     3A    -11.234276
       4A     -1.199802     5A     -0.948314     6A     -0.854736
       7A     -0.661467     8A     -0.613846     9A     -0.591723
      10A     -0.540994    11A     -0.509054    12A     -0.506536
      13A     -0.364273

  @DF-RHF Final Energy:  -134.29111624424434

   => Energetics <=

    Nuclear Repulsion Energy =             84.6479320129852937
    One-Electron Energy =                -348.2944480800204019
    Two-Electron Energy =                 129.3553998227907300
    DFT Exchange-Correlation Energy =       0.0000000000000000
    Empirical Dispersion Energy =           0.0000000000000000
    PCM Polarization Energy =               0.0000000000000000
    EFP Energy =                            0.0000000000000000
    Total Energy =                       -134.2911162442443924
    Molecular point group: c1
  Basis Set: CC-PVTZ
  Basis Set:

  -Total Gradient:
     Atom            X                  Y                   Z
    ------   -----------------  -----------------  -----------------
       1       -0.000000934583    -0.000000718819     0.000000770436
       2       -0.002447187724     0.000345578435     0.001623772824
       3        0.004177294645    -0.001147553598    -0.002869252924
       4        0.000001285379    -0.000001943001     0.000003633649
       5       -0.000006434322     0.000000546676    -0.000006007834
       6       -0.004264941428     0.003086860731     0.003173227212
       7        0.000009233107     0.000004238842     0.000020142834
       8        0.002531868153    -0.002283833458    -0.001933783563
       9       -0.000001094894    -0.000007822112    -0.000002357051
      10        0.000000911669     0.000004646303    -0.000010145582

  **** Optimization is complete! (in 5 steps) ****
    Final optimized geometry and variables:
    Molecular point group: c1

    Geometry (in Angstrom), charge = 0, multiplicity = 1:

    H            0.910950203833    -1.532103723182    -0.040664446381
    C            0.362806741817    -0.956640808640     0.697037507669
    N            0.237393650284     0.414005417147     0.255113250582
    H            0.923755868005    -0.993676616757     1.622319578781
    H           -0.596665422932    -1.452033213548     0.856039404300
    C           -0.543010075287     0.571678341550    -0.956667457512
    H           -0.166612544374     0.956848887444     0.986149968079
    H           -1.313833329076    -0.190858377739    -1.069207492781
    H            0.099508199883     0.495697574941    -1.828065178829
    H           -1.009883283998     1.547471335300    -0.979835360908

  Mulliken Charges: (a.u.)
   Center  Symbol    Alpha    Beta     Spin     Total
       1     H     0.45684  0.45684  0.00000  0.08633
       2     C     3.08301  3.08301  0.00000 -0.16601
       3     N     3.62820  3.62820  0.00000 -0.25639
       4     H     0.45269  0.45269  0.00000  0.09462
       5     H     0.47355  0.47355  0.00000  0.05290
       6     C     3.07733  3.07733  0.00000 -0.15465
       7     H     0.44131  0.44131  0.00000  0.11738
       8     H     0.47526  0.47526  0.00000  0.04948
       9     H     0.45609  0.45609  0.00000  0.08782
      10     H     0.45573  0.45573  0.00000  0.08853

   Total alpha = 13.00000, Total beta = 13.00000, Total charge = -0.00000
