  ==> Input File <==

--------------------------------------------------------------------------
set {
	reference rhf
	basis cc-pvtz
}

set_num_threads( 4 )
memory 2 gb

molecule MOL {
0 1

H	 -3.986142	 -0.793368	 -0.722656
C	 -2.922734	 -0.650199	 -0.751685
C	 -2.365683	 0.194369	 -1.695105
C	 -2.113934	 -1.310378	 0.153847
H	 -2.994086	 0.706461	 -2.397651
C	 -0.999122	 0.377835	 -1.731785
H	 -2.546910	 -1.965130	 0.885081
C	 -0.745405	 -1.127707	 0.118390
H	 -0.551203	 1.027998	 -2.455467
C	 -0.183980	 -0.282359	 -0.825378
H	 -0.116210	 -1.637471	 0.818236
C	 1.286596	 -0.050491	 -0.906392
O	 1.968286	 -0.725612	 -0.000027
O	 1.798543	 0.665275	 -1.700601
C	 3.373556	 -0.568203	 0.000011
H	 3.695416	 -0.031588	 -0.879663
H	 3.782700	 -1.565294	 -0.000152
H	 3.695405	 -0.031851	 0.879862

	symmetry c1
}
set optking {
	frozen_dihedral = ("
		12 13 15 16
	")
}

ee = optimize('scf')
oeprop('DIPOLE', 'QUADRUPOLE', 'MULLIKEN_CHARGES')
f=open( 'psi4out.xyz', 'w' )
f.write( "18  " )
f.write( str(ee) + "\n" )
f.write( MOL.save_string_xyz() )
f.close()
--------------------------------------------------------------------------

    Molecular point group: c1
  Charge       = 0
  Multiplicity = 1
  Basis Set: CC-PVTZ
  Basis Set:
  @DF-RHF Final Energy:  -457.50743783498058
    Total Energy =                       -457.5074378349796689
    Molecular point group: c1
  Basis Set: CC-PVTZ
  Basis Set:
  Basis Set: CC-PVTZ
  Basis Set:
  @DF-RHF Final Energy:  -457.50769672425190
    Total Energy =                       -457.5076967242512183
  Basis Set: CC-PVTZ
  Basis Set:
  Basis Set: CC-PVTZ
  Basis Set:
  @DF-RHF Final Energy:  -457.50821080318974
    Total Energy =                       -457.5082108031895132
  Basis Set: CC-PVTZ
  Basis Set:
  Basis Set: CC-PVTZ
  Basis Set:
  @DF-RHF Final Energy:  -457.50821710821498
    Total Energy =                       -457.5082171082150353
  Basis Set: CC-PVTZ
  Basis Set:
  Basis Set: CC-PVTZ
  Basis Set:
  @DF-RHF Final Energy:  -457.50817454313830
    Total Energy =                       -457.5081745431377840
  Basis Set: CC-PVTZ
  Basis Set:
  Charge       = 0
  Multiplicity = 1
  Basis Set: CC-PVTZ
  Basis Set:

    Orbital Energies (a.u.)
    -----------------------

    Doubly Occupied:

       1A    -20.599950     2A    -20.533699     3A    -11.373217
       4A    -11.279927     5A    -11.244570     6A    -11.243196
       7A    -11.242263     8A    -11.239641     9A    -11.235701
      10A    -11.234935    11A     -1.474507    12A     -1.369082
      13A     -1.170345    14A     -1.051558    15A     -1.028664
      16A     -0.981561    17A     -0.862747    18A     -0.838047
      19A     -0.780422    20A     -0.745063    21A     -0.688383
      22A     -0.679301    23A     -0.676067    24A     -0.634295
      25A     -0.629734    26A     -0.600889    27A     -0.587592
      28A     -0.571038    29A     -0.526532    30A     -0.520022
      31A     -0.510061    32A     -0.501524    33A     -0.460307
      34A     -0.449918    35A     -0.350008    36A     -0.345865

  @DF-RHF Final Energy:  -457.50821942962392

   => Energetics <=

    Nuclear Repulsion Energy =            493.6113069112226981
    One-Electron Energy =               -1601.7177886159290665
    Two-Electron Energy =                 650.5982622750821065
    DFT Exchange-Correlation Energy =       0.0000000000000000
    Empirical Dispersion Energy =           0.0000000000000000
    PCM Polarization Energy =               0.0000000000000000
    EFP Energy =                            0.0000000000000000
    Total Energy =                       -457.5082194296242051
    Molecular point group: c1
  Basis Set: CC-PVTZ
  Basis Set:

  -Total Gradient:
     Atom            X                  Y                   Z
    ------   -----------------  -----------------  -----------------
       1       -0.000007623527     0.000000656142    -0.000001948767
       2       -0.000005995865     0.000014641463    -0.000018744882
       3       -0.000018728871    -0.000005127057     0.000005205879
       4        0.000018940585    -0.000005153941     0.000005233447
       5       -0.000003950940     0.000002315956    -0.000004871722
       6        0.000018488054     0.000000010545     0.000000716438
       7        0.000002966067     0.000000836287     0.000000468672
       8       -0.000001087804     0.000000410573     0.000003987953
       9        0.000000284279     0.000004942989    -0.000004050966
      10        0.000011841026     0.000006770430     0.000034553413
      11        0.000011856655    -0.000003428218     0.000005169511
      12        0.000021339157    -0.000579699943    -0.000466134192
      13       -0.000087956366     0.000876820501     0.000766303778
      14        0.000024251002     0.000074826713    -0.000035120480
      15        0.000043046665    -0.001063918956    -0.000661897263
      16       -0.000060184207     0.000664082829     0.000345128554
      17        0.000003095164    -0.000015425838    -0.000005750327
      18        0.000029418933     0.000026439526     0.000031750952

  **** Optimization is complete! (in 6 steps) ****
    Final optimized geometry and variables:
    Molecular point group: c1

    Geometry (in Angstrom), charge = 0, multiplicity = 1:

    H           -4.019900263436    -0.473778447381     0.025887684979
    C           -2.957638532314    -0.323554350812    -0.010461492543
    C           -2.412733963103     0.525645217640    -0.956871717072
    C           -2.137910336461    -0.979052794217     0.888568633146
    H           -3.049363606340     1.034378794978    -1.654540979731
    C           -1.047695313890     0.718209064833    -1.002874331718
    H           -2.561086869129    -1.637414676212     1.622353310065
    C           -0.770754637702    -0.787280696268     0.843688897608
    H           -0.609557871418     1.372225428290    -1.729060357461
    C           -0.221411831213     0.062545488558    -0.103067953911
    H           -0.133656155881    -1.293559199106     1.538805747024
    C            1.247971707842     0.305631628891    -0.196146605670
    O            1.932915260000    -0.367530531751     0.710431407715
    O            1.741211924746     1.026307251318    -0.997082039225
    C            3.343587278274    -0.256605921760     0.743000304315
    H            3.709412461643     0.262191046547    -0.125598431261
    H            3.745362576098    -1.257520787208     0.784676287227
    H            3.624940993554     0.283330770556     1.635979454894

  Mulliken Charges: (a.u.)
   Center  Symbol    Alpha    Beta     Spin     Total
       1     H     0.42035  0.42035  0.00000  0.15931
       2     C     3.06972  3.06972  0.00000 -0.13944
       3     C     3.07553  3.07553  0.00000 -0.15107
       4     C     3.07481  3.07481  0.00000 -0.14962
       5     H     0.42049  0.42049  0.00000  0.15902
       6     C     3.07597  3.07597  0.00000 -0.15194
       7     H     0.42199  0.42199  0.00000  0.15602
       8     C     3.08187  3.08187  0.00000 -0.16373
       9     H     0.40636  0.40636  0.00000  0.18729
      10     C     3.01859  3.01859  0.00000 -0.03718
      11     H     0.41124  0.41124  0.00000  0.17752
      12     C     2.77446  2.77446  0.00000  0.45108
      13     O     4.15019  4.15019  0.00000 -0.30038
      14     O     4.21149  4.21149  0.00000 -0.42297
      15     C     3.04244  3.04244  0.00000 -0.08488
      16     H     0.43988  0.43988  0.00000  0.12025
      17     H     0.45076  0.45076  0.00000  0.09849
      18     H     0.45388  0.45388  0.00000  0.09224

   Total alpha = 36.00000, Total beta = 36.00000, Total charge =  0.00000
