  ==> Input File <==

--------------------------------------------------------------------------
set {
	reference rhf
	basis 6-31G*
}

set_num_threads( 1 )
memory 2 gb

molecule MOL {
0 1

H	 4.594763	 3.345665	 -0.838398
C	 4.395796	 2.282338	 -0.747455
C	 3.032673	 2.028412	 -0.105120
H	 4.443626	 1.850596	 -1.742770
H	 5.196930	 1.845087	 -0.157713
C	 2.723125	 0.537233	 0.044475
H	 2.260668	 2.499768	 -0.704648
H	 3.003304	 2.501961	 0.874973
C	 1.372407	 0.251744	 0.701227
H	 2.749047	 0.060934	 -0.929235
H	 3.500720	 0.071560	 0.645753
C	 0.169600	 0.576866	 -0.172154
H	 1.299770	 -0.806576	 0.947098
H	 1.280948	 0.780172	 1.647575
C	 -1.181045	 0.701995	 0.511084
O	 0.272932	 0.711811	 -1.354321
C	 -2.285934	 -0.139295	 -0.145128
H	 -1.449051	 1.751551	 0.493206
H	 -1.071135	 0.403303	 1.551943
C	 -3.651768	 0.085446	 0.506485
H	 -2.346596	 0.110469	 -1.202272
H	 -2.034737	 -1.195320	 -0.088721
C	 -4.759797	 -0.746382	 -0.137905
H	 -3.908762	 1.140117	 0.445781
H	 -3.588286	 -0.154158	 1.565709
H	 -4.868882	 -0.505166	 -1.191300
H	 -4.548009	 -1.809175	 -0.062213
H	 -5.715422	 -0.564821	 0.343442

	symmetry c1
}
set optking {
	frozen_dihedral = ("
		10 6 3 2,
		12 15 17 21
	")
}

ee = energy('scf')
oeprop('DIPOLE', 'QUADRUPOLE', 'MULLIKEN_CHARGES')
f=open( 'psi4out.xyz', 'w' )
f.write( "28  " )
f.write( str(ee) + "\n" )
f.write( MOL.save_string_xyz() )
f.close()
--------------------------------------------------------------------------

    Molecular point group: c1

    Geometry (in Angstrom), charge = 0, multiplicity = 1:

       Center              X                  Y                   Z               Mass
    ------------   -----------------  -----------------  -----------------  -----------------
           H          4.588179819769     2.714295174812    -0.735781851997     1.007825032070
           C          4.389212819769     1.650968174812    -0.644838851997    12.000000000000
           C          3.026089819769     1.397042174812    -0.002503851997    12.000000000000
           H          4.437042819769     1.219226174812    -1.640153851997     1.007825032070
           H          5.190346819769     1.213717174812    -0.055096851997     1.007825032070
           C          2.716541819769    -0.094136825188     0.147091148003    12.000000000000
           H          2.254084819769     1.868398174812    -0.602031851997     1.007825032070
           H          2.996720819769     1.870591174812     0.977589148003     1.007825032070
           C          1.365823819769    -0.379625825188     0.803843148003    12.000000000000
           H          2.742463819769    -0.570435825188    -0.826618851997     1.007825032070
           H          3.494136819769    -0.559809825188     0.748369148003     1.007825032070
           C          0.163016819769    -0.054503825188    -0.069537851997    12.000000000000
           H          1.293186819769    -1.437945825188     1.049714148003     1.007825032070
           H          1.274364819769     0.148802174812     1.750191148003     1.007825032070
           C         -1.187628180231     0.070625174812     0.613700148003    12.000000000000
           O          0.266348819769     0.080441174812    -1.251704851997    15.994914619560
           C         -2.292517180231    -0.770664825188    -0.042511851997    12.000000000000
           H         -1.455634180231     1.120181174812     0.595822148003     1.007825032070
           H         -1.077718180231    -0.228066825188     1.654559148003     1.007825032070
           C         -3.658351180231    -0.545923825188     0.609101148003    12.000000000000
           H         -2.353179180231    -0.520900825188    -1.099655851997     1.007825032070
           H         -2.041320180231    -1.826689825188     0.013895148003     1.007825032070
           C         -4.766380180231    -1.377751825188    -0.035288851997    12.000000000000
           H         -3.915345180231     0.508747174812     0.548397148003     1.007825032070
           H         -3.594869180231    -0.785527825188     1.668325148003     1.007825032070
           H         -4.875465180231    -1.136535825188    -1.088683851997     1.007825032070
           H         -4.554592180231    -2.440544825188     0.040403148003     1.007825032070
           H         -5.722005180231    -1.196190825188     0.446058148003     1.007825032070

  Charge       = 0
  Multiplicity = 1
  Basis Set: 6-31G*
  Basis Set:

    Orbital Energies (a.u.)
    -----------------------

    Doubly Occupied:

       1A    -20.547458     2A    -11.323210     3A    -11.230851
       4A    -11.229991     5A    -11.223655     6A    -11.221103
       7A    -11.216330     8A    -11.212605     9A    -11.212022
      10A    -11.205889    11A     -1.393617    12A     -1.089052
      13A     -1.077647    14A     -1.021458    15A     -0.990906
      16A     -0.909603    17A     -0.867951    18A     -0.806610
      19A     -0.794031    20A     -0.723535    21A     -0.669333
      22A     -0.651290    23A     -0.624931    24A     -0.619450
      25A     -0.608465    26A     -0.587610    27A     -0.576951
      28A     -0.572538    29A     -0.538871    30A     -0.530208
      31A     -0.521949    32A     -0.510107    33A     -0.493251
      34A     -0.478223    35A     -0.475924    36A     -0.472139
      37A     -0.468734    38A     -0.465692    39A     -0.455231
      40A     -0.392527

  @DF-RHF Final Energy:  -426.16944691052640

   => Energetics <=

    Nuclear Repulsion Energy =            528.8448115109574701
    One-Electron Energy =               -1626.0066513467836558
    Two-Electron Energy =                 670.9923929253002370
    DFT Exchange-Correlation Energy =       0.0000000000000000
    Empirical Dispersion Energy =           0.0000000000000000
    PCM Polarization Energy =               0.0000000000000000
    EFP Energy =                            0.0000000000000000
    Total Energy =                       -426.1694469105259486

  Mulliken Charges: (a.u.)
   Center  Symbol    Alpha    Beta     Spin     Total
       1     H     0.41938  0.41938  0.00000  0.16124
       2     C     3.24006  3.24006  0.00000 -0.48012
       3     C     3.15635  3.15635  0.00000 -0.31270
       4     H     0.41829  0.41829  0.00000  0.16341
       5     H     0.42354  0.42354  0.00000  0.15293
       6     C     3.14987  3.14987  0.00000 -0.29974
       7     H     0.41065  0.41065  0.00000  0.17869
       8     H     0.42753  0.42753  0.00000  0.14493
       9     C     3.21283  3.21283  0.00000 -0.42566
      10     H     0.40654  0.40654  0.00000  0.18692
      11     H     0.42186  0.42186  0.00000  0.15627
      12     C     2.73140  2.73140  0.00000  0.53720
      13     H     0.40389  0.40389  0.00000  0.19222
      14     H     0.41169  0.41169  0.00000  0.17661
      15     C     3.20248  3.20248  0.00000 -0.40497
      16     O     4.26985  4.26985  0.00000 -0.53971
      17     C     3.15462  3.15462  0.00000 -0.30925
      18     H     0.40201  0.40201  0.00000  0.19598
      19     H     0.41586  0.41586  0.00000  0.16828
      20     C     3.15286  3.15286  0.00000 -0.30572
      21     H     0.40467  0.40467  0.00000  0.19065
      22     H     0.42034  0.42034  0.00000  0.15931
      23     C     3.23987  3.23987  0.00000 -0.47974
      24     H     0.42134  0.42134  0.00000  0.15733
      25     H     0.42366  0.42366  0.00000  0.15267
      26     H     0.41902  0.41902  0.00000  0.16195
      27     H     0.42114  0.42114  0.00000  0.15772
      28     H     0.41836  0.41836  0.00000  0.16328

   Total alpha = 40.00000, Total beta = 40.00000, Total charge = -0.00000
