                              Psi4 1.0.54 Driver

  ==> Input File <==

--------------------------------------------------------------------------
set {
	reference rhf
	basis cc-pvtz
}

set_num_threads( 4 )
memory 2 gb

molecule MOL {
0 1

O	 2.868453	 1.353349	 -0.000734
C	 2.841259	 0.166180	 -0.000295
C	 1.542794	 -0.614730	 -0.000853
C	 4.113372	 -0.651103	 0.000743
C	 0.288398	 0.247429	 0.000314
H	 1.557171	 -1.273139	 -0.866508
H	 1.557484	 -1.274998	 0.863344
C	 -0.912684	 -0.463547	 -0.616960
H	 0.488628	 1.167065	 -0.537544
H	 0.059636	 0.540783	 1.018521
C	 -2.177209	 0.390431	 -0.622183
H	 -0.675174	 -0.756961	 -1.637143
H	 -1.106374	 -1.385861	 -0.073746
C	 -3.382857	 -0.313499	 -1.238325
H	 -1.984661	 1.312500	 -1.165163
H	 -2.415888	 0.683575	 0.397241
C	 -4.642546	 0.546134	 -1.240030
H	 -3.145601	 -0.605830	 -2.257733
H	 -3.576847	 -1.234653	 -0.695405
H	 -4.491740	 1.460020	 -1.804929
H	 -5.478563	 0.017655	 -1.683659
H	 -4.926317	 0.826328	 -0.231066
H	 4.145311	 -1.294584	 -0.871587
H	 4.970080	 0.004978	 -0.000091
H	 4.145223	 -1.291980	 0.874988

	symmetry c1
}
set optking {
	frozen_dihedral = ("
		9 5 3 6
	")
}

ee,wfn = optimize('scf', return_wfn=True)
oeprop( wfn, 'DIPOLE', 'QUADRUPOLE', 'MULLIKEN_CHARGES')
f=open( 'psi4out.xyz', 'w' )
f.write( "25  " )
f.write( str(ee) + "\n" )
f.write( MOL.save_string_xyz() )
f.close()
--------------------------------------------------------------------------

    Molecular point group: c1
  Charge       = 0
  Multiplicity = 1
  Basis Set: CC-PVTZ
  Basis Set:
  @DF-RHF Final Energy:  -387.27270154151444
    Total Energy =                       -387.2727015415147207
    Molecular point group: c1
  Basis Set: CC-PVTZ
  Basis Set:
  Basis Set: CC-PVTZ
  Basis Set:
  @DF-RHF Final Energy:  -387.27288333081566
    Total Energy =                       -387.2728833308159437
  Basis Set: CC-PVTZ
  Basis Set:
  Basis Set: CC-PVTZ
  Basis Set:
  @DF-RHF Final Energy:  -387.27288940824792
    Total Energy =                       -387.2728894082479201
  Basis Set: CC-PVTZ
  Basis Set:
  Basis Set: CC-PVTZ
  Basis Set:
  @DF-RHF Final Energy:  -387.27285620729447
    Total Energy =                       -387.2728562072945806
  Basis Set: CC-PVTZ
  Basis Set:
  Basis Set: CC-PVTZ
  Basis Set:
  @DF-RHF Final Energy:  -387.27294941189029
    Total Energy =                       -387.2729494118902949
  Basis Set: CC-PVTZ
  Basis Set:
  Charge       = 0
  Multiplicity = 1
  Basis Set: CC-PVTZ
  Basis Set:

    Orbital Energies (a.u.)
    -----------------------

    Doubly Occupied:

       1A    -20.539346     2A    -11.321220     3A    -11.230140
       4A    -11.226768     5A    -11.215285     6A    -11.214121
       7A    -11.213496     8A    -11.211443     9A    -11.206414
      10A     -1.399459    11A     -1.094713    12A     -1.057399
      13A     -1.015755    14A     -0.970017    15A     -0.891795
      16A     -0.815288    17A     -0.791610    18A     -0.731656
      19A     -0.664267    20A     -0.651867    21A     -0.632988
      22A     -0.626644    23A     -0.596463    24A     -0.585169
      25A     -0.569792    26A     -0.559438    27A     -0.540688
      28A     -0.527106    29A     -0.513296    30A     -0.494868
      31A     -0.487713    32A     -0.471657    33A     -0.464349
      34A     -0.462216    35A     -0.452002    36A     -0.402550

  @DF-RHF Final Energy:  -387.27295005209601

   => Energetics <=

    Nuclear Repulsion Energy =            439.1182709874743750
    One-Electron Energy =               -1395.0844575264832201
    Two-Electron Energy =                 568.6932364869130652
    DFT Exchange-Correlation Energy =       0.0000000000000000
    Empirical Dispersion Energy =           0.0000000000000000
    PCM Polarization Energy =               0.0000000000000000
    EFP Energy =                            0.0000000000000000
    Total Energy =                       -387.2729500520957799
    Molecular point group: c1
  Basis Set: CC-PVTZ
  Basis Set:

  -Total Gradient:
     Atom            X                  Y                   Z
    ------   -----------------  -----------------  -----------------
       1       -0.000004326966    -0.000018097547    -0.000019253844
       2       -0.000012905657     0.000047518436     0.000008270041
       3        0.002326847618     0.003366007391    -0.001540675756
       4        0.000007508789    -0.000012612192     0.000001049982
       5       -0.001645689694    -0.002494844204    -0.003147620488
       6       -0.001658485274    -0.002389324286     0.001791939703
       7       -0.000011028276    -0.000007428545    -0.000024502034
       8       -0.000008798473    -0.000005684138     0.000014622618
       9        0.000994518395     0.001525183836     0.002902894094
      10       -0.000012437159    -0.000002330553     0.000013096540
      11        0.000000719701     0.000006129298     0.000007118025
      12        0.000003256940     0.000005957729     0.000002859163
      13       -0.000001905109    -0.000005799735     0.000000264031
      14        0.000002366916    -0.000003861529    -0.000010529955
      15       -0.000002608844     0.000000487755    -0.000000260651
      16        0.000005071118    -0.000001147474     0.000004948206
      17        0.000007517050     0.000003105412     0.000002633944
      18        0.000000450353    -0.000004827731    -0.000004899063
      19       -0.000000632558     0.000000723457     0.000003024661
      20       -0.000000548360     0.000002752452    -0.000002394317
      21        0.000005486069    -0.000002482053    -0.000000079852
      22       -0.000001551359     0.000001331887     0.000003124709
      23        0.000003852682    -0.000015325952    -0.000008389729
      24        0.000003933162    -0.000001415208    -0.000004517254
      25       -0.000000611056     0.000005983491     0.000007277227

  **** Optimization is complete! (in 6 steps) ****
    Final optimized geometry and variables:
    Molecular point group: c1

    Geometry (in Angstrom), charge = 0, multiplicity = 1:

    O            2.850529244956     1.278901672480     0.443498967002
    C            2.803948810417     0.092739718239     0.420037453152
    C            1.496502442514    -0.670708500237     0.368999743777
    C            4.062546098691    -0.745072836705     0.445714385510
    C            0.238264738982     0.193030080644     0.342692763554
    H            1.525919386718    -1.343717325610    -0.484729500584
    H            1.482666164193    -1.334904605056     1.230535329011
    C           -0.972180257388    -0.533654117792    -0.234223137482
    H            0.440897685390     1.104393366968    -0.205019491717
    H            0.015724700645     0.516590712951     1.354953749763
    C           -2.245450417703     0.306317600318    -0.206935746238
    H           -0.758709641777    -0.827382531251    -1.259422754208
    H           -1.140054987248    -1.456509365195     0.317091369571
    C           -3.457473815718    -0.409133200310    -0.796707053047
    H           -2.075148900281     1.231781188077    -0.751482106122
    H           -2.463595081212     0.594008161491     0.818699454005
    C           -4.726296945029     0.436339896607    -0.765386443678
    H           -3.241320919413    -0.695222920298    -1.822521785984
    H           -3.628225785759    -1.334291809841    -0.252686477127
    H           -4.599021751259     1.353774036843    -1.330313453307
    H           -5.566642998955    -0.099970920223    -1.191094923691
    H           -4.989259128493     0.709871014689     0.251060892465
    H            4.109599399929    -1.376886633211    -0.434356728073
    H            4.929103012527    -0.102893996828     0.479097576459
    H            4.058880623612    -1.397970702318     1.311561722307

  Mulliken Charges: (a.u.)
   Center  Symbol    Alpha    Beta     Spin     Total
       1     O     4.17015  4.17015  0.00000 -0.34029
       2     C     2.86063  2.86063  0.00000  0.27874
       3     C     3.11573  3.11573  0.00000 -0.23146
       4     C     3.15135  3.15135  0.00000 -0.30270
       5     C     3.08793  3.08793  0.00000 -0.17587
       6     H     0.44555  0.44555  0.00000  0.10889
       7     H     0.44376  0.44376  0.00000  0.11247
       8     C     3.09068  3.09068  0.00000 -0.18136
       9     H     0.43894  0.43894  0.00000  0.12213
      10     H     0.45175  0.45175  0.00000  0.09650
      11     C     3.08672  3.08672  0.00000 -0.17344
      12     H     0.45521  0.45521  0.00000  0.08957
      13     H     0.45570  0.45570  0.00000  0.08860
      14     C     3.08397  3.08397  0.00000 -0.16794
      15     H     0.45284  0.45284  0.00000  0.09432
      16     H     0.45432  0.45432  0.00000  0.09136
      17     C     3.15045  3.15045  0.00000 -0.30089
      18     H     0.45501  0.45501  0.00000  0.08999
      19     H     0.45538  0.45538  0.00000  0.08924
      20     H     0.45457  0.45457  0.00000  0.09086
      21     H     0.44866  0.44866  0.00000  0.10268
      22     H     0.45504  0.45504  0.00000  0.08992
      23     H     0.45031  0.45031  0.00000  0.09938
      24     H     0.43530  0.43530  0.00000  0.12941
      25     H     0.45007  0.45007  0.00000  0.09987

   Total alpha = 36.00000, Total beta = 36.00000, Total charge =  0.00000

*** Psi4 exiting successfully. Buy a developer a beer!
