  ==> Input File <==

--------------------------------------------------------------------------
set {
	reference rhf
	basis cc-pvtz
}

set_num_threads( 4 )
memory 2 gb

molecule MOL {
0 1

H	 0.368304	 0.067705	 -2.090550
C	 0.209556	 -0.484932	 -1.189482
C	 0.208240	 -1.865032	 -1.182027
C	 0.000000	 0.179985	 0.000046
H	 0.369367	 -2.400757	 -2.096659
C	 0.000003	 -2.552036	 -0.000010
N	 0.000000	 1.644631	 0.000076
C	 -0.209558	 -0.484981	 1.189546
H	 0.000000	 -3.625035	 -0.000032
C	 -0.208238	 -1.865081	 1.182036
O	 1.050559	 2.194174	 -0.000073
O	 -1.050559	 2.194174	 -0.000074
H	 -0.368297	 0.067620	 2.090638
H	 -0.369368	 -2.400843	 2.096645

	symmetry c1
}
set optking {
	frozen_dihedral = ("
		2 4 7 11
	")
}

ee = optimize('scf')
oeprop('DIPOLE', 'QUADRUPOLE', 'MULLIKEN_CHARGES')
f=open( 'psi4out.xyz', 'w' )
f.write( "14  " )
f.write( str(ee) + "\n" )
f.write( MOL.save_string_xyz() )
f.close()
--------------------------------------------------------------------------

    Molecular point group: c1
  Charge       = 0
  Multiplicity = 1
  Basis Set: CC-PVTZ
  Basis Set:
  @DF-RHF Final Energy:  -434.32010274925466
    Total Energy =                       -434.3201027492544881
    Molecular point group: c1
  Basis Set: CC-PVTZ
  Basis Set:
  Basis Set: CC-PVTZ
  Basis Set:
  @DF-RHF Final Energy:  -434.31604359824070
    Total Energy =                       -434.3160435982407535
  Basis Set: CC-PVTZ
  Basis Set:
  Basis Set: CC-PVTZ
  Basis Set:
  @DF-RHF Final Energy:  -434.31993532566599
    Total Energy =                       -434.3199353256660515
  Basis Set: CC-PVTZ
  Basis Set:
  Basis Set: CC-PVTZ
  Basis Set:
  @DF-RHF Final Energy:  -434.32038442040317
    Total Energy =                       -434.3203844204032293
  Basis Set: CC-PVTZ
  Basis Set:
  Charge       = 0
  Multiplicity = 1
  Basis Set: CC-PVTZ
  Basis Set:

    Orbital Energies (a.u.)
    -----------------------

    Doubly Occupied:

       1A    -20.598545     2A    -20.598485     3A    -15.848368
       4A    -11.308162     5A    -11.267357     6A    -11.267288
       7A    -11.260877     8A    -11.260558     9A    -11.258000
      10A     -1.645762    11A     -1.428984    12A     -1.206497
      13A     -1.096677    14A     -1.056874    15A     -0.959248
      16A     -0.874935    17A     -0.831530    18A     -0.786427
      19A     -0.740724    20A     -0.738679    21A     -0.718224
      22A     -0.651977    23A     -0.650492    24A     -0.625877
      25A     -0.561711    26A     -0.553004    27A     -0.533701
      28A     -0.500857    29A     -0.485669    30A     -0.459486
      31A     -0.371594    32A     -0.370568

  @DF-RHF Final Energy:  -434.32038534915404

   => Energetics <=

    Nuclear Repulsion Energy =            417.3133217485504360
    One-Electron Energy =               -1418.2331466014240959
    Two-Electron Energy =                 566.5994395037198501
    DFT Exchange-Correlation Energy =       0.0000000000000000
    Empirical Dispersion Energy =           0.0000000000000000
    PCM Polarization Energy =               0.0000000000000000
    EFP Energy =                            0.0000000000000000
    Total Energy =                       -434.3203853491538666
    Molecular point group: c1
  Basis Set: CC-PVTZ
  Basis Set:

  -Total Gradient:
     Atom            X                  Y                   Z
    ------   -----------------  -----------------  -----------------
       1        0.000003081486    -0.000013957836     0.000034344477
       2       -0.002227932910    -0.000108751096    -0.000455108637
       3        0.000049074669     0.000032744610    -0.000046910465
       4        0.003144316377     0.000221140179     0.001504411442
       5       -0.000011447014    -0.000002712863    -0.000007300093
       6        0.000005927600     0.000001013872     0.000022687582
       7       -0.001040442258    -0.000055604499    -0.003678458682
       8        0.000070534420    -0.000029939622     0.000072766485
       9        0.000004310120     0.000005443970    -0.000002103815
      10       -0.000068606213    -0.000008926584     0.000014171618
      11        0.000195710718     0.000004542955     0.002578927051
      12       -0.000136692550    -0.000030972182    -0.000012991389
      13        0.000004150319    -0.000016206244    -0.000032175737
      14        0.000008015235     0.000002185336     0.000007740162

  **** Optimization is complete! (in 5 steps) ****
    Final optimized geometry and variables:
    Molecular point group: c1

    Geometry (in Angstrom), charge = 0, multiplicity = 1:

    H            0.384236918803     0.070793819177    -2.094590874039
    C            0.217923254638    -0.479394047064    -1.189845871156
    C            0.205888557028    -1.860873183151    -1.182102915040
    C            0.016050669779     0.177978670145    -0.000636252082
    H            0.358921465309    -2.397311351906    -2.097917266329
    C           -0.002214991625    -2.547304137667    -0.000493969648
    N           -0.000904525551     1.643709753458    -0.003839257226
    C           -0.208831407749    -0.476303234434     1.186366018868
    H           -0.007081316358    -3.619883199453     0.000110329246
    C           -0.207134873207    -1.857636976730     1.180044296554
    O            1.046743473869     2.195905260559    -0.018517851061
    O           -1.061295624724     2.169982800310     0.027407028599
    H           -0.379782659309     0.076249409170     2.088736471646
    H           -0.370927858899    -2.391799829647     2.095330605077

  Mulliken Charges: (a.u.)
   Center  Symbol    Alpha    Beta     Spin     Total
       1     H     0.41445  0.41445  0.00000  0.17110
       2     C     3.08497  3.08497  0.00000 -0.16994
       3     C     3.06414  3.06414  0.00000 -0.12827
       4     C     2.92413  2.92413  0.00000  0.15173
       5     H     0.41735  0.41735  0.00000  0.16530
       6     C     3.07821  3.07821  0.00000 -0.15641
       7     N     3.29230  3.29230  0.00000  0.41540
       8     C     3.08450  3.08450  0.00000 -0.16900
       9     H     0.41801  0.41801  0.00000  0.16398
      10     C     3.06404  3.06404  0.00000 -0.12809
      11     O     4.16321  4.16321  0.00000 -0.32643
      12     O     4.16300  4.16300  0.00000 -0.32601
      13     H     0.41433  0.41433  0.00000  0.17134
      14     H     0.41735  0.41735  0.00000  0.16530

   Total alpha = 32.00000, Total beta = 32.00000, Total charge = -0.00000
