  ==> Input File <==

--------------------------------------------------------------------------
set {
	reference rhf
	basis 6-31G*
}

set_num_threads( 1 )
memory 2 gb

molecule MOL {
0 1

H	 0.104242	 -3.440490	 0.728760
O	 0.647716	 -2.667439	 0.611360
C	 -0.156833	 -1.617423	 0.448313
C	 0.624473	 -0.343591	 0.253101
O	 -1.340131	 -1.720482	 0.462420
C	 -0.265902	 0.883932	 0.072916
H	 1.288000	 -0.244962	 1.105965
H	 1.269482	 -0.490862	 -0.609469
C	 -1.728698	 0.646073	 0.462102
H	 -0.209144	 1.219470	 -0.958188
H	 0.135059	 1.692851	 0.673903
C	 -2.482460	 -0.343073	 -0.431425
H	 -2.245265	 1.602650	 0.432430
H	 -1.779332	 0.308348	 1.496285
C	 -3.960546	 -0.461025	 -0.060175
H	 -2.395034	 -0.026811	 -1.468912
H	 -2.024850	 -1.327147	 -0.371646
H	 -4.472726	 -1.168004	 -0.705284
H	 -4.465146	 0.496508	 -0.151489
H	 -4.081218	 -0.800940	 0.964585

	symmetry c1
}
set optking {
	frozen_dihedral = ("
		16 12 9 6,
		12 9 6 10,
		5 3 4 7,
		1 2 3 5
	")
}

ee = energy('scf')
oeprop('DIPOLE', 'QUADRUPOLE', 'MULLIKEN_CHARGES')
f=open( 'psi4out.xyz', 'w' )
f.write( "20  " )
f.write( str(ee) + "\n" )
f.write( MOL.save_string_xyz() )
f.close()
--------------------------------------------------------------------------

    Molecular point group: c1

    Geometry (in Angstrom), charge = 0, multiplicity = 1:

       Center              X                  Y                   Z               Mass
    ------------   -----------------  -----------------  -----------------  -----------------
           H          1.187411432847    -2.689289561974     0.493939495004     1.007825032070
           O          1.730885432847    -1.916238561974     0.376539495004    15.994914619560
           C          0.926336432847    -0.866222561974     0.213492495004    12.000000000000
           C          1.707642432847     0.407609438026     0.018280495004    12.000000000000
           O         -0.256961567153    -0.969281561974     0.227599495004    15.994914619560
           C          0.817267432847     1.635132438026    -0.161904504996    12.000000000000
           H          2.371169432847     0.506238438026     0.871144495004     1.007825032070
           H          2.352651432847     0.260338438026    -0.844289504996     1.007825032070
           C         -0.645528567153     1.397273438026     0.227281495004    12.000000000000
           H          0.874025432847     1.970670438026    -1.193008504996     1.007825032070
           H          1.218228432847     2.444051438026     0.439082495004     1.007825032070
           C         -1.399290567153     0.408127438026    -0.666245504996    12.000000000000
           H         -1.162095567153     2.353850438026     0.197609495004     1.007825032070
           H         -0.696162567153     1.059548438026     1.261464495004     1.007825032070
           C         -2.877376567153     0.290175438026    -0.294995504996    12.000000000000
           H         -1.311864567153     0.724389438026    -1.703732504996     1.007825032070
           H         -0.941680567153    -0.575946561974    -0.606466504996     1.007825032070
           H         -3.389556567153    -0.416803561974    -0.940104504996     1.007825032070
           H         -3.381976567153     1.247708438026    -0.386309504996     1.007825032070
           H         -2.998048567153    -0.049739561974     0.729764495004     1.007825032070

  Charge       = 0
  Multiplicity = 1
  Basis Set: 6-31G*
  Basis Set:

    Orbital Energies (a.u.)
    -----------------------

    Doubly Occupied:

       1A    -20.626645     2A    -20.564696     3A    -11.399739
       4A    -11.249499     5A    -11.222897     6A    -11.196856
       7A    -11.178915     8A    -11.138463     9A     -1.505325
      10A     -1.408121    11A     -1.090287    12A     -1.033528
      13A     -0.944615    14A     -0.870163    15A     -0.859529
      16A     -0.780070    17A     -0.733727    18A     -0.704742
      19A     -0.675054    20A     -0.637032    21A     -0.612851
      22A     -0.577999    23A     -0.557254    24A     -0.544006
      25A     -0.534413    26A     -0.523700    27A     -0.507462
      28A     -0.484529    29A     -0.463444    30A     -0.437623
      31A     -0.423728    32A     -0.311830

  @DF-RHF Final Energy:  -383.76853573486693

   => Energetics <=

    Nuclear Repulsion Energy =            412.5992794981811471
    One-Electron Energy =               -1341.1382296853571461
    Two-Electron Energy =                 544.7704144523095238
    DFT Exchange-Correlation Energy =       0.0000000000000000
    Empirical Dispersion Energy =           0.0000000000000000
    PCM Polarization Energy =               0.0000000000000000
    EFP Energy =                            0.0000000000000000
    Total Energy =                       -383.7685357348664184

  Mulliken Charges: (a.u.)
   Center  Symbol    Alpha    Beta     Spin     Total
       1     H     0.26699  0.26699  0.00000  0.46602
       2     O     4.34656  4.34656  0.00000 -0.69312
       3     C     2.62383  2.62383  0.00000  0.75235
       4     C     3.21460  3.21460  0.00000 -0.42919
       5     O     4.27762  4.27762  0.00000 -0.55523
       6     C     3.15922  3.15922  0.00000 -0.31844
       7     H     0.39148  0.39148  0.00000  0.21704
       8     H     0.39123  0.39123  0.00000  0.21754
       9     C     3.16009  3.16009  0.00000 -0.32018
      10     H     0.41344  0.41344  0.00000  0.17312
      11     H     0.41494  0.41494  0.00000  0.17012
      12     C     3.17918  3.17918  0.00000 -0.35835
      13     H     0.42201  0.42201  0.00000  0.15597
      14     H     0.42574  0.42574  0.00000  0.14852
      15     C     3.23067  3.23067  0.00000 -0.46134
      16     H     0.45224  0.45224  0.00000  0.09552
      17     H     0.33991  0.33991  0.00000  0.32017
      18     H     0.42772  0.42772  0.00000  0.14457
      19     H     0.43117  0.43117  0.00000  0.13766
      20     H     0.43137  0.43137  0.00000  0.13726

   Total alpha = 32.00000, Total beta = 32.00000, Total charge =  0.00000
