  ==> Input File <==

--------------------------------------------------------------------------
set {
	reference rhf
	basis 6-31G*
}

set_num_threads( 4 )
memory 2 gb

molecule MOL {
0 1

H	 -4.236494	 0.538104	 0.039757
O	 -3.517110	 -0.026191	 -0.205115
C	 -2.306886	 0.532354	 0.237577
C	 -1.177863	 -0.397191	 -0.171080
H	 -2.156308	 1.517575	 -0.201710
H	 -2.315015	 0.655684	 1.319734
C	 0.198102	 0.111031	 0.262842
H	 -1.208843	 -0.518759	 -1.250427
H	 -1.368741	 -1.376554	 0.258909
C	 1.331804	 -0.827780	 -0.158768
H	 0.361943	 1.100838	 -0.156218
H	 0.217265	 0.229072	 1.345532
C	 2.723619	 -0.410569	 0.329459
H	 1.342964	 -0.912588	 -1.244120
H	 1.116806	 -1.824343	 0.220779
C	 2.997067	 -0.711575	 1.804232
H	 2.839320	 0.657901	 0.164918
H	 3.480240	 -0.894957	 -0.284591
H	 2.248057	 -0.249790	 2.442023
H	 2.994630	 -1.777022	 2.009156
H	 3.967009	 -0.325751	 2.102738

	symmetry c1
}
set optking {
	frozen_dihedral = ("
		16 13 10 14
	")
}

ee = optimize('scf')
oeprop('DIPOLE', 'QUADRUPOLE', 'MULLIKEN_CHARGES')
f=open( 'psi4out.xyz', 'w' )
f.write( "21  " )
f.write( str(ee) + "\n" )
f.write( MOL.save_string_xyz() )
f.close()
--------------------------------------------------------------------------

    Molecular point group: c1
  Charge       = 0
  Multiplicity = 1
  Basis Set: 6-31G*
  Basis Set:
  @DF-RHF Final Energy:  -310.21202895526091
    Total Energy =                       -310.2120289552610757
    Molecular point group: c1
  Basis Set: 6-31G*
  Basis Set:
  Basis Set: 6-31G*
  Basis Set:
  @DF-RHF Final Energy:  -310.21233845333882
    Total Energy =                       -310.2123384533385320
  Basis Set: 6-31G*
  Basis Set:
  Basis Set: 6-31G*
  Basis Set:
  @DF-RHF Final Energy:  -310.21238465756505
    Total Energy =                       -310.2123846575650532
  Basis Set: 6-31G*
  Basis Set:
  Basis Set: 6-31G*
  Basis Set:
  @DF-RHF Final Energy:  -310.21238915215304
    Total Energy =                       -310.2123891521533778
  Basis Set: 6-31G*
  Basis Set:
  Basis Set: 6-31G*
  Basis Set:
  @DF-RHF Final Energy:  -310.21239439886642
    Total Energy =                       -310.2123943988668771
  Basis Set: 6-31G*
  Basis Set:
  Charge       = 0
  Multiplicity = 1
  Basis Set: 6-31G*
  Basis Set:

    Orbital Energies (a.u.)
    -----------------------

    Doubly Occupied:

       1A    -20.551866     2A    -11.267108     3A    -11.215968
       4A    -11.215014     5A    -11.213421     6A    -11.210685
       7A    -11.208272     8A     -1.358689     9A     -1.086046
      10A     -1.033360    11A     -0.954816    12A     -0.873852
      13A     -0.806371    14A     -0.781988    15A     -0.692579
      16A     -0.661279    17A     -0.618804    18A     -0.610642
      19A     -0.586408    20A     -0.567437    21A     -0.537175
      22A     -0.520507    23A     -0.509543    24A     -0.487175
      25A     -0.479543    26A     -0.461860    27A     -0.455157
      28A     -0.442912    29A     -0.434016

  @DF-RHF Final Energy:  -310.21239508820588

   => Energetics <=

    Nuclear Repulsion Energy =            311.9553851287920452
    One-Electron Energy =               -1038.6505747144503857
    Two-Electron Energy =                 416.4827944974522325
    DFT Exchange-Correlation Energy =       0.0000000000000000
    Empirical Dispersion Energy =           0.0000000000000000
    PCM Polarization Energy =               0.0000000000000000
    EFP Energy =                            0.0000000000000000
    Total Energy =                       -310.2123950882061081
    Molecular point group: c1
  Basis Set: 6-31G*
  Basis Set:

  -Total Gradient:
     Atom            X                  Y                   Z
    ------   -----------------  -----------------  -----------------
       1       -0.000001867710    -0.000000468767    -0.000000968840
       2       -0.000004134967     0.000001978714     0.000001359425
       3        0.000001630949     0.000002171892    -0.000012660479
       4       -0.000001302318     0.000006732331    -0.000005149059
       5       -0.000001515456     0.000004516583     0.000002353925
       6        0.000001865299    -0.000004218964    -0.000003069733
       7       -0.000003179263    -0.000000677343    -0.000006102793
       8       -0.000006367906    -0.000002593764     0.000002750591
       9        0.000004283084     0.000000052691     0.000005428572
      10       -0.000468129976     0.001868695603    -0.000338123424
      11       -0.000018908541    -0.000007755702     0.000000893193
      12        0.000015286669    -0.000002676070     0.000004630487
      13       -0.000631821867     0.001324769962     0.000551488153
      14        0.000566785483    -0.001902151115     0.000146231841
      15        0.000020963523     0.000007878647     0.000016214971
      16        0.000543770245    -0.001293180832    -0.000355958528
      17       -0.000043623885    -0.000024478966     0.000010359374
      18        0.000029470549     0.000014886031    -0.000025776488
      19        0.000004944642     0.000008891385     0.000013118876
      20       -0.000011863734     0.000009957697    -0.000007672638
      21        0.000003715187    -0.000012330014     0.000000652576

  **** Optimization is complete! (in 6 steps) ****
    Final optimized geometry and variables:
    Molecular point group: c1

    Geometry (in Angstrom), charge = 0, multiplicity = 1:

    H           -4.199558351541     0.787811434329    -0.299372340965
    O           -3.480008426792     0.224822505662    -0.546776792701
    C           -2.274054120301     0.760899330808    -0.066278459555
    C           -1.144541985241    -0.165294761931    -0.481148080067
    H           -2.108196592812     1.757124633412    -0.474116123890
    H           -2.301175945153     0.853108525213     1.018664998686
    C            0.226996752643     0.320123683616    -0.009436055946
    H           -1.157628908033    -0.256976408612    -1.563755900121
    H           -1.349453635065    -1.154699454632    -0.081593395712
    C            1.364418253839    -0.608643016388    -0.440913574695
    H            0.415125824398     1.317523079629    -0.403915634886
    H            0.221321530592     0.416255248727     1.074181590792
    C            2.757525742554    -0.159951978190     0.020307367999
    H            1.359900583236    -0.699466996534    -1.524726085801
    H            1.172004242403    -1.611318418251    -0.062377975284
    C            3.050686603709    -0.451617326411     1.493235385835
    H            2.881361919654     0.902862424206    -0.176125618848
    H            3.505487584766    -0.667384920043    -0.583857779549
    H            2.359245768423     0.060926756710     2.154931796703
    H            2.976746273584    -1.515779642639     1.698494446367
    H            4.053621773758    -0.132642935537     1.760168157461

  Mulliken Charges: (a.u.)
   Center  Symbol    Alpha    Beta     Spin     Total
       1     H     0.28117  0.28117  0.00000  0.43766
       2     O     4.37179  4.37179  0.00000 -0.74358
       3     C     2.98975  2.98975  0.00000  0.02051
       4     C     3.15912  3.15912  0.00000 -0.31825
       5     H     0.43283  0.43283  0.00000  0.13433
       6     H     0.43294  0.43294  0.00000  0.13413
       7     C     3.16107  3.16107  0.00000 -0.32214
       8     H     0.41481  0.41481  0.00000  0.17039
       9     H     0.41467  0.41467  0.00000  0.17067
      10     C     3.15275  3.15275  0.00000 -0.30551
      11     H     0.42368  0.42368  0.00000  0.15264
      12     H     0.42227  0.42227  0.00000  0.15546
      13     C     3.15354  3.15354  0.00000 -0.30709
      14     H     0.42052  0.42052  0.00000  0.15895
      15     H     0.42286  0.42286  0.00000  0.15429
      16     C     3.24027  3.24027  0.00000 -0.48054
      17     H     0.42318  0.42318  0.00000  0.15364
      18     H     0.42051  0.42051  0.00000  0.15898
      19     H     0.42141  0.42141  0.00000  0.15718
      20     H     0.42142  0.42142  0.00000  0.15716
      21     H     0.41944  0.41944  0.00000  0.16111

   Total alpha = 29.00000, Total beta = 29.00000, Total charge = -0.00000
