  ==> Input File <==

--------------------------------------------------------------------------
set {
	reference rhf
	basis cc-pvtz
}

set_num_threads( 4 )
memory 2 gb

molecule MOL {
0 1

H	 -2.581819	 2.447025	 0.252214
O	 -1.898050	 1.852222	 0.005503
C	 -2.302264	 0.528872	 0.237390
C	 -1.175688	 -0.398187	 -0.171891
H	 -2.539456	 0.382003	 1.289028
H	 -3.198092	 0.298513	 -0.335548
C	 0.196029	 0.106276	 0.266738
H	 -1.201873	 -0.515469	 -1.250677
H	 -1.365975	 -1.378728	 0.252664
C	 1.330220	 -0.826136	 -0.155230
H	 0.359542	 1.097229	 -0.145561
H	 0.212134	 0.218135	 1.348778
C	 2.719700	 -0.407669	 0.328325
H	 1.339388	 -0.911200	 -1.239363
H	 1.119001	 -1.821953	 0.224128
C	 3.241564	 0.893452	 -0.276737
H	 3.418299	 -1.204729	 0.093035
H	 2.711776	 -0.323368	 1.411960
H	 3.254204	 0.841071	 -1.360784
H	 2.634460	 1.745075	 0.005842
H	 4.254264	 1.092401	 0.054971

	symmetry c1
}
set optking {
	frozen_dihedral = ("
		2 3 4 8
	")
}

ee = optimize('scf')
oeprop('DIPOLE', 'QUADRUPOLE', 'MULLIKEN_CHARGES')
f=open( 'psi4out.xyz', 'w' )
f.write( "21  " )
f.write( str(ee) + "\n" )
f.write( MOL.save_string_xyz() )
f.close()
--------------------------------------------------------------------------

    Molecular point group: c1
  Charge       = 0
  Multiplicity = 1
  Basis Set: CC-PVTZ
  Basis Set:
  @DF-RHF Final Energy:  -310.33028942104409
    Total Energy =                       -310.3302894210436875
    Molecular point group: c1
  Basis Set: CC-PVTZ
  Basis Set:
  Basis Set: CC-PVTZ
  Basis Set:
  @DF-RHF Final Energy:  -310.33085919795843
    Total Energy =                       -310.3308591979583753
  Basis Set: CC-PVTZ
  Basis Set:
  Basis Set: CC-PVTZ
  Basis Set:
  @DF-RHF Final Energy:  -310.33111190594832
    Total Energy =                       -310.3311119059482053
  Basis Set: CC-PVTZ
  Basis Set:
  Basis Set: CC-PVTZ
  Basis Set:
  @DF-RHF Final Energy:  -310.33112179459505
    Total Energy =                       -310.3311217945945373
  Basis Set: CC-PVTZ
  Basis Set:
  Charge       = 0
  Multiplicity = 1
  Basis Set: CC-PVTZ
  Basis Set:

    Orbital Energies (a.u.)
    -----------------------

    Doubly Occupied:

       1A    -20.546120     2A    -11.266283     3A    -11.210763
       4A    -11.208457     5A    -11.206225     6A    -11.203089
       7A    -11.200681     8A     -1.364185     9A     -1.081353
      10A     -1.030079    11A     -0.953847    12A     -0.875954
      13A     -0.801159    14A     -0.773376    15A     -0.704655
      16A     -0.649266    17A     -0.623080    18A     -0.602363
      19A     -0.587593    20A     -0.563334    21A     -0.539177
      22A     -0.520254    23A     -0.500337    24A     -0.494987
      25A     -0.478294    26A     -0.457024    27A     -0.449130
      28A     -0.440082    29A     -0.431249

  @DF-RHF Final Energy:  -310.33112098147137

   => Energetics <=

    Nuclear Repulsion Energy =            318.2309397188115554
    One-Electron Energy =               -1051.5993277770510304
    Two-Electron Energy =                 423.0372670767681029
    DFT Exchange-Correlation Energy =       0.0000000000000000
    Empirical Dispersion Energy =           0.0000000000000000
    PCM Polarization Energy =               0.0000000000000000
    EFP Energy =                            0.0000000000000000
    Total Energy =                       -310.3311209814713720
    Molecular point group: c1
  Basis Set: CC-PVTZ
  Basis Set:

  -Total Gradient:
     Atom            X                  Y                   Z
    ------   -----------------  -----------------  -----------------
       1        0.000003986675     0.000042786049     0.000004917900
       2        0.001476255749     0.000131914919     0.003535256093
       3       -0.002574507110    -0.001278665804    -0.004513071665
       4        0.003989979426     0.005111290276     0.000515554223
       5       -0.000027721916     0.000011832436    -0.000000293035
       6        0.000001539919     0.000064487498    -0.000014149312
       7       -0.000093584717    -0.000026856319    -0.000059858557
       8       -0.002830598587    -0.004053908955     0.000549558044
       9        0.000008533190    -0.000071302915    -0.000013213193
      10        0.000031266942     0.000029955357    -0.000018927090
      11       -0.000045957941    -0.000006131403    -0.000024027517
      12        0.000022868549     0.000005673277    -0.000000908976
      13       -0.000015947639     0.000021398075     0.000060871924
      14       -0.000013121614     0.000043824413     0.000005811749
      15        0.000000834380    -0.000001058662    -0.000023953636
      16        0.000018960897    -0.000008262679    -0.000017482260
      17       -0.000003083579    -0.000005463976     0.000018347387
      18       -0.000002961190     0.000015779031     0.000012031193
      19       -0.000006506198     0.000010334879    -0.000011197362
      20        0.000058161082    -0.000020011354     0.000003752145
      21        0.000001603679    -0.000017614143    -0.000009018054

  **** Optimization is complete! (in 5 steps) ****
    Final optimized geometry and variables:
    Molecular point group: c1

    Geometry (in Angstrom), charge = 0, multiplicity = 1:

    H           -2.994396053821     2.108522181486     0.241666639029
    O           -2.263755443277     1.572370372831    -0.004398950128
    C           -2.566705037280     0.218795358288     0.213155649521
    C           -1.404049499271    -0.652812988337    -0.236223682548
    H           -2.751769457912     0.052878163505     1.272775194374
    H           -3.466268387092    -0.066641933522    -0.325171927596
    C           -0.032062489231    -0.166343198036     0.217324874027
    H           -1.437173363674    -0.774177925196    -1.315076682217
    H           -1.583657046210    -1.647899492818     0.165659521297
    C            1.087267739250    -1.124263712908    -0.185911981139
    H            0.146243099879     0.817836141527    -0.192411465885
    H           -0.034066479514    -0.052436702350     1.299422054684
    C            2.479456638187    -0.723915330198     0.305821823769
    H            1.105944854095    -1.218700598305    -1.269521393832
    H            0.858566202309    -2.114442865719     0.199666973231
    C            3.032757088125     0.554917731765    -0.318307062177
    H            3.165650845134    -1.538568537208     0.094565974642
    H            2.460352172876    -0.617826265294     1.387423882135
    H            3.057806364176     0.479915819470    -1.400815845827
    H            2.437191255569     1.422191550393    -0.061340419557
    H            4.044979012338     0.741726011929     0.022270804333

  Mulliken Charges: (a.u.)
   Center  Symbol    Alpha    Beta     Spin     Total
       1     H     0.39640  0.39640  0.00000  0.20719
       2     O     4.19634  4.19634  0.00000 -0.39269
       3     C     2.97379  2.97379  0.00000  0.05241
       4     C     3.09345  3.09345  0.00000 -0.18690
       5     H     0.47312  0.47312  0.00000  0.05376
       6     H     0.46625  0.46625  0.00000  0.06750
       7     C     3.08899  3.08899  0.00000 -0.17798
       8     H     0.45314  0.45314  0.00000  0.09372
       9     H     0.45667  0.45667  0.00000  0.08666
      10     C     3.09502  3.09502  0.00000 -0.19003
      11     H     0.44005  0.44005  0.00000  0.11990
      12     H     0.45793  0.45793  0.00000  0.08413
      13     C     3.08947  3.08947  0.00000 -0.17894
      14     H     0.45482  0.45482  0.00000  0.09036
      15     H     0.45171  0.45171  0.00000  0.09658
      16     C     3.15200  3.15200  0.00000 -0.30400
      17     H     0.44971  0.44971  0.00000  0.10058
      18     H     0.45566  0.45566  0.00000  0.08868
      19     H     0.45553  0.45553  0.00000  0.08893
      20     H     0.45203  0.45203  0.00000  0.09594
      21     H     0.44791  0.44791  0.00000  0.10419

   Total alpha = 29.00000, Total beta = 29.00000, Total charge = -0.00000
