  ==> Input File <==

--------------------------------------------------------------------------
set {
	reference rhf
	basis 6-31G*
}

set_num_threads( 4 )
memory 2 gb

molecule MOL {
0 1

O	 2.862325	 1.357334	 0.000267
C	 2.843464	 0.164689	 -0.000222
C	 1.546494	 -0.624492	 -0.000609
C	 4.124123	 -0.644674	 -0.000428
C	 0.291004	 0.242674	 0.000989
H	 1.557904	 -1.283758	 -0.867573
H	 1.558622	 -1.285963	 0.864672
C	 -0.994322	 -0.586602	 0.000262
H	 0.309117	 0.896430	 -0.865270
H	 0.309661	 0.894078	 0.869017
C	 -2.259874	 0.272531	 0.000494
H	 -1.004862	 -1.240012	 -0.870939
H	 -1.005220	 -1.241071	 0.870675
C	 -2.108229	 1.573963	 -0.788994
H	 -2.535951	 0.505518	 1.027391
H	 -3.085709	 -0.303953	 -0.412616
C	 -3.376426	 2.426801	 -0.783932
H	 -1.283770	 2.151633	 -0.376211
H	 -1.833740	 1.342305	 -1.816052
H	 -3.658429	 2.703825	 0.227938
H	 -3.237633	 3.342272	 -1.350810
H	 -4.212027	 1.889214	 -1.223156
H	 4.165367	 -1.288615	 -0.874074
H	 4.976217	 0.020734	 -0.001915
H	 4.166763	 -1.286207	 0.874930

	symmetry c1
}
set optking {
	frozen_dihedral = ("
		15 11 8 12
	")
}

ee = optimize('scf')
oeprop('DIPOLE', 'QUADRUPOLE', 'MULLIKEN_CHARGES')
f=open( 'psi4out.xyz', 'w' )
f.write( "25  " )
f.write( str(ee) + "\n" )
f.write( MOL.save_string_xyz() )
f.close()
--------------------------------------------------------------------------

    Molecular point group: c1
  Charge       = 0
  Multiplicity = 1
  Basis Set: 6-31G*
  Basis Set:
  @DF-RHF Final Energy:  -387.12920925245135
    Total Energy =                       -387.1292092524512327
    Molecular point group: c1
  Basis Set: 6-31G*
  Basis Set:
  Basis Set: 6-31G*
  Basis Set:
  @DF-RHF Final Energy:  -387.13035751372848
    Total Energy =                       -387.1303575137291091
  Basis Set: 6-31G*
  Basis Set:
  Basis Set: 6-31G*
  Basis Set:
  @DF-RHF Final Energy:  -387.13191984058960
    Total Energy =                       -387.1319198405900579
  Basis Set: 6-31G*
  Basis Set:
  Basis Set: 6-31G*
  Basis Set:
  @DF-RHF Final Energy:  -387.13205848804546
    Total Energy =                       -387.1320584880452316
  Basis Set: 6-31G*
  Basis Set:
  @DF-RHF Final Energy:  -387.13202943719352
    Total Energy =                       -387.1320294371934096
  @DF-RHF Final Energy:  -387.13197506400621
    Total Energy =                       -387.1319750640060420
  Basis Set: 6-31G*
  Basis Set:
  @DF-RHF Final Energy:  -387.13207576452714
    Total Energy =                       -387.1320757645271442
  Basis Set: 6-31G*
  Basis Set:
  Basis Set: 6-31G*
  Basis Set:
  @DF-RHF Final Energy:  -387.13207659375848
    Total Energy =                       -387.1320765937579154
  Basis Set: 6-31G*
  Basis Set:
  Basis Set: 6-31G*
  Basis Set:
  @DF-RHF Final Energy:  -387.13208226134441
    Total Energy =                       -387.1320822613444079
  Basis Set: 6-31G*
  Basis Set:
  Charge       = 0
  Multiplicity = 1
  Basis Set: 6-31G*
  Basis Set:

    Orbital Energies (a.u.)
    -----------------------

    Doubly Occupied:

       1A    -20.550535     2A    -11.326358     3A    -11.231892
       4A    -11.228385     5A    -11.217291     6A    -11.216462
       7A    -11.213960     8A    -11.213000     9A    -11.206911
      10A     -1.395827    11A     -1.092674    12A     -1.054223
      13A     -1.013002    14A     -0.968726    15A     -0.889088
      16A     -0.833404    17A     -0.770945    18A     -0.731056
      19A     -0.657093    20A     -0.650498    21A     -0.632074
      22A     -0.622666    23A     -0.597235    24A     -0.580732
      25A     -0.570543    26A     -0.561252    27A     -0.550137
      28A     -0.517064    29A     -0.503548    30A     -0.498740
      31A     -0.488613    32A     -0.480461    33A     -0.458575
      34A     -0.451935    35A     -0.448138    36A     -0.399973

  @DF-RHF Final Energy:  -387.13208307471359

   => Energetics <=

    Nuclear Repulsion Energy =            445.5546797142432069
    One-Electron Energy =               -1407.7274986439440454
    Two-Electron Energy =                 575.0407358549869059
    DFT Exchange-Correlation Energy =       0.0000000000000000
    Empirical Dispersion Energy =           0.0000000000000000
    PCM Polarization Energy =               0.0000000000000000
    EFP Energy =                            0.0000000000000000
    Total Energy =                       -387.1320830747139325
    Molecular point group: c1
  Basis Set: 6-31G*
  Basis Set:

  -Total Gradient:
     Atom            X                  Y                   Z
    ------   -----------------  -----------------  -----------------
       1       -0.000002228193     0.000003143917    -0.000003218180
       2       -0.000002622384     0.000000783101     0.000001659339
       3        0.000000255294    -0.000000119327     0.000002361330
       4       -0.000002033351    -0.000002486451     0.000006334469
       5        0.000003041210    -0.000003271542    -0.000003485147
       6       -0.000004270783     0.000000359350     0.000001388958
       7        0.000003001242     0.000000194833     0.000003194429
       8        0.002246105619     0.003767903228    -0.003572886465
       9       -0.000000967487     0.000011954636    -0.000005796898
      10        0.000000373416    -0.000015041810    -0.000003509457
      11        0.003130099657     0.004701934235     0.000370033324
      12       -0.002376425492    -0.003921401421     0.002932282476
      13       -0.000008391862     0.000001177441     0.000006620181
      14        0.000009853070     0.000016286367     0.000027809728
      15       -0.002985747987    -0.004539683044     0.000247747783
      16       -0.000005109092    -0.000006361076    -0.000000323299
      17       -0.000002445784    -0.000008844386    -0.000006855178
      18       -0.000003328505     0.000005660136    -0.000001245810
      19        0.000000328294    -0.000007899381     0.000007193477
      20        0.000004188417     0.000000351322    -0.000001411525
      21        0.000001393869    -0.000003092308    -0.000001711769
      22       -0.000003860265    -0.000001318852     0.000000686074
      23        0.000000573789     0.000000545261    -0.000003254184
      24       -0.000002255014     0.000000997546    -0.000001018222
      25        0.000000472320    -0.000001771772    -0.000002595435

  **** Optimization is complete! (in 10 steps) ****
    Final optimized geometry and variables:
    Molecular point group: c1

    Geometry (in Angstrom), charge = 0, multiplicity = 1:

    O            2.660280590048     0.807898731969     0.193224710752
    C            2.583071330230    -0.382393543307     0.203538707815
    C            1.249566272874    -1.107600395398     0.175566610518
    C            3.822138392821    -1.253037792784     0.245902549299
    C            0.038823576682    -0.179454982649     0.137643671187
    H            1.250393626827    -1.773387450140    -0.686600690378
    H            1.207550288936    -1.762051455131     1.045108195812
    C           -1.277431542636    -0.957047015384     0.098024594451
    H            0.124694310889     0.472197210953    -0.723816594483
    H            0.060358486589     0.467798303207     1.009265792758
    C           -2.560198543090    -0.110377144321     0.184162760240
    H           -1.321086425993    -1.591586214067    -0.785534607819
    H           -1.291817772940    -1.655441094960     0.933749124060
    C           -2.571982084053     1.184074697035    -0.630519198579
    H           -2.788426677115     0.096704954370     1.227946299237
    H           -3.385730869106    -0.734063797403    -0.155252343157
    C           -3.928836269791     1.886623200788    -0.586444023798
    H           -1.808323838212     1.863740794184    -0.264675693399
    H           -2.315237022717     0.962316119497    -1.664691136572
    H           -4.204108717604     2.142027221008     0.433081440706
    H           -3.914234643958     2.805464413928    -1.164368339396
    H           -4.713434739144     1.253218521011    -0.990782569485
    H            3.854485550263    -1.908615224851    -0.619423809507
    H            4.705536846007    -0.629958698114     0.259960064778
    H            3.810560468348    -1.885391328180     1.128873383615

  Mulliken Charges: (a.u.)
   Center  Symbol    Alpha    Beta     Spin     Total
       1     O     4.26135  4.26135  0.00000 -0.52269
       2     C     2.73555  2.73555  0.00000  0.52890
       3     C     3.21067  3.21067  0.00000 -0.42134
       4     C     3.28671  3.28671  0.00000 -0.57343
       5     C     3.15095  3.15095  0.00000 -0.30189
       6     H     0.40987  0.40987  0.00000  0.18025
       7     H     0.41004  0.41004  0.00000  0.17991
       8     C     3.15591  3.15591  0.00000 -0.31182
       9     H     0.40905  0.40905  0.00000  0.18191
      10     H     0.41264  0.41264  0.00000  0.17472
      11     C     3.15167  3.15167  0.00000 -0.30335
      12     H     0.42395  0.42395  0.00000  0.15210
      13     H     0.42408  0.42408  0.00000  0.15184
      14     C     3.15571  3.15571  0.00000 -0.31141
      15     H     0.42267  0.42267  0.00000  0.15465
      16     H     0.42302  0.42302  0.00000  0.15397
      17     C     3.23943  3.23943  0.00000 -0.47886
      18     H     0.41651  0.41651  0.00000  0.16698
      19     H     0.42346  0.42346  0.00000  0.15308
      20     H     0.42167  0.42167  0.00000  0.15665
      21     H     0.41872  0.41872  0.00000  0.16256
      22     H     0.42250  0.42250  0.00000  0.15500
      23     H     0.40874  0.40874  0.00000  0.18252
      24     H     0.39647  0.39647  0.00000  0.20706
      25     H     0.40865  0.40865  0.00000  0.18270

   Total alpha = 36.00000, Total beta = 36.00000, Total charge = -0.00000
