  ==> Input File <==

--------------------------------------------------------------------------
set {
	reference rhf
	basis 6-31G*
}

set_num_threads( 1 )
memory 2 gb

molecule MOL {
0 1

H	 -3.161837	 0.500524	 -0.000234
C	 -2.367097	 -0.232926	 -0.000000
O	 -1.158440	 0.455814	 -0.000122
H	 -2.468853	 -0.861886	 -0.882833
H	 -2.468942	 -0.861421	 0.883154
C	 -0.029776	 -0.365156	 0.000148
C	 1.212217	 0.508981	 0.000007
H	 -0.036772	 -1.013236	 -0.877259
H	 -0.036869	 -1.012778	 0.877897
C	 1.371276	 1.298578	 1.298513
H	 2.078919	 -0.124410	 -0.162181
H	 1.156387	 1.186376	 -0.846586
H	 1.453593	 0.637609	 2.156865
H	 2.264560	 1.913496	 1.270814
H	 0.524067	 1.957295	 1.468018

	symmetry c1
}
set optking {
	frozen_dihedral = ("
		6 3 2 4,
		8 6 3 2
	")
}

ee = energy('scf')
oeprop('DIPOLE', 'QUADRUPOLE', 'MULLIKEN_CHARGES')
f=open( 'psi4out.xyz', 'w' )
f.write( "15  " )
f.write( str(ee) + "\n" )
f.write( MOL.save_string_xyz() )
f.close()
--------------------------------------------------------------------------

    Molecular point group: c1

    Geometry (in Angstrom), charge = 0, multiplicity = 1:

       Center              X                  Y                   Z               Mass
    ------------   -----------------  -----------------  -----------------  -----------------
           H         -2.932457032934     0.174573767095    -0.263489129725     1.007825032070
           C         -2.137717032934    -0.558876232905    -0.263255129725    12.000000000000
           O         -0.929060032934     0.129863767095    -0.263377129725    15.994914619560
           H         -2.239473032934    -1.187836232905    -1.146088129725     1.007825032070
           H         -2.239562032934    -1.187371232905     0.619898870275     1.007825032070
           C          0.199603967066    -0.691106232905    -0.263107129725    12.000000000000
           C          1.441596967066     0.183030767095    -0.263248129725    12.000000000000
           H          0.192607967066    -1.339186232905    -1.140514129725     1.007825032070
           H          0.192510967066    -1.338728232905     0.614641870275     1.007825032070
           C          1.600655967066     0.972627767095     1.035257870275    12.000000000000
           H          2.308298967066    -0.450360232905    -0.425436129725     1.007825032070
           H          1.385766967066     0.860425767095    -1.109841129725     1.007825032070
           H          1.682972967066     0.311658767095     1.893609870275     1.007825032070
           H          2.493939967066     1.587545767095     1.007558870275     1.007825032070
           H          0.753446967066     1.631344767095     1.204762870275     1.007825032070

  Charge       = 0
  Multiplicity = 1
  Basis Set: 6-31G*
  Basis Set:

    Orbital Energies (a.u.)
    -----------------------

    Doubly Occupied:

       1A    -20.554291     2A    -11.266334     3A    -11.264587
       4A    -11.214618     5A    -11.203857     6A     -1.379345
       7A     -1.054207     8A     -0.950158     9A     -0.885604
      10A     -0.800402    11A     -0.669251    12A     -0.662540
      13A     -0.633142    14A     -0.590293    15A     -0.566310
      16A     -0.545836    17A     -0.498896    18A     -0.485171
      19A     -0.478348    20A     -0.459261    21A     -0.413317

  @DF-RHF Final Energy:  -232.13950863204974

   => Energetics <=

    Nuclear Repulsion Energy =            192.8964773096160457
    One-Electron Energy =                -696.9206773936693935
    Two-Electron Energy =                 271.8846914520036648
    DFT Exchange-Correlation Energy =       0.0000000000000000
    Empirical Dispersion Energy =           0.0000000000000000
    PCM Polarization Energy =               0.0000000000000000
    EFP Energy =                            0.0000000000000000
    Total Energy =                       -232.1395086320496830

  Mulliken Charges: (a.u.)
   Center  Symbol    Alpha    Beta     Spin     Total
       1     H     0.41223  0.41223  0.00000  0.17554
       2     C     3.07903  3.07903  0.00000 -0.15805
       3     O     4.30345  4.30345  0.00000 -0.60690
       4     H     0.43027  0.43027  0.00000  0.13946
       5     H     0.43014  0.43014  0.00000  0.13972
       6     C     2.98925  2.98925  0.00000  0.02151
       7     C     3.15980  3.15980  0.00000 -0.31959
       8     H     0.43049  0.43049  0.00000  0.13903
       9     H     0.43311  0.43311  0.00000  0.13379
      10     C     3.24252  3.24252  0.00000 -0.48504
      11     H     0.42265  0.42265  0.00000  0.15470
      12     H     0.41365  0.41365  0.00000  0.17271
      13     H     0.42445  0.42445  0.00000  0.15109
      14     H     0.42065  0.42065  0.00000  0.15870
      15     H     0.40832  0.40832  0.00000  0.18335

   Total alpha = 21.00000, Total beta = 21.00000, Total charge =  0.00000
