                              Psi4 1.0.54 Driver

  ==> Input File <==

--------------------------------------------------------------------------
set {
	reference rhf
	basis cc-pvtz
}

set_num_threads( 4 )
memory 2 gb

molecule MOL {
0 1

H	 2.076296	 0.284917	 0.949684
O	 1.306865	 -0.262256	 0.994905
C	 0.489979	 0.078084	 0.002623
C	 -0.763662	 -0.754014	 0.000816
O	 0.757078	 0.932586	 -0.769643
C	 -2.038001	 0.074705	 -0.000833
H	 -0.712945	 -1.405886	 -0.864342
H	 -0.715137	 -1.405770	 0.866182
H	 -2.087267	 0.710831	 -0.874232
H	 -2.903419	 -0.576199	 -0.001922
H	 -2.089467	 0.710909	 0.872389

	symmetry c1
}
set optking {
	frozen_dihedral = ("
		2 3 4 7
	")
}

ee,wfn = optimize('scf', return_wfn=True)
oeprop( wfn, 'DIPOLE', 'QUADRUPOLE', 'MULLIKEN_CHARGES')
f=open( 'psi4out.xyz', 'w' )
f.write( "11  " )
f.write( str(ee) + "\n" )
f.write( MOL.save_string_xyz() )
f.close()
--------------------------------------------------------------------------

    Molecular point group: c1
  Charge       = 0
  Multiplicity = 1
  Basis Set: CC-PVTZ
  Basis Set:
  @DF-RHF Final Energy:  -266.95091845669356
    Total Energy =                       -266.9509184566936142
    Molecular point group: c1
  Basis Set: CC-PVTZ
  Basis Set:
  Basis Set: CC-PVTZ
  Basis Set:
  @DF-RHF Final Energy:  -266.95129240005315
    Total Energy =                       -266.9512924000532053
  Basis Set: CC-PVTZ
  Basis Set:
  Basis Set: CC-PVTZ
  Basis Set:
  @DF-RHF Final Energy:  -266.95140054068020
    Total Energy =                       -266.9514005406803108
  Basis Set: CC-PVTZ
  Basis Set:
  Basis Set: CC-PVTZ
  Basis Set:
  @DF-RHF Final Energy:  -266.95150564647855
    Total Energy =                       -266.9515056464786085
  Basis Set: CC-PVTZ
  Basis Set:
  Basis Set: CC-PVTZ
  Basis Set:
  @DF-RHF Final Energy:  -266.95156142037445
    Total Energy =                       -266.9515614203746168
  Basis Set: CC-PVTZ
  Basis Set:
  Basis Set: CC-PVTZ
  Basis Set:
  @DF-RHF Final Energy:  -266.95157482188017
    Total Energy =                       -266.9515748218802855
  Basis Set: CC-PVTZ
  Basis Set:
  Charge       = 0
  Multiplicity = 1
  Basis Set: CC-PVTZ
  Basis Set:

    Orbital Energies (a.u.)
    -----------------------

    Doubly Occupied:

       1A    -20.607439     2A    -20.539114     3A    -11.374509
       4A    -11.241979     5A    -11.223879     6A     -1.479363
       7A     -1.369575     8A     -1.066489     9A     -0.916777
      10A     -0.810859    11A     -0.707110    12A     -0.691966
      13A     -0.654099    14A     -0.609560    15A     -0.596578
      16A     -0.537292    17A     -0.526881    18A     -0.510738
      19A     -0.479868    20A     -0.446687

  @DF-RHF Final Energy:  -266.95157539802381

   => Energetics <=

    Nuclear Repulsion Energy =            180.0773802697777057
    One-Electron Energy =                -721.2763872232495714
    Two-Electron Energy =                 274.2474315554479745
    DFT Exchange-Correlation Energy =       0.0000000000000000
    Empirical Dispersion Energy =           0.0000000000000000
    PCM Polarization Energy =               0.0000000000000000
    EFP Energy =                            0.0000000000000000
    Total Energy =                       -266.9515753980239197
    Molecular point group: c1
  Basis Set: CC-PVTZ
  Basis Set:

  -Total Gradient:
     Atom            X                  Y                   Z
    ------   -----------------  -----------------  -----------------
       1        0.000018488467     0.000005433067     0.000018092839
       2       -0.000354111682     0.000416851932     0.000500922622
       3        0.000481827650    -0.000578442694    -0.000634959617
       4        0.000480750138    -0.000417644681     0.000533120882
       5       -0.000034675563     0.000076823591    -0.000112617443
       6       -0.000090749912    -0.000021273846     0.000049816636
       7       -0.000439263192     0.000540601812    -0.000368514653
       8        0.000040254442    -0.000046412186     0.000006828486
       9       -0.000009649473     0.000003239782     0.000003176278
      10       -0.000074952493     0.000013955669     0.000013861507
      11       -0.000017918384     0.000006867555    -0.000009727536

  **** Optimization is complete! (in 7 steps) ****
    Final optimized geometry and variables:
    Molecular point group: c1

    Geometry (in Angstrom), charge = 0, multiplicity = 1:

    H            2.162659249331     0.382377309614     0.677115362934
    O            1.442601814197    -0.218457863997     0.800531677234
    C            0.495172928832     0.077024320123    -0.081587234623
    C           -0.699368013749    -0.838258459293     0.006136176529
    O            0.605787041064     0.969986403674    -0.849845580970
    C           -2.011328975330    -0.058889923757     0.066290666167
    H           -0.680780167140    -1.448386594375    -0.890398579258
    H           -0.589520182416    -1.494834666097     0.856623995734
    H           -2.106302198749     0.595777957124    -0.788353723527
    H           -2.850120843213    -0.743289042949     0.073137130935
    H           -2.065488040019     0.546128457835     0.963594469033

  Mulliken Charges: (a.u.)
   Center  Symbol    Alpha    Beta     Spin     Total
       1     H     0.38014  0.38014  0.00000  0.23972
       2     O     4.15838  4.15838  0.00000 -0.31677
       3     C     2.80350  2.80350  0.00000  0.39301
       4     C     3.09178  3.09178  0.00000 -0.18355
       5     O     4.19772  4.19772  0.00000 -0.39545
       6     C     3.14406  3.14406  0.00000 -0.28812
       7     H     0.44420  0.44420  0.00000  0.11160
       8     H     0.43763  0.43763  0.00000  0.12474
       9     H     0.44138  0.44138  0.00000  0.11724
      10     H     0.44873  0.44873  0.00000  0.10253
      11     H     0.45247  0.45247  0.00000  0.09505

   Total alpha = 20.00000, Total beta = 20.00000, Total charge = -0.00000

*** Psi4 exiting successfully. Buy a developer a beer!
