  ==> Input File <==

--------------------------------------------------------------------------
set {
	reference rhf
	basis 6-31G*
}

set_num_threads( 1 )
memory 2 gb

molecule MOL {
0 1

H	 -2.646374	 -0.642757	 1.268656
C	 -2.083525	 -0.384536	 0.393091
O	 -0.807605	 -0.127164	 0.768327
F	 -2.118945	 -1.383102	 -0.486752
F	 -2.621877	 0.670592	 -0.209486
C	 0.171903	 -1.023338	 0.380871
C	 1.027530	 -1.305424	 1.609077
Cl	 1.159958	 -0.352149	 -0.926978
H	 -0.239530	 -1.955078	 0.033944
F	 1.979466	 -2.166401	 1.318087
F	 0.265756	 -1.838005	 2.543687
F	 1.575734	 -0.216669	 2.090802

	symmetry c1
}
set optking {
	frozen_dihedral = ("
		10 7 6 9,
		9 6 3 2
	")
}

ee = energy('scf')
oeprop('DIPOLE', 'QUADRUPOLE', 'MULLIKEN_CHARGES')
f=open( 'psi4out.xyz', 'w' )
f.write( "12  " )
f.write( str(ee) + "\n" )
f.write( MOL.save_string_xyz() )
f.close()
--------------------------------------------------------------------------

    Molecular point group: c1

    Geometry (in Angstrom), charge = 0, multiplicity = 1:

       Center              X                  Y                   Z               Mass
    ------------   -----------------  -----------------  -----------------  -----------------
           H         -2.628171456214     0.135930198461     0.672665333088     1.007825032070
           C         -2.065322456214     0.394151198461    -0.202899666912    12.000000000000
           O         -0.789402456214     0.651523198461     0.172336333088    15.994914619560
           F         -2.100742456214    -0.604414801539    -1.082742666912    18.998403224000
           F         -2.603674456214     1.449279198461    -0.805476666912    18.998403224000
           C          0.190105543786    -0.244650801539    -0.215119666912    12.000000000000
           C          1.045732543786    -0.526736801539     1.013086333088    12.000000000000
          CL          1.178160543786     0.426538198461    -1.522968666912    34.968852682000
           H         -0.221327456214    -1.176390801539    -0.562046666912     1.007825032070
           F          1.997668543786    -1.387713801539     0.722096333088    18.998403224000
           F          0.283958543786    -1.059317801539     1.947696333088    18.998403224000
           F          1.593936543786     0.562018198461     1.494811333088    18.998403224000

  Charge       = 0
  Multiplicity = 1
  Basis Set: 6-31G*
  Basis Set:

    Orbital Energies (a.u.)
    -----------------------

    Doubly Occupied:

       1A   -104.843241     2A    -26.363908     3A    -26.361997
       4A    -26.358430     5A    -26.357187     6A    -26.341615
       7A    -20.648664     8A    -11.528952     9A    -11.491642
      10A    -11.400514    11A    -10.577998    12A     -8.047349
      13A     -8.043824    14A     -8.043714    15A     -1.763704
      16A     -1.720918    17A     -1.660551    18A     -1.658687
      19A     -1.640614    20A     -1.487090    21A     -1.179777
      22A     -1.051876    23A     -0.987678    24A     -0.922446
      25A     -0.861992    26A     -0.851365    27A     -0.848180
      28A     -0.828846    29A     -0.824065    30A     -0.792118
      31A     -0.730364    32A     -0.728297    33A     -0.701338
      34A     -0.696961    35A     -0.682159    36A     -0.677214
      37A     -0.662112    38A     -0.660690    39A     -0.644566
      40A     -0.633412    41A     -0.609782    42A     -0.582499
      43A     -0.514730    44A     -0.475345    45A     -0.468408

  @DF-RHF Final Energy: -1146.30564850134124

   => Energetics <=

    Nuclear Repulsion Energy =            733.2141238452512653
    One-Electron Energy =               -3049.1256656104460490
    Two-Electron Energy =                1169.6058932638554779
    DFT Exchange-Correlation Energy =       0.0000000000000000
    Empirical Dispersion Energy =           0.0000000000000000
    PCM Polarization Energy =               0.0000000000000000
    EFP Energy =                            0.0000000000000000
    Total Energy =                      -1146.3056485013391921

  Mulliken Charges: (a.u.)
   Center  Symbol    Alpha    Beta     Spin     Total
       1     H     0.41106  0.41106  0.00000  0.17789
       2     C     2.56291  2.56291  0.00000  0.87418
       3     O     4.30378  4.30378  0.00000 -0.60756
       4     F     4.68466  4.68466  0.00000 -0.36932
       5     F     4.67460  4.67460  0.00000 -0.34920
       6     C     3.04762  3.04762  0.00000 -0.09525
       7     C     2.43251  2.43251  0.00000  1.13499
       8    CL     8.50050  8.50050  0.00000 -0.00101
       9     H     0.36151  0.36151  0.00000  0.27698
      10     F     4.67391  4.67391  0.00000 -0.34781
      11     F     4.67876  4.67876  0.00000 -0.35751
      12     F     4.66818  4.66818  0.00000 -0.33637

   Total alpha = 45.00000, Total beta = 45.00000, Total charge =  0.00000
