  ==> Input File <==

--------------------------------------------------------------------------
set {
	reference rhf
	basis 6-31G*
}

set_num_threads( 4 )
memory 2 gb

molecule MOL {
0 1

H	 0.717970	 3.587542	 1.070087
O	 1.462736	 3.063146	 0.809256
C	 1.079780	 1.830725	 0.419820
C	 2.077305	 0.952023	 0.009004
C	 -0.241620	 1.428194	 0.417994
H	 3.096839	 1.288621	 0.019483
C	 1.748755	 -0.323475	 -0.401148
H	 -1.030361	 2.084301	 0.729342
C	 -0.536158	 0.140425	 0.000000
H	 2.525213	 -0.995336	 -0.716701
C	 0.428051	 -0.751804	 -0.412039
N	 -1.935604	 -0.280333	 0.000000
H	 0.157602	 -1.738091	 -0.727474
O	 -2.161694	 -1.452901	 0.000000
O	 -2.770341	 0.571417	 0.000000

	symmetry c1
}
set optking {
	frozen_dihedral = ("
		11 9 12 14
	")
}

ee = optimize('scf')
oeprop('DIPOLE', 'QUADRUPOLE', 'MULLIKEN_CHARGES')
f=open( 'psi4out.xyz', 'w' )
f.write( "15  " )
f.write( str(ee) + "\n" )
f.write( MOL.save_string_xyz() )
f.close()
--------------------------------------------------------------------------

    Molecular point group: c1
  Charge       = 0
  Multiplicity = 1
  Basis Set: 6-31G*
  Basis Set:
  @DF-RHF Final Energy:  -509.02702722141419
    Total Energy =                       -509.0270272214140732
    Molecular point group: c1
  Basis Set: 6-31G*
  Basis Set:
  Basis Set: 6-31G*
  Basis Set:
  @DF-RHF Final Energy:  -509.02232825799695
    Total Energy =                       -509.0223282579971738
  Basis Set: 6-31G*
  Basis Set:
  Basis Set: 6-31G*
  Basis Set:
  @DF-RHF Final Energy:  -509.02701278484767
    Total Energy =                       -509.0270127848482389
  Basis Set: 6-31G*
  Basis Set:
  Basis Set: 6-31G*
  Basis Set:
  @DF-RHF Final Energy:  -509.02711254493926
    Total Energy =                       -509.0271125449398824
  Basis Set: 6-31G*
  Basis Set:
  Basis Set: 6-31G*
  Basis Set:
  @DF-RHF Final Energy:  -509.02711296958438
    Total Energy =                       -509.0271129695845502
  Basis Set: 6-31G*
  Basis Set:
  Charge       = 0
  Multiplicity = 1
  Basis Set: 6-31G*
  Basis Set:

    Orbital Energies (a.u.)
    -----------------------

    Doubly Occupied:

       1A    -20.616090     2A    -20.605756     3A    -20.605205
       4A    -15.859299     5A    -11.331003     6A    -11.311666
       7A    -11.267638     8A    -11.267150     9A    -11.263904
      10A    -11.260272    11A     -1.638436    12A     -1.436835
      13A     -1.421911    14A     -1.200983    15A     -1.095349
      16A     -1.046903    17A     -0.966259    18A     -0.879500
      19A     -0.828777    20A     -0.790737    21A     -0.754203
      22A     -0.736195    23A     -0.722806    24A     -0.708681
      25A     -0.672725    26A     -0.635333    27A     -0.616217
      28A     -0.594517    29A     -0.559501    30A     -0.545698
      31A     -0.517767    32A     -0.491924    33A     -0.490049
      34A     -0.454505    35A     -0.376992    36A     -0.343076

  @DF-RHF Final Energy:  -509.02711331067542

   => Energetics <=

    Nuclear Repulsion Energy =            503.4785952790643933
    One-Electron Energy =               -1693.1836957709531362
    Two-Electron Energy =                 680.6779871812133251
    DFT Exchange-Correlation Energy =       0.0000000000000000
    Empirical Dispersion Energy =           0.0000000000000000
    PCM Polarization Energy =               0.0000000000000000
    EFP Energy =                            0.0000000000000000
    Total Energy =                       -509.0271133106754178
    Molecular point group: c1
  Basis Set: 6-31G*
  Basis Set:

  -Total Gradient:
     Atom            X                  Y                   Z
    ------   -----------------  -----------------  -----------------
       1        0.000000938926    -0.000003459801     0.000011196975
       2       -0.000002132762     0.000006849207    -0.000018528752
       3        0.000001770442    -0.000003757516     0.000007045648
       4       -0.000000353421    -0.000003109777     0.000010950906
       5        0.000000263592    -0.000003095863     0.000002854001
       6       -0.000000415542     0.000000356021    -0.000003075489
       7        0.000000267726     0.000000860295     0.000001363760
       8        0.000000740216     0.000001530738    -0.000003887670
       9        0.000227281002    -0.000898102847     0.003214140509
      10        0.000000472323     0.000000137421     0.000000165549
      11       -0.000155546787     0.000610609693    -0.001690530563
      12       -0.000069228583     0.000408070948    -0.003586646568
      13        0.000001445807     0.000003767360     0.000003160769
      14       -0.000036990159    -0.000079459105     0.002049629680
      15        0.000031487227    -0.000041196778     0.000002161244

  **** Optimization is complete! (in 6 steps) ****
    Final optimized geometry and variables:
    Molecular point group: c1

    Geometry (in Angstrom), charge = 0, multiplicity = 1:

    H            0.877221091306     3.052839106987     0.966188106080
    O            1.622585323907     2.524952591759     0.714368412589
    C            1.239490526211     1.293407495600     0.323068790256
    C            2.236783150124     0.415620540786    -0.090566479473
    C           -0.082361691303     0.891651046861     0.318095034233
    H            3.255947571915     0.753560851336    -0.082992853653
    C            1.908678976982    -0.859391458880    -0.502531877436
    H           -0.873389117119     1.551595346446     0.616616328954
    C           -0.373566042987    -0.399970008802    -0.087835377769
    H            2.684647428456    -1.528030328421    -0.826056150513
    C            0.588797852107    -1.290982289420    -0.504953437368
    N           -1.772738896120    -0.815947601880    -0.104147140466
    H            0.317905534679    -2.279369250876    -0.814686686257
    O           -2.000394837908    -1.986701422555    -0.121762008865
    O           -2.604476787403     0.040621664625    -0.083876315033

  Mulliken Charges: (a.u.)
   Center  Symbol    Alpha    Beta     Spin     Total
       1     H     0.26728  0.26728  0.00000  0.46543
       2     O     4.37552  4.37552  0.00000 -0.75104
       3     C     2.79227  2.79227  0.00000  0.41545
       4     C     3.10915  3.10915  0.00000 -0.21829
       5     C     3.13621  3.13621  0.00000 -0.27241
       6     H     0.38099  0.38099  0.00000  0.23801
       7     C     3.10043  3.10043  0.00000 -0.20085
       8     H     0.36970  0.36970  0.00000  0.26061
       9     C     2.90884  2.90884  0.00000  0.18231
      10     H     0.38655  0.38655  0.00000  0.22690
      11     C     3.09829  3.09829  0.00000 -0.19658
      12     N     3.24572  3.24572  0.00000  0.50856
      13     H     0.36691  0.36691  0.00000  0.26618
      14     O     4.22898  4.22898  0.00000 -0.45795
      15     O     4.23317  4.23317  0.00000 -0.46633

   Total alpha = 36.00000, Total beta = 36.00000, Total charge = -0.00000
