                              Psi4 1.0.54 Driver

  ==> Input File <==

--------------------------------------------------------------------------
set {
	reference rhf
	basis cc-pvtz
}

set_num_threads( 4 )
memory 2 gb

molecule MOL {
0 1

O	 0.618137	 0.032412	 -2.335168
C	 0.141653	 0.470944	 -1.327512
C	 -1.019584	 1.441140	 -1.398806
N	 0.622280	 0.144970	 -0.099307
H	 -0.773018	 2.386568	 -0.932205
H	 -1.239395	 1.604568	 -2.440663
H	 -1.898043	 1.041915	 -0.906970
C	 1.664396	 -0.854993	 0.000772
C	 -0.045426	 0.466488	 1.139462
H	 2.462727	 -0.615153	 -0.690869
H	 1.261798	 -1.821849	 -0.240651
H	 2.081615	 -0.891605	 1.003877
H	 0.695891	 0.632572	 1.910502
H	 -0.632780	 1.364611	 1.054112
H	 -0.695834	 -0.339699	 1.471238

	symmetry c1
}
set optking {
	frozen_dihedral = ("
		2 4 8 10
	")
}

ee,wfn = optimize('scf', return_wfn=True)
oeprop( wfn, 'DIPOLE', 'QUADRUPOLE', 'MULLIKEN_CHARGES')
f=open( 'psi4out.xyz', 'w' )
f.write( "15  " )
f.write( str(ee) + "\n" )
f.write( MOL.save_string_xyz() )
f.close()
--------------------------------------------------------------------------

    Molecular point group: c1
  Charge       = 0
  Multiplicity = 1
  Basis Set: CC-PVTZ
  Basis Set:
  @DF-RHF Final Energy:  -286.13427783361647
    Total Energy =                       -286.1342778336164088
    Molecular point group: c1
  Basis Set: CC-PVTZ
  Basis Set:
  Basis Set: CC-PVTZ
  Basis Set:
  @DF-RHF Final Energy:  -286.13509034540647
    Total Energy =                       -286.1350903454065246
  Basis Set: CC-PVTZ
  Basis Set:
  Basis Set: CC-PVTZ
  Basis Set:
  @DF-RHF Final Energy:  -286.13513428986784
    Total Energy =                       -286.1351342898677785
  Basis Set: CC-PVTZ
  Basis Set:
  Basis Set: CC-PVTZ
  Basis Set:
  @DF-RHF Final Energy:  -286.13521532315872
    Total Energy =                       -286.1352153231589455
  Basis Set: CC-PVTZ
  Basis Set:
  Basis Set: CC-PVTZ
  Basis Set:
  @DF-RHF Final Energy:  -286.13525494776036
    Total Energy =                       -286.1352549477603020
  Basis Set: CC-PVTZ
  Basis Set:
  Basis Set: CC-PVTZ
  Basis Set:
  @DF-RHF Final Energy:  -286.13526018511465
    Total Energy =                       -286.1352601851147028
  Basis Set: CC-PVTZ
  Basis Set:
  Basis Set: CC-PVTZ
  Basis Set:
  @DF-RHF Final Energy:  -286.13526334177521
    Total Energy =                       -286.1352633417753850
  Basis Set: CC-PVTZ
  Basis Set:
  Charge       = 0
  Multiplicity = 1
  Basis Set: CC-PVTZ
  Basis Set:

    Orbital Energies (a.u.)
    -----------------------

    Doubly Occupied:

       1A    -20.504793     2A    -15.577461     3A    -11.333490
       4A    -11.264179     5A    -11.246939     6A    -11.226594
       7A     -1.388286     8A     -1.244712     9A     -1.014710
      10A     -0.973487    11A     -0.919511    12A     -0.738345
      13A     -0.682125    14A     -0.660716    15A     -0.653706
      16A     -0.589153    17A     -0.577813    18A     -0.569743
      19A     -0.564679    20A     -0.547105    21A     -0.530448
      22A     -0.503493    23A     -0.414752    24A     -0.371281

  @DF-RHF Final Energy:  -286.13526365958342

   => Energetics <=

    Nuclear Repulsion Energy =            253.1073330854502501
    One-Electron Energy =                -890.2901492829513472
    Two-Electron Energy =                 351.0475525379177384
    DFT Exchange-Correlation Energy =       0.0000000000000000
    Empirical Dispersion Energy =           0.0000000000000000
    PCM Polarization Energy =               0.0000000000000000
    EFP Energy =                            0.0000000000000000
    Total Energy =                       -286.1352636595833587
    Molecular point group: c1
  Basis Set: CC-PVTZ
  Basis Set:

  -Total Gradient:
     Atom            X                  Y                   Z
    ------   -----------------  -----------------  -----------------
       1        0.000028084443    -0.000013933864     0.000005613536
       2       -0.000529997466    -0.000513548535     0.000097618240
       3        0.000009891681    -0.000003408384     0.000009641928
       4        0.000785467912     0.000882654283     0.000038685598
       5       -0.000002960037     0.000002987226     0.000007842864
       6        0.000001420752    -0.000001172029     0.000004541862
       7       -0.000006015262     0.000001668735     0.000002460991
       8       -0.000722613317    -0.000836484375    -0.000751722593
       9        0.000028650091     0.000004721546    -0.000031044393
      10        0.000413659661     0.000470733744     0.000626598641
      11        0.000000970949     0.000004066033    -0.000001826203
      12        0.000003526791    -0.000003679342    -0.000006522800
      13        0.000002189782     0.000007895953     0.000002534282
      14       -0.000016109636     0.000002705559    -0.000004850801
      15        0.000003833656    -0.000005206551     0.000000428846

  **** Optimization is complete! (in 8 steps) ****
    Final optimized geometry and variables:
    Molecular point group: c1

    Geometry (in Angstrom), charge = 0, multiplicity = 1:

    O            0.340964530450    -0.275473633491    -1.641506836411
    C           -0.168536719939     0.193580953347    -0.664325567473
    C           -1.327275603231     1.159198486670    -0.795568052064
    N            0.286946876730    -0.102249820779     0.580694993614
    H           -1.118311112255     2.100013360636    -0.302520489687
    H           -1.485829925856     1.332864681653    -1.846987120982
    H           -2.230937160593     0.745933802066    -0.364101294187
    C            1.321492646790    -1.114292538094     0.677208776826
    C           -0.449814030351     0.178120014405     1.791115445381
    H            2.120600856713    -0.896866397029    -0.012376016591
    H            0.940156290127    -2.105807561630     0.455482894090
    H            1.717140753917    -1.111298213483     1.683244756818
    H            0.243738488844     0.386906777373     2.594859303962
    H           -1.081789338251     1.041849765055     1.674646128909
    H           -1.071610674663    -0.661402101240     2.094066477954

  Mulliken Charges: (a.u.)
   Center  Symbol    Alpha    Beta     Spin     Total
       1     O     4.21892  4.21892  0.00000 -0.43785
       2     C     2.84500  2.84500  0.00000  0.31000
       3     C     3.16028  3.16028  0.00000 -0.32056
       4     N     3.56455  3.56455  0.00000 -0.12910
       5     H     0.44883  0.44883  0.00000  0.10234
       6     H     0.42881  0.42881  0.00000  0.14237
       7     H     0.44902  0.44902  0.00000  0.10197
       8     C     3.09156  3.09156  0.00000 -0.18312
       9     C     3.09669  3.09669  0.00000 -0.19338
      10     H     0.43523  0.43523  0.00000  0.12955
      11     H     0.45341  0.45341  0.00000  0.09318
      12     H     0.45802  0.45802  0.00000  0.08396
      13     H     0.44844  0.44844  0.00000  0.10311
      14     H     0.44567  0.44567  0.00000  0.10866
      15     H     0.45557  0.45557  0.00000  0.08886

   Total alpha = 24.00000, Total beta = 24.00000, Total charge = -0.00000

*** Psi4 exiting successfully. Buy a developer a beer!
