  ==> Input File <==

--------------------------------------------------------------------------
set {
	reference rhf
	basis cc-pvtz
}

set_num_threads( 4 )
memory 2 gb

molecule MOL {
0 1

H	 1.725993	 0.817294	 -1.172938
O	 0.943468	 0.290070	 -1.229110
C	 0.489979	 0.078084	 0.002623
C	 -0.763662	 -0.754014	 0.000816
O	 1.031596	 0.515245	 0.958371
C	 -2.038001	 0.074705	 -0.000833
H	 -0.712945	 -1.405886	 -0.864342
H	 -0.715137	 -1.405770	 0.866182
H	 -2.087267	 0.710831	 -0.874232
H	 -2.903419	 -0.576199	 -0.001922
H	 -2.089467	 0.710909	 0.872389

	symmetry c1
}
set optking {
	frozen_dihedral = ("
		2 3 4 7
	")
}

ee = optimize('scf')
oeprop('DIPOLE', 'QUADRUPOLE', 'MULLIKEN_CHARGES')
f=open( 'psi4out.xyz', 'w' )
f.write( "11  " )
f.write( str(ee) + "\n" )
f.write( MOL.save_string_xyz() )
f.close()
--------------------------------------------------------------------------

    Molecular point group: c1
  Charge       = 0
  Multiplicity = 1
  Basis Set: CC-PVTZ
  Basis Set:
  @DF-RHF Final Energy:  -266.95072024575637
    Total Energy =                       -266.9507202457562585
    Molecular point group: c1
  Basis Set: CC-PVTZ
  Basis Set:
  Basis Set: CC-PVTZ
  Basis Set:
  @DF-RHF Final Energy:  -266.95136300596278
    Total Energy =                       -266.9513630059627758
  Basis Set: CC-PVTZ
  Basis Set:
  Basis Set: CC-PVTZ
  Basis Set:
  @DF-RHF Final Energy:  -266.95031476504505
    Total Energy =                       -266.9503147650449364
  Basis Set: CC-PVTZ
  Basis Set:
  Basis Set: CC-PVTZ
  Basis Set:
  @DF-RHF Final Energy:  -266.95148536792266
    Total Energy =                       -266.9514853679226007
  Basis Set: CC-PVTZ
  Basis Set:
  Charge       = 0
  Multiplicity = 1
  Basis Set: CC-PVTZ
  Basis Set:

    Orbital Energies (a.u.)
    -----------------------

    Doubly Occupied:

       1A    -20.606370     2A    -20.539335     3A    -11.373550
       4A    -11.241399     5A    -11.229289     6A     -1.478405
       7A     -1.369037     8A     -1.068784     9A     -0.914659
      10A     -0.817084    11A     -0.706762    12A     -0.689233
      13A     -0.644681    14A     -0.619065    15A     -0.595416
      16A     -0.544060    17A     -0.527834    18A     -0.513972
      19A     -0.480095    20A     -0.444320

  @DF-RHF Final Energy:  -266.95149188113828

   => Energetics <=

    Nuclear Repulsion Energy =            180.3306608246841449
    One-Electron Energy =                -721.7576003826249007
    Two-Electron Energy =                 274.4754476768022187
    DFT Exchange-Correlation Energy =       0.0000000000000000
    Empirical Dispersion Energy =           0.0000000000000000
    PCM Polarization Energy =               0.0000000000000000
    EFP Energy =                            0.0000000000000000
    Total Energy =                       -266.9514918811385087
    Molecular point group: c1
  Basis Set: CC-PVTZ
  Basis Set:

  -Total Gradient:
     Atom            X                  Y                   Z
    ------   -----------------  -----------------  -----------------
       1        0.000035741953     0.000030105382    -0.000030232863
       2        0.000307825008    -0.000310920775     0.000024161153
       3       -0.000465530952     0.000541026699     0.000123613911
       4        0.000306484117    -0.000615723082     0.000270374591
       5        0.000044643230    -0.000020129567    -0.000148094527
       6        0.000109722960    -0.000061711506     0.000031077810
       7       -0.000245934919     0.000335852617    -0.000267286520
       8       -0.000006859485     0.000069497455    -0.000023488621
       9       -0.000002577023    -0.000001809366     0.000006372937
      10       -0.000032837679    -0.000005852285     0.000001521869
      11       -0.000050677213     0.000039664429     0.000011980258

  **** Optimization is complete! (in 5 steps) ****
    Final optimized geometry and variables:
    Molecular point group: c1

    Geometry (in Angstrom), charge = 0, multiplicity = 1:

    H            1.726347433543     0.828804258251    -1.085231997323
    O            0.971410093927     0.263331296713    -1.153239737369
    C            0.527200362137     0.005715164112     0.072861365285
    C           -0.712073445448    -0.847974623984     0.075210874623
    O            1.056450984089     0.437671675370     1.038469161348
    C           -1.970323985050     0.025646329038     0.065112527422
    H           -0.702268312587    -1.495195519758    -0.790726397886
    H           -0.685614555906    -1.452327830040     0.970300485426
    H           -2.011383481241     0.640156965155    -0.825756018727
    H           -2.854445847121    -0.598315515258     0.083613724323
    H           -1.994699854768     0.674724419060     0.930938030029

  Mulliken Charges: (a.u.)
   Center  Symbol    Alpha    Beta     Spin     Total
       1     H     0.37990  0.37990  0.00000  0.24020
       2     O     4.16365  4.16365  0.00000 -0.32729
       3     C     2.79757  2.79757  0.00000  0.40486
       4     C     3.08940  3.08940  0.00000 -0.17879
       5     O     4.19806  4.19806  0.00000 -0.39612
       6     C     3.14969  3.14969  0.00000 -0.29939
       7     H     0.44246  0.44246  0.00000  0.11509
       8     H     0.43860  0.43860  0.00000  0.12280
       9     H     0.44892  0.44892  0.00000  0.10217
      10     H     0.44699  0.44699  0.00000  0.10601
      11     H     0.44477  0.44477  0.00000  0.11046

   Total alpha = 20.00000, Total beta = 20.00000, Total charge = -0.00000
