  ==> Input File <==

--------------------------------------------------------------------------
set {
	reference rhf
	basis 6-31G*
}

set_num_threads( 4 )
memory 2 gb

molecule MOL {
0 1

O	 -0.682937	 1.318834	 -0.186099
C	 -0.860635	 0.152188	 -0.042321
C	 -2.173363	 -0.477127	 0.338347
O	 0.083258	 -0.765189	 -0.202595
H	 -2.477673	 -1.180929	 -0.427595
H	 -2.923125	 0.290956	 0.455536
H	 -2.058825	 -1.029004	 1.264191
C	 1.391937	 -0.334737	 -0.569838
C	 1.792114	 -0.870441	 -1.932015
H	 2.092638	 -0.639038	 0.192763
H	 1.329219	 0.743892	 -0.581036
H	 2.758360	 -0.465280	 -2.216520
H	 1.868033	 -1.950399	 -1.914836
H	 1.066323	 -0.580655	 -2.684123

	symmetry c1
}
set optking {
	frozen_dihedral = ("
		10 8 4 2
	")
}

ee = optimize('scf')
oeprop('DIPOLE', 'QUADRUPOLE', 'MULLIKEN_CHARGES')
f=open( 'psi4out.xyz', 'w' )
f.write( "14  " )
f.write( str(ee) + "\n" )
f.write( MOL.save_string_xyz() )
f.close()
--------------------------------------------------------------------------

    Molecular point group: c1
  Charge       = 0
  Multiplicity = 1
  Basis Set: 6-31G*
  Basis Set:
  @DF-RHF Final Energy:  -305.87236744768472
    Total Energy =                       -305.8723674476848373
    Molecular point group: c1
  Basis Set: 6-31G*
  Basis Set:
  Basis Set: 6-31G*
  Basis Set:
  @DF-RHF Final Energy:  -305.87354397494852
    Total Energy =                       -305.8735439749486886
  Basis Set: 6-31G*
  Basis Set:
  Basis Set: 6-31G*
  Basis Set:
  @DF-RHF Final Energy:  -305.87420248983688
    Total Energy =                       -305.8742024898373302
  Basis Set: 6-31G*
  Basis Set:
  Basis Set: 6-31G*
  Basis Set:
  @DF-RHF Final Energy:  -305.87392851497373
    Total Energy =                       -305.8739285149737839
  Basis Set: 6-31G*
  Basis Set:
  Basis Set: 6-31G*
  Basis Set:
  @DF-RHF Final Energy:  -305.87422899895921
    Total Energy =                       -305.8742289989589835
  Basis Set: 6-31G*
  Basis Set:
  Charge       = 0
  Multiplicity = 1
  Basis Set: 6-31G*
  Basis Set:

    Orbital Energies (a.u.)
    -----------------------

    Doubly Occupied:

       1A    -20.601251     2A    -20.543946     3A    -11.376443
       4A    -11.283801     5A    -11.232893     6A    -11.222128
       7A     -1.465898     8A     -1.363193     9A     -1.057006
      10A     -0.999515    11A     -0.877573    12A     -0.773722
      13A     -0.697565    14A     -0.682235    15A     -0.658485
      16A     -0.612131    17A     -0.582521    18A     -0.566049
      19A     -0.561725    20A     -0.530779    21A     -0.517697
      22A     -0.496191    23A     -0.448081    24A     -0.439683

  @DF-RHF Final Energy:  -305.87423005350456

   => Energetics <=

    Nuclear Repulsion Energy =            246.2915485170235286
    One-Electron Energy =                -905.1505335944389117
    Two-Electron Energy =                 352.9847550239107932
    DFT Exchange-Correlation Energy =       0.0000000000000000
    Empirical Dispersion Energy =           0.0000000000000000
    PCM Polarization Energy =               0.0000000000000000
    EFP Energy =                            0.0000000000000000
    Total Energy =                       -305.8742300535045615
    Molecular point group: c1
  Basis Set: 6-31G*
  Basis Set:

  -Total Gradient:
     Atom            X                  Y                   Z
    ------   -----------------  -----------------  -----------------
       1        0.000064529444    -0.000026243993     0.000009341189
       2        0.000071191969     0.000006512050     0.000225074412
       3       -0.000008414733    -0.000007661409     0.000034701089
       4       -0.000051926897     0.000044286458    -0.000372750644
       5        0.000000745380     0.000002235677    -0.000002779888
       6       -0.000001194775    -0.000001079190     0.000000054100
       7       -0.000005728486    -0.000003111312    -0.000003113278
       8        0.000017379348    -0.000331673480    -0.000083107001
       9       -0.000007297400    -0.000010189853     0.000034115929
      10       -0.000077860860     0.000268034815     0.000166807650
      11        0.000000748120     0.000045563362    -0.000013014007
      12        0.000000975267     0.000001651291     0.000008091697
      13        0.000002974225     0.000002937042    -0.000005753661
      14       -0.000006120600     0.000008738544     0.000002332414

  **** Optimization is complete! (in 6 steps) ****
    Final optimized geometry and variables:
    Molecular point group: c1

    Geometry (in Angstrom), charge = 0, multiplicity = 1:

    O           -0.659834717231     1.493134404923     0.283428088885
    C           -0.796108199076     0.318464583732     0.399069257916
    C           -2.085118901209    -0.361268513674     0.775154523694
    O            0.171011094424    -0.570945851560     0.212743543839
    H           -2.372993098368    -1.057053433622    -0.004376929980
    H           -2.858044149216     0.379507490123     0.915304290175
    H           -1.945264037606    -0.929934864911     1.687204677633
    C            1.478994527764    -0.132026003708    -0.147693106984
    C            1.857789543503    -0.736014291737    -1.485782290476
    H            2.141551338718    -0.473780462364     0.636593338293
    H            1.499790433048     0.944692416760    -0.176769891152
    H            2.874168617753    -0.456173830134    -1.744809115845
    H            1.798227592398    -1.817923823329    -1.451570482083
    H            1.196310118625    -0.379868900919    -2.267949448612

  Mulliken Charges: (a.u.)
   Center  Symbol    Alpha    Beta     Spin     Total
       1     O     4.28286  4.28286  0.00000 -0.56572
       2     C     2.62011  2.62011  0.00000  0.75977
       3     C     3.28230  3.28230  0.00000 -0.56459
       4     O     4.30795  4.30795  0.00000 -0.61591
       5     H     0.40069  0.40069  0.00000  0.19861
       6     H     0.39715  0.39715  0.00000  0.20569
       7     H     0.40039  0.40039  0.00000  0.19922
       8     C     3.01252  3.01252  0.00000 -0.02504
       9     C     3.24723  3.24723  0.00000 -0.49446
      10     H     0.41348  0.41348  0.00000  0.17304
      11     H     0.39330  0.39330  0.00000  0.21340
      12     H     0.41732  0.41732  0.00000  0.16536
      13     H     0.41216  0.41216  0.00000  0.17568
      14     H     0.41252  0.41252  0.00000  0.17496

   Total alpha = 24.00000, Total beta = 24.00000, Total charge = -0.00000
