                              Psi4 1.0.54 Driver

  ==> Input File <==

--------------------------------------------------------------------------
set {
	reference rhf
	basis cc-pvtz
}

set_num_threads( 4 )
memory 2 gb

molecule MOL {
0 1

H	 0.784030	 3.360763	 -1.560757
O	 1.506559	 2.892726	 -1.181793
C	 1.104265	 1.742509	 -0.612810
C	 2.073931	 0.951141	 -0.013974
C	 -0.213999	 1.339364	 -0.609243
H	 3.093039	 1.283366	 -0.028102
C	 1.721034	 -0.236781	 0.584072
H	 -0.982341	 1.929792	 -1.063493
C	 -0.532034	 0.141680	 0.000000
H	 2.477194	 -0.841831	 1.044380
C	 0.403459	 -0.663005	 0.600514
N	 -1.937041	 -0.281114	 0.000000
H	 0.114819	 -1.582514	 1.060855
O	 -2.159542	 -1.446261	 0.000000
O	 -2.764978	 0.565773	 0.000000

	symmetry c1
}
set optking {
	frozen_dihedral = ("
		11 9 12 14
	")
}

ee,wfn = optimize('scf', return_wfn=True)
oeprop( wfn, 'DIPOLE', 'QUADRUPOLE', 'MULLIKEN_CHARGES')
f=open( 'psi4out.xyz', 'w' )
f.write( "15  " )
f.write( str(ee) + "\n" )
f.write( MOL.save_string_xyz() )
f.close()
--------------------------------------------------------------------------

    Molecular point group: c1
  Charge       = 0
  Multiplicity = 1
  Basis Set: CC-PVTZ
  Basis Set:
  @DF-RHF Final Energy:  -509.21741995078440
    Total Energy =                       -509.2174199507842332
    Molecular point group: c1
  Basis Set: CC-PVTZ
  Basis Set:
  Basis Set: CC-PVTZ
  Basis Set:
  @DF-RHF Final Energy:  -509.20956937445447
    Total Energy =                       -509.2095693744545315
  Basis Set: CC-PVTZ
  Basis Set:
  Basis Set: CC-PVTZ
  Basis Set:
  @DF-RHF Final Energy:  -509.21619155093288
    Total Energy =                       -509.2161915509327628
  Basis Set: CC-PVTZ
  Basis Set:
  Basis Set: CC-PVTZ
  Basis Set:
  @DF-RHF Final Energy:  -509.21754426048676
    Total Energy =                       -509.2175442604866475
  Basis Set: CC-PVTZ
  Basis Set:
  Basis Set: CC-PVTZ
  Basis Set:
  @DF-RHF Final Energy:  -509.21748224179635
    Total Energy =                       -509.2174822417957785
  Basis Set: CC-PVTZ
  Basis Set:
  Basis Set: CC-PVTZ
  Basis Set:
  @DF-RHF Final Energy:  -509.21761940563431
    Total Energy =                       -509.2176194056340819
  Basis Set: CC-PVTZ
  Basis Set:
  Basis Set: CC-PVTZ
  Basis Set:
  @DF-RHF Final Energy:  -509.21762011339843
    Total Energy =                       -509.2176201133988798
  Basis Set: CC-PVTZ
  Basis Set:
  Charge       = 0
  Multiplicity = 1
  Basis Set: CC-PVTZ
  Basis Set:

    Orbital Energies (a.u.)
    -----------------------

    Doubly Occupied:

       1A    -20.609048     2A    -20.596267     3A    -20.595689
       4A    -15.850293     5A    -11.328573     6A    -11.310020
       7A    -11.263806     8A    -11.263408     9A    -11.258825
      10A    -11.255421    11A     -1.644661    12A     -1.441742
      13A     -1.427424    14A     -1.203335    15A     -1.096157
      16A     -1.048722    17A     -0.966991    18A     -0.883021
      19A     -0.832293    20A     -0.794677    21A     -0.760542
      22A     -0.741526    23A     -0.726903    24A     -0.711043
      25A     -0.676176    26A     -0.636252    27A     -0.622286
      28A     -0.598132    29A     -0.562300    30A     -0.547810
      31A     -0.525192    32A     -0.494840    33A     -0.492702
      34A     -0.459437    35A     -0.379227    36A     -0.346426

  @DF-RHF Final Energy:  -509.21762034849178

   => Energetics <=

    Nuclear Repulsion Energy =            504.6757454525594540
    One-Electron Energy =               -1695.8844013288157839
    Two-Electron Energy =                 681.9910355277647795
    DFT Exchange-Correlation Energy =       0.0000000000000000
    Empirical Dispersion Energy =           0.0000000000000000
    PCM Polarization Energy =               0.0000000000000000
    EFP Energy =                            0.0000000000000000
    Total Energy =                       -509.2176203484914367
    Molecular point group: c1
  Basis Set: CC-PVTZ
  Basis Set:

  -Total Gradient:
     Atom            X                  Y                   Z
    ------   -----------------  -----------------  -----------------
       1       -0.000000128996    -0.000006344488    -0.000006800642
       2        0.000005980135     0.000011310271     0.000010455595
       3       -0.000015968594    -0.000007222252    -0.000000524085
       4        0.000003161853    -0.000003230098     0.000008408673
       5        0.000028623437     0.000016914724    -0.000044975273
       6        0.000001094758    -0.000000326034    -0.000000500393
       7        0.000018753859    -0.000000502424    -0.000006364665
       8        0.000015398709    -0.000008993267     0.000001729552
       9        0.000592970084    -0.002075137081    -0.004552839554
      10        0.000002924066    -0.000000207629    -0.000000332487
      11       -0.000398125879     0.001378265142     0.002348225332
      12       -0.000212108887     0.000869430536     0.005439696073
      13       -0.000000679713     0.000005173104    -0.000000894409
      14        0.000022237509    -0.000120932632    -0.003190464302
      15       -0.000064132345    -0.000058197881    -0.000004819415

  **** Optimization is complete! (in 8 steps) ****
    Final optimized geometry and variables:
    Molecular point group: c1

    Geometry (in Angstrom), charge = 0, multiplicity = 1:

    H            0.938555012324     2.841908642948    -1.419611836523
    O            1.659543170332     2.375743520961    -1.035514489437
    C            1.256100757511     1.228637966462    -0.462232190778
    C            2.221522229275     0.449112826318     0.159085982906
    C           -0.061016649577     0.819784125568    -0.469039709743
    H            3.237761564657     0.790068389103     0.160578405654
    C            1.867936372694    -0.735937394438     0.762413236558
    H           -0.831255068494     1.411942005154    -0.919522424665
    C           -0.373408501098    -0.384461700295     0.127089247421
    H            2.619892360538    -1.326747235979     1.247512769439
    C            0.554971287460    -1.177147886437     0.751590646205
    N           -1.776210936986    -0.804815862340     0.133254123170
    H            0.265440859914    -2.100523912567     1.205586412523
    O           -1.996061171140    -1.968574626382     0.162088357775
    O           -2.601915972856     0.045521400832     0.087579765193

  Mulliken Charges: (a.u.)
   Center  Symbol    Alpha    Beta     Spin     Total
       1     H     0.38428  0.38428  0.00000  0.23145
       2     O     4.16809  4.16809  0.00000 -0.33618
       3     C     2.84446  2.84446  0.00000  0.31108
       4     C     3.09885  3.09885  0.00000 -0.19770
       5     C     3.13767  3.13767  0.00000 -0.27535
       6     H     0.41336  0.41336  0.00000  0.17328
       7     C     3.05590  3.05590  0.00000 -0.11180
       8     H     0.41180  0.41180  0.00000  0.17640
       9     C     2.95690  2.95690  0.00000  0.08621
      10     H     0.41605  0.41605  0.00000  0.16790
      11     C     3.10132  3.10132  0.00000 -0.20265
      12     N     3.26238  3.26238  0.00000  0.47525
      13     H     0.40361  0.40361  0.00000  0.19278
      14     O     4.17083  4.17083  0.00000 -0.34167
      15     O     4.17450  4.17450  0.00000 -0.34900

   Total alpha = 36.00000, Total beta = 36.00000, Total charge = -0.00000

*** Psi4 exiting successfully. Buy a developer a beer!
