  ==> Input File <==

--------------------------------------------------------------------------
set {
	reference rhf
	basis 6-31G*
}

set_num_threads( 4 )
memory 2 gb

molecule MOL {
0 1

H	 -3.135461	 -1.215070	 0.001379
O	 -2.310168	 -0.871793	 -0.309793
C	 -2.026376	 0.340750	 0.341611
C	 -0.673256	 0.843270	 -0.132153
H	 -2.792215	 1.080697	 0.115987
H	 -2.013526	 0.200402	 1.421792
C	 0.486613	 -0.083066	 0.235839
H	 -0.715586	 0.970948	 -1.210718
H	 -0.508072	 1.829858	 0.297090
C	 0.467305	 -0.507302	 1.705351
H	 1.424329	 0.415162	 0.012298
H	 0.449730	 -0.971152	 -0.394069
C	 1.623073	 -1.437710	 2.071704
H	 0.504923	 0.378730	 2.335628
H	 -0.476830	 -1.000356	 1.928844
H	 2.581786	 -0.959733	 1.891992
H	 1.585103	 -1.720068	 3.119452
H	 1.594134	 -2.349895	 1.482135

	symmetry c1
}
set optking {
	frozen_dihedral = ("
		10 7 4 8
	")
}

ee = optimize('scf')
oeprop('DIPOLE', 'QUADRUPOLE', 'MULLIKEN_CHARGES')
f=open( 'psi4out.xyz', 'w' )
f.write( "18  " )
f.write( str(ee) + "\n" )
f.write( MOL.save_string_xyz() )
f.close()
--------------------------------------------------------------------------

    Molecular point group: c1
  Charge       = 0
  Multiplicity = 1
  Basis Set: 6-31G*
  Basis Set:
  @DF-RHF Final Energy:  -271.17614184760203
    Total Energy =                       -271.1761418476020253
    Molecular point group: c1
  Basis Set: 6-31G*
  Basis Set:
  Basis Set: 6-31G*
  Basis Set:
  @DF-RHF Final Energy:  -271.17708590243126
    Total Energy =                       -271.1770859024312585
  Basis Set: 6-31G*
  Basis Set:
  Basis Set: 6-31G*
  Basis Set:
  @DF-RHF Final Energy:  -271.17778133202512
    Total Energy =                       -271.1777813320252335
  Basis Set: 6-31G*
  Basis Set:
  Basis Set: 6-31G*
  Basis Set:
  @DF-RHF Final Energy:  -271.17785312972205
    Total Energy =                       -271.1778531297218251
  Basis Set: 6-31G*
  Basis Set:
  Basis Set: 6-31G*
  Basis Set:
  @DF-RHF Final Energy:  -271.17785899456590
    Total Energy =                       -271.1778589945655540
  Basis Set: 6-31G*
  Basis Set:
  Basis Set: 6-31G*
  Basis Set:
  @DF-RHF Final Energy:  -271.17786395582891
    Total Energy =                       -271.1778639558289683
  Basis Set: 6-31G*
  Basis Set:
  Charge       = 0
  Multiplicity = 1
  Basis Set: 6-31G*
  Basis Set:

    Orbital Energies (a.u.)
    -----------------------

    Doubly Occupied:

       1A    -20.553920     2A    -11.267238     3A    -11.212478
       4A    -11.209160     5A    -11.206534     6A    -11.203991
       7A     -1.360239     8A     -1.073414     9A     -1.006117
      10A     -0.912732    11A     -0.831917    12A     -0.767122
      13A     -0.704808    14A     -0.644706    15A     -0.625446
      16A     -0.583917    17A     -0.561937    18A     -0.551250
      19A     -0.537588    20A     -0.498658    21A     -0.489309
      22A     -0.460985    23A     -0.455903    24A     -0.447112
      25A     -0.429366

  @DF-RHF Final Energy:  -271.17786439516067

   => Energetics <=

    Nuclear Repulsion Energy =            254.8228735574219570
    One-Electron Energy =                -872.8097789568323606
    Two-Electron Energy =                 346.8090410042498775
    DFT Exchange-Correlation Energy =       0.0000000000000000
    Empirical Dispersion Energy =           0.0000000000000000
    PCM Polarization Energy =               0.0000000000000000
    EFP Energy =                            0.0000000000000000
    Total Energy =                       -271.1778643951604977
    Molecular point group: c1
  Basis Set: 6-31G*
  Basis Set:

  -Total Gradient:
     Atom            X                  Y                   Z
    ------   -----------------  -----------------  -----------------
       1       -0.000006115275    -0.000020405806    -0.000007369355
       2       -0.000056142553    -0.000005639373    -0.000032822822
       3        0.000036198657    -0.000041191719     0.000049795309
       4        0.001644222498     0.001933770778     0.000030757917
       5        0.000003462504    -0.000020428050    -0.000014458387
       6       -0.000006294292     0.000021444420     0.000012646403
       7        0.001277709060     0.001769791343     0.000621169632
       8       -0.001732838401    -0.002116413896    -0.000180129691
       9        0.000041198907     0.000001502985    -0.000012976491
      10       -0.001164131610    -0.001537166250    -0.000427423281
      11       -0.000021136982     0.000008422692     0.000009436307
      12        0.000004326741     0.000011189118    -0.000030934982
      13       -0.000014178509    -0.000018259298    -0.000022353568
      14        0.000006190664     0.000007461002    -0.000001035327
      15       -0.000017579909     0.000005014837     0.000008899640
      16        0.000003525157     0.000005411883     0.000015944860
      17       -0.000015207891    -0.000003995992    -0.000011652216
      18        0.000016791237    -0.000000508674    -0.000007493946

  **** Optimization is complete! (in 7 steps) ****
    Final optimized geometry and variables:
    Molecular point group: c1

    Geometry (in Angstrom), charge = 0, multiplicity = 1:

    H           -2.730121052229    -0.845547288156    -0.644799229663
    O           -1.868468544406    -0.552606639507    -0.904854199826
    C           -1.611095460668     0.713299044438    -0.350727253867
    C           -0.219166259479     1.155511337315    -0.776230323422
    H           -2.340586992007     1.439333774528    -0.705383144637
    H           -1.689689888395     0.679160915462     0.733223396329
    C            0.912699232445     0.192014717632    -0.394674654512
    H           -0.233846529500     1.263085682467    -1.857117226767
    H           -0.034689525523     2.140243828460    -0.351877658980
    C            0.923422245706    -0.257746312642     1.068208815901
    H            1.860136050245     0.672328637975    -0.630296238501
    H            0.848859582957    -0.688508895348    -1.026238634831
    C            2.149170531243    -1.105750835531     1.407737762305
    H            0.896383673676     0.611971643906     1.723419097538
    H            0.026514428963    -0.832657171553     1.275987626318
    H            3.068468819669    -0.546935326365     1.256217898674
    H            2.127694393133    -1.432776780394     2.442936101812
    H            2.195252290688    -1.992395086678     0.781763367439

  Mulliken Charges: (a.u.)
   Center  Symbol    Alpha    Beta     Spin     Total
       1     H     0.28058  0.28058  0.00000  0.43884
       2     O     4.37007  4.37007  0.00000 -0.74015
       3     C     3.00091  3.00091  0.00000 -0.00181
       4     C     3.16182  3.16182  0.00000 -0.32364
       5     H     0.42869  0.42869  0.00000  0.14262
       6     H     0.43002  0.43002  0.00000  0.13996
       7     C     3.14961  3.14961  0.00000 -0.29923
       8     H     0.41457  0.41457  0.00000  0.17085
       9     H     0.42387  0.42387  0.00000  0.15227
      10     C     3.15668  3.15668  0.00000 -0.31336
      11     H     0.42446  0.42446  0.00000  0.15108
      12     H     0.41134  0.41134  0.00000  0.17732
      13     C     3.23904  3.23904  0.00000 -0.47807
      14     H     0.42745  0.42745  0.00000  0.14510
      15     H     0.41655  0.41655  0.00000  0.16689
      16     H     0.42289  0.42289  0.00000  0.15421
      17     H     0.42093  0.42093  0.00000  0.15815
      18     H     0.42052  0.42052  0.00000  0.15896

   Total alpha = 25.00000, Total beta = 25.00000, Total charge = -0.00000
