  ==> Input File <==

--------------------------------------------------------------------------
set {
	reference rhf
	basis 6-31G*
}

set_num_threads( 4 )
memory 2 gb

molecule MOL {
0 1

H	 3.299469	 -0.432053	 -0.021001
C	 2.239653	 -0.249868	 -0.016486
C	 1.564583	 -0.133822	 1.192511
C	 1.556261	 -0.132392	 -1.215299
H	 2.102055	 -0.226215	 2.118855
C	 0.203541	 0.100144	 1.201921
H	 2.081823	 -0.222737	 -2.148501
C	 0.190845	 0.102326	 -1.204515
H	 -0.336624	 0.192999	 2.125366
C	 -0.488460	 0.219100	 0.000000
H	 -0.345928	 0.194599	 -2.133120
C	 -1.949954	 0.470334	 0.000000
O	 -2.781584	 -0.381627	 0.000000
H	 -2.238022	 1.526388	 0.000000

	symmetry c1
}
set optking {
	frozen_dihedral = ("
		8 10 12 14
	")
}

ee = optimize('scf')
oeprop('DIPOLE', 'QUADRUPOLE', 'MULLIKEN_CHARGES')
f=open( 'psi4out.xyz', 'w' )
f.write( "14  " )
f.write( str(ee) + "\n" )
f.write( MOL.save_string_xyz() )
f.close()
--------------------------------------------------------------------------

    Molecular point group: c1
  Charge       = 0
  Multiplicity = 1
  Basis Set: 6-31G*
  Basis Set:
  @DF-RHF Final Energy:  -343.41837956844097
    Total Energy =                       -343.4183795684408551
    Molecular point group: c1
  Basis Set: 6-31G*
  Basis Set:
  Basis Set: 6-31G*
  Basis Set:
  @DF-RHF Final Energy:  -343.41876108763671
    Total Energy =                       -343.4187610876364829
  Basis Set: 6-31G*
  Basis Set:
  Basis Set: 6-31G*
  Basis Set:
  @DF-RHF Final Energy:  -343.41874505197870
    Total Energy =                       -343.4187450519787603
  Basis Set: 6-31G*
  Basis Set:
  Basis Set: 6-31G*
  Basis Set:
  @DF-RHF Final Energy:  -343.41876916484625
    Total Energy =                       -343.4187691648461964
  Basis Set: 6-31G*
  Basis Set:
  Charge       = 0
  Multiplicity = 1
  Basis Set: 6-31G*
  Basis Set:

    Orbital Energies (a.u.)
    -----------------------

    Doubly Occupied:

       1A    -20.573210     2A    -11.336377     3A    -11.251702
       4A    -11.246997     5A    -11.246835     6A    -11.243947
       7A    -11.243448     8A    -11.241980     9A     -1.412043
      10A     -1.168796    11A     -1.044495    12A     -1.028665
      13A     -0.886681    14A     -0.840413    15A     -0.794765
      16A     -0.720431    17A     -0.676883    18A     -0.651129
      19A     -0.640739    20A     -0.616343    21A     -0.600264
      22A     -0.532402    23A     -0.528625    24A     -0.512168
      25A     -0.501446    26A     -0.421862    27A     -0.346583
      28A     -0.345685

  @DF-RHF Final Energy:  -343.41877915268861

   => Energetics <=

    Nuclear Repulsion Energy =            322.2115272067795217
    One-Electron Energy =               -1103.9507820442718184
    Two-Electron Energy =                 438.3204756848036823
    DFT Exchange-Correlation Energy =       0.0000000000000000
    Empirical Dispersion Energy =           0.0000000000000000
    PCM Polarization Energy =               0.0000000000000000
    EFP Energy =                            0.0000000000000000
    Total Energy =                       -343.4187791526886713
    Molecular point group: c1
  Basis Set: 6-31G*
  Basis Set:

  -Total Gradient:
     Atom            X                  Y                   Z
    ------   -----------------  -----------------  -----------------
       1       -0.000007925495    -0.000002052637     0.000013944556
       2        0.000026484489    -0.000023590347    -0.000249918160
       3       -0.000199096541     0.000063027394     0.000127149038
       4        0.000196439001    -0.000022066160     0.000127324164
       5        0.000007201071    -0.000009594484     0.000002979480
       6        0.000112455278    -0.000026897030     0.000077934921
       7       -0.000014840012     0.000000212965    -0.000024403497
       8       -0.000206411048     0.000127167125     0.000098775254
       9        0.000011379539    -0.000002706809     0.000003873543
      10        0.000102441509    -0.000131689107    -0.000214420076
      11        0.000021151728    -0.000009628078    -0.000003223958
      12       -0.000127411731     0.000079424658     0.000151619555
      13        0.000030486955    -0.000014549331    -0.000005256051
      14        0.000047645268    -0.000027058160    -0.000106378769

  **** Optimization is complete! (in 5 steps) ****
    Final optimized geometry and variables:
    Molecular point group: c1

    Geometry (in Angstrom), charge = 0, multiplicity = 1:

    H            3.309148021158    -0.429370777559    -0.011575544275
    C            2.249666167369    -0.246657113368    -0.007760472480
    C            1.570241083262    -0.129544649922     1.194421756709
    C            1.561503791223    -0.128887890729    -1.204208651993
    H            2.100533192902    -0.223640839987     2.124924349544
    C            0.205450653032     0.105636618774     1.200941215350
    H            2.084399712741    -0.222188636310    -2.138977621973
    C            0.196115738973     0.106138048360    -1.200269921911
    H           -0.319503644617     0.191385741345     2.136121489916
    C           -0.485758465317     0.220890549551     0.002725370336
    H           -0.335807508740     0.191912955244    -2.131470749068
    C           -1.964996150670     0.482363972540     0.008357292672
    O           -2.788229310367    -0.373259934239     0.004734965435
    H           -2.263753478067     1.534727765313     0.014811894365

  Mulliken Charges: (a.u.)
   Center  Symbol    Alpha    Beta     Spin     Total
       1     H     0.39598  0.39598  0.00000  0.20805
       2     C     3.09865  3.09865  0.00000 -0.19729
       3     C     3.09779  3.09779  0.00000 -0.19557
       4     C     3.09777  3.09777  0.00000 -0.19553
       5     H     0.39532  0.39532  0.00000  0.20935
       6     C     3.10447  3.10447  0.00000 -0.20894
       7     H     0.39532  0.39532  0.00000  0.20937
       8     C     3.10446  3.10446  0.00000 -0.20892
       9     H     0.39206  0.39206  0.00000  0.21587
      10     C     3.02945  3.02945  0.00000 -0.05889
      11     H     0.39198  0.39198  0.00000  0.21603
      12     C     2.85353  2.85353  0.00000  0.29295
      13     O     4.22019  4.22019  0.00000 -0.44038
      14     H     0.42305  0.42305  0.00000  0.15390

   Total alpha = 28.00000, Total beta = 28.00000, Total charge =  0.00000
