  ==> Input File <==

--------------------------------------------------------------------------
set {
	reference rhf
	basis 6-31G*
}

set_num_threads( 4 )
memory 2 gb

molecule MOL {
0 1

H	 -2.646374	 -0.642757	 1.268656
C	 -2.083525	 -0.384536	 0.393091
O	 -0.807605	 -0.127164	 0.768327
F	 -2.118945	 -1.383102	 -0.486752
F	 -2.621877	 0.670592	 -0.209486
C	 0.084052	 0.273579	 -0.209957
C	 1.353033	 -0.546803	 -0.018071
Cl	 0.433844	 2.004619	 -0.074457
H	 -0.288836	 0.092657	 -1.202930
F	 1.304051	 -1.645049	 -0.741669
F	 1.445055	 -0.895782	 1.249676
F	 2.430457	 0.125197	 -0.342951

	symmetry c1
}
set optking {
	frozen_dihedral = ("
		10 7 6 9
	")
}

ee = optimize('scf')
oeprop('DIPOLE', 'QUADRUPOLE', 'MULLIKEN_CHARGES')
f=open( 'psi4out.xyz', 'w' )
f.write( "12  " )
f.write( str(ee) + "\n" )
f.write( MOL.save_string_xyz() )
f.close()
--------------------------------------------------------------------------

    Molecular point group: c1
  Charge       = 0
  Multiplicity = 1
  Basis Set: 6-31G*
  Basis Set:
  @DF-RHF Final Energy: -1146.30745046138054
    Total Energy =                      -1146.3074504613803128
    Molecular point group: c1
  Basis Set: 6-31G*
  Basis Set:
  Basis Set: 6-31G*
  Basis Set:
  @DF-RHF Final Energy: -1146.30828969686127
    Total Energy =                      -1146.3082896968608111
  Basis Set: 6-31G*
  Basis Set:
  Basis Set: 6-31G*
  Basis Set:
  @DF-RHF Final Energy: -1146.30954203902274
    Total Energy =                      -1146.3095420390222898
  Basis Set: 6-31G*
  Basis Set:
  Basis Set: 6-31G*
  Basis Set:
  @DF-RHF Final Energy: -1146.30960659724883
    Total Energy =                      -1146.3096065972474662
  Basis Set: 6-31G*
  Basis Set:
  @DF-RHF Final Energy: -1146.30961828605450
    Total Energy =                      -1146.3096182860540466
  @DF-RHF Final Energy: -1146.30962171389911
    Total Energy =                      -1146.3096217138993325
  Basis Set: 6-31G*
  Basis Set:
  @DF-RHF Final Energy: -1146.30962449246022
    Total Energy =                      -1146.3096244924597613
  Basis Set: 6-31G*
  Basis Set:
  Basis Set: 6-31G*
  Basis Set:
  @DF-RHF Final Energy: -1146.30962364051675
    Total Energy =                      -1146.3096236405158379
  Basis Set: 6-31G*
  Basis Set:
  Basis Set: 6-31G*
  Basis Set:
  @DF-RHF Final Energy: -1146.30962034715571
    Total Energy =                      -1146.3096203471554873
  Basis Set: 6-31G*
  Basis Set:
  Charge       = 0
  Multiplicity = 1
  Basis Set: 6-31G*
  Basis Set:

    Orbital Energies (a.u.)
    -----------------------

    Doubly Occupied:

       1A   -104.844549     2A    -26.359262     3A    -26.358343
       4A    -26.356792     5A    -26.345602     6A    -26.345336
       7A    -20.647704     8A    -11.528657     9A    -11.488370
      10A    -11.400946    11A    -10.579226    12A     -8.048597
      13A     -8.045011    14A     -8.044972    15A     -1.761231
      16A     -1.716786    17A     -1.658384    18A     -1.654146
      19A     -1.637569    20A     -1.483635    21A     -1.178969
      22A     -1.051256    23A     -0.985120    24A     -0.918970
      25A     -0.858574    26A     -0.851244    27A     -0.844887
      28A     -0.823299    29A     -0.810192    30A     -0.790274
      31A     -0.724957    32A     -0.724200    33A     -0.705227
      34A     -0.701569    35A     -0.677164    36A     -0.674590
      37A     -0.657624    38A     -0.657059    39A     -0.646179
      40A     -0.632174    41A     -0.596217    42A     -0.579855
      43A     -0.523800    44A     -0.475923    45A     -0.469430

  @DF-RHF Final Energy: -1146.30962556000259

   => Energetics <=

    Nuclear Repulsion Energy =            736.5767823696876349
    One-Electron Energy =               -3056.0450741268086858
    Two-Electron Energy =                1173.1586661971182366
    DFT Exchange-Correlation Energy =       0.0000000000000000
    Empirical Dispersion Energy =           0.0000000000000000
    PCM Polarization Energy =               0.0000000000000000
    EFP Energy =                            0.0000000000000000
    Total Energy =                      -1146.3096255600025870
    Molecular point group: c1
  Basis Set: 6-31G*
  Basis Set:

  -Total Gradient:
     Atom            X                  Y                   Z
    ------   -----------------  -----------------  -----------------
       1       -0.000005395498    -0.000006074898    -0.000011846800
       2        0.000064276212     0.000018712015     0.000009473220
       3        0.000018533933     0.000015513100     0.000021232957
       4       -0.000014155756    -0.000023073888     0.000003943130
       5       -0.000050485719     0.000029416989    -0.000014964078
       6        0.005645908149     0.007537830082    -0.004736213053
       7       -0.004169442701    -0.004827294175     0.006573223336
       8       -0.000000886519    -0.000028133912    -0.000016491347
       9       -0.004075496200    -0.005579364759     0.002816484651
      10        0.002611734233     0.002905646745    -0.004767978022
      11        0.000057463821    -0.000005209671     0.000073927077
      12       -0.000082053983    -0.000037967605     0.000049208922

  **** Optimization is complete! (in 10 steps) ****
    Final optimized geometry and variables:
    Molecular point group: c1

    Geometry (in Angstrom), charge = 0, multiplicity = 1:

    H           -2.660857468251    -0.666024007915     1.223946986399
    C           -2.087801937420    -0.386511619685     0.361597911135
    O           -0.812850683532    -0.156521622373     0.754858568197
    F           -2.126537122007    -1.359284282902    -0.548206750882
    F           -2.612797055452     0.690183075490    -0.213743178415
    C            0.094047659295     0.274558747517    -0.204232460138
    C            1.371229204637    -0.553006768728     0.003029848295
    CL           0.384063653043     2.009741941264    -0.051182798931
    H           -0.284878520159     0.057572520721    -1.187031136144
    F            1.263007455108    -1.665449529457    -0.701315792297
    F            1.567755203168    -0.860034451777     1.259731298022
    F            2.435473659780     0.079476468255    -0.441048321491

  Mulliken Charges: (a.u.)
   Center  Symbol    Alpha    Beta     Spin     Total
       1     H     0.40147  0.40147  0.00000  0.19706
       2     C     2.56646  2.56646  0.00000  0.86709
       3     O     4.29795  4.29795  0.00000 -0.59589
       4     F     4.68701  4.68701  0.00000 -0.37403
       5     F     4.68398  4.68398  0.00000 -0.36797
       6     C     3.05864  3.05864  0.00000 -0.11728
       7     C     2.42937  2.42937  0.00000  1.14126
       8    CL     8.49468  8.49468  0.00000  0.01064
       9     H     0.36535  0.36535  0.00000  0.26929
      10     F     4.67723  4.67723  0.00000 -0.35446
      11     F     4.66588  4.66588  0.00000 -0.33175
      12     F     4.67198  4.67198  0.00000 -0.34396

   Total alpha = 45.00000, Total beta = 45.00000, Total charge =  0.00000
