  ==> Input File <==

--------------------------------------------------------------------------
set {
	reference rhf
	basis 6-31G*
}

set_num_threads( 4 )
memory 2 gb

molecule MOL {
0 1

O	 2.862325	 1.357334	 0.000267
C	 2.843464	 0.164689	 -0.000222
C	 1.546494	 -0.624492	 -0.000609
C	 4.124123	 -0.644674	 -0.000428
C	 0.291004	 0.242674	 0.000989
H	 1.557904	 -1.283758	 -0.867573
H	 1.558622	 -1.285963	 0.864672
C	 -0.856380	 -0.388347	 0.791611
H	 -0.020239	 0.419878	 -1.023636
H	 0.532120	 1.216994	 0.414162
C	 -2.121161	 0.471890	 0.798981
H	 -1.090676	 -1.366549	 0.374149
H	 -0.536943	 -0.564841	 1.817709
C	 -3.273487	 -0.152645	 1.587723
H	 -2.441797	 0.648372	 -0.226233
H	 -1.888336	 1.449710	 1.216900
C	 -4.533400	 0.712396	 1.590279
H	 -3.507921	 -1.129624	 1.170140
H	 -2.954671	 -0.328141	 2.613109
H	 -4.897126	 0.878090	 0.580131
H	 -5.332131	 0.243151	 2.156441
H	 -4.340275	 1.684830	 2.034374
H	 4.165367	 -1.288615	 -0.874074
H	 4.976217	 0.020734	 -0.001915
H	 4.166763	 -1.286207	 0.874930

	symmetry c1
}
set optking {
	frozen_dihedral = ("
		9 5 3 6
	")
}

ee = optimize('scf')
oeprop('DIPOLE', 'QUADRUPOLE', 'MULLIKEN_CHARGES')
f=open( 'psi4out.xyz', 'w' )
f.write( "25  " )
f.write( str(ee) + "\n" )
f.write( MOL.save_string_xyz() )
f.close()
--------------------------------------------------------------------------

    Molecular point group: c1
  Charge       = 0
  Multiplicity = 1
  Basis Set: 6-31G*
  Basis Set:
  @DF-RHF Final Energy:  -387.13348827714833
    Total Energy =                       -387.1334882771482171
    Molecular point group: c1
  Basis Set: 6-31G*
  Basis Set:
  Basis Set: 6-31G*
  Basis Set:
  @DF-RHF Final Energy:  -387.13375305351957
    Total Energy =                       -387.1337530535199676
  Basis Set: 6-31G*
  Basis Set:
  Basis Set: 6-31G*
  Basis Set:
  @DF-RHF Final Energy:  -387.13377128900316
    Total Energy =                       -387.1337712890033345
  Basis Set: 6-31G*
  Basis Set:
  Basis Set: 6-31G*
  Basis Set:
  @DF-RHF Final Energy:  -387.13381475546436
    Total Energy =                       -387.1338147554647549
  Basis Set: 6-31G*
  Basis Set:
  Basis Set: 6-31G*
  Basis Set:
  @DF-RHF Final Energy:  -387.13382583521758
    Total Energy =                       -387.1338258352172943
  Basis Set: 6-31G*
  Basis Set:
  Charge       = 0
  Multiplicity = 1
  Basis Set: 6-31G*
  Basis Set:

    Orbital Energies (a.u.)
    -----------------------

    Doubly Occupied:

       1A    -20.550760     2A    -11.326688     3A    -11.232099
       4A    -11.228419     5A    -11.216505     6A    -11.215654
       7A    -11.215076     8A    -11.213068     9A    -11.208092
      10A     -1.396140    11A     -1.092601    12A     -1.055727
      13A     -1.014461    14A     -0.968505    15A     -0.890804
      16A     -0.814131    17A     -0.790462    18A     -0.729035
      19A     -0.664232    20A     -0.647579    21A     -0.632552
      22A     -0.623537    23A     -0.595767    24A     -0.583677
      25A     -0.569410    26A     -0.559265    27A     -0.538028
      28A     -0.525739    29A     -0.514231    30A     -0.492726
      31A     -0.484789    32A     -0.472666    33A     -0.463562
      34A     -0.461475    35A     -0.448444    36A     -0.399591

  @DF-RHF Final Energy:  -387.13382593880135

   => Energetics <=

    Nuclear Repulsion Energy =            438.6151354050873579
    One-Electron Energy =               -1393.8269294862575407
    Two-Electron Energy =                 568.0779681423691727
    DFT Exchange-Correlation Energy =       0.0000000000000000
    Empirical Dispersion Energy =           0.0000000000000000
    PCM Polarization Energy =               0.0000000000000000
    EFP Energy =                            0.0000000000000000
    Total Energy =                       -387.1338259388010101
    Molecular point group: c1
  Basis Set: 6-31G*
  Basis Set:

  -Total Gradient:
     Atom            X                  Y                   Z
    ------   -----------------  -----------------  -----------------
       1       -0.000016032363     0.000022498945     0.000002254758
       2       -0.000007320030     0.000046915161     0.000033469450
       3       -0.002664512877    -0.003847580176     0.002403574331
       4       -0.000024671028    -0.000040814571    -0.000050256032
       5        0.002963473183     0.004284824017    -0.000668293516
       6        0.001721456276     0.002516139159    -0.001907223651
       7        0.000035628234     0.000015585282     0.000022048021
       8       -0.000000194941    -0.000029792477     0.000029313332
       9       -0.002056202977    -0.002901234807     0.000083153799
      10        0.000033244533    -0.000045935614     0.000028702672
      11        0.000017703067     0.000010862553    -0.000013996015
      12        0.000000118681    -0.000006166885     0.000014103773
      13       -0.000016464353     0.000005114875     0.000018026143
      14        0.000008088873    -0.000020424635    -0.000001799104
      15        0.000006695461     0.000000411222    -0.000007099524
      16       -0.000006849507     0.000001010812     0.000005917061
      17        0.000009539142     0.000008427838    -0.000008402676
      18       -0.000003696668    -0.000000438540    -0.000002217519
      19        0.000005297033    -0.000002923797    -0.000004523581
      20       -0.000003409349     0.000000246586    -0.000000600466
      21        0.000007828439    -0.000002446389     0.000001037981
      22        0.000000060229     0.000001295740    -0.000000467434
      23        0.000022726306    -0.000024079512     0.000004774125
      24       -0.000029923803     0.000005100323     0.000007330706
      25       -0.000002581569     0.000003404890     0.000011173369

  **** Optimization is complete! (in 6 steps) ****
    Final optimized geometry and variables:
    Molecular point group: c1

    Geometry (in Angstrom), charge = 0, multiplicity = 1:

    O            2.818400373037     1.220247337301    -0.568961170039
    C            2.768486546143     0.028884671670    -0.549994214029
    C            1.456530953992    -0.739320779042    -0.491967253769
    C            4.029209625381    -0.811186875344    -0.587283579098
    C            0.204385768177     0.143816369497    -0.468724322324
    H            1.450463429756    -1.395608767007    -1.360181367152
    H            1.498128727423    -1.390975310221     0.378604594205
    C           -0.954542065338    -0.503457564537     0.295487575845
    H           -0.120593114274     0.328264592840    -1.488803299693
    H            0.446014588149     1.104363019043    -0.031925617952
    C           -2.229436528051     0.340729863249     0.274695007700
    H           -1.167085933321    -1.485476791614    -0.125151614444
    H           -0.653416454233    -0.673621049021     1.328092883862
    C           -3.387978284115    -0.292739260584     1.047082478222
    H           -2.534645850823     0.506536923506    -0.757178390293
    H           -2.015606191871     1.324071542350     0.689831923303
    C           -4.658310417972     0.556519676961     1.021019648881
    H           -3.602751182079    -1.275510525882     0.632420012761
    H           -3.085415746344    -0.456964390165     2.079167641773
    H           -5.006723732320     0.709655410975     0.003480842385
    H           -5.460791957647     0.081851123464     1.577253359875
    H           -4.484785683153     1.534730043029     1.460431082006
    H            4.027033480541    -1.459626085260    -1.458583568920
    H            4.895986515799    -0.165990303120    -0.620440961242
    H            4.085744053975    -1.449820251302     0.289366927439

  Mulliken Charges: (a.u.)
   Center  Symbol    Alpha    Beta     Spin     Total
       1     O     4.26033  4.26033  0.00000 -0.52065
       2     C     2.73855  2.73855  0.00000  0.52290
       3     C     3.21177  3.21177  0.00000 -0.42354
       4     C     3.28697  3.28697  0.00000 -0.57394
       5     C     3.15208  3.15208  0.00000 -0.30415
       6     H     0.40838  0.40838  0.00000  0.18325
       7     H     0.40860  0.40860  0.00000  0.18279
       8     C     3.15553  3.15553  0.00000 -0.31107
       9     H     0.41857  0.41857  0.00000  0.16285
      10     H     0.39948  0.39948  0.00000  0.20104
      11     C     3.15119  3.15119  0.00000 -0.30238
      12     H     0.42528  0.42528  0.00000  0.14944
      13     H     0.42401  0.42401  0.00000  0.15198
      14     C     3.15142  3.15142  0.00000 -0.30283
      15     H     0.42358  0.42358  0.00000  0.15285
      16     H     0.42160  0.42160  0.00000  0.15681
      17     C     3.23932  3.23932  0.00000 -0.47864
      18     H     0.42376  0.42376  0.00000  0.15248
      19     H     0.42324  0.42324  0.00000  0.15353
      20     H     0.42172  0.42172  0.00000  0.15657
      21     H     0.41956  0.41956  0.00000  0.16087
      22     H     0.42113  0.42113  0.00000  0.15774
      23     H     0.40866  0.40866  0.00000  0.18269
      24     H     0.39638  0.39638  0.00000  0.20724
      25     H     0.40890  0.40890  0.00000  0.18219

   Total alpha = 36.00000, Total beta = 36.00000, Total charge =  0.00000
