  ==> Input File <==

--------------------------------------------------------------------------
set {
	reference rhf
	basis cc-pvtz
}

set_num_threads( 4 )
memory 2 gb

molecule MOL {
0 1

O	 2.376865	 2.113563	 -0.188339
C	 1.329003	 2.504810	 -0.587112
C	 0.081910	 1.644456	 -0.567583
C	 1.169883	 3.900863	 -1.145629
C	 0.288398	 0.247429	 0.000314
H	 -0.677430	 2.181454	 -0.003576
H	 -0.297307	 1.594455	 -1.585767
C	 -0.993089	 -0.581367	 -0.000217
H	 0.674901	 0.327656	 1.009915
H	 1.055488	 -0.259803	 -0.573640
C	 -2.258482	 0.271340	 0.000669
H	 -1.002280	 -1.233920	 -0.870484
H	 -1.002061	 -1.235367	 0.868958
C	 -3.544441	 -0.550271	 -0.000253
H	 -2.250545	 0.925250	 -0.867923
H	 -2.250598	 0.923423	 0.870642
C	 -4.804551	 0.308747	 0.000556
H	 -3.553737	 -1.201524	 -0.870151
H	 -3.553831	 -1.203282	 0.868313
H	 -4.842050	 0.949078	 -0.874436
H	 -5.698404	 -0.304480	 -0.000254
H	 -4.842277	 0.947103	 0.876982
H	 0.429747	 4.450242	 -0.574290
H	 2.115358	 4.419668	 -1.109444
H	 0.817279	 3.855649	 -2.170162

	symmetry c1
}
set optking {
	frozen_dihedral = ("
		9 5 8 12
	")
}

ee = optimize('scf')
oeprop('DIPOLE', 'QUADRUPOLE', 'MULLIKEN_CHARGES')
f=open( 'psi4out.xyz', 'w' )
f.write( "25  " )
f.write( str(ee) + "\n" )
f.write( MOL.save_string_xyz() )
f.close()
--------------------------------------------------------------------------

    Molecular point group: c1
  Charge       = 0
  Multiplicity = 1
  Basis Set: CC-PVTZ
  Basis Set:
  @DF-RHF Final Energy:  -387.26354890873426
    Total Energy =                       -387.2635489087344922
    Molecular point group: c1
  Basis Set: CC-PVTZ
  Basis Set:
  Basis Set: CC-PVTZ
  Basis Set:
  @DF-RHF Final Energy:  -387.26492926753190
    Total Energy =                       -387.2649292675318975
  Basis Set: CC-PVTZ
  Basis Set:
  Basis Set: CC-PVTZ
  Basis Set:
  @DF-RHF Final Energy:  -387.26755203637896
    Total Energy =                       -387.2675520363789019
  Basis Set: CC-PVTZ
  Basis Set:
  Basis Set: CC-PVTZ
  Basis Set:
  @DF-RHF Final Energy:  -387.26786801607807
    Total Energy =                       -387.2678680160785234
  Basis Set: CC-PVTZ
  Basis Set:
  Basis Set: CC-PVTZ
  Basis Set:
  @DF-RHF Final Energy:  -387.26782166118147
    Total Energy =                       -387.2678216611818698
  Basis Set: CC-PVTZ
  Basis Set:
  Basis Set: CC-PVTZ
  Basis Set:
  @DF-RHF Final Energy:  -387.26781681331079
    Total Energy =                       -387.2678168133106738
  Basis Set: CC-PVTZ
  Basis Set:
  Basis Set: CC-PVTZ
  Basis Set:
  @DF-RHF Final Energy:  -387.26791437276279
    Total Energy =                       -387.2679143727634710
  Basis Set: CC-PVTZ
  Basis Set:
  Charge       = 0
  Multiplicity = 1
  Basis Set: CC-PVTZ
  Basis Set:

    Orbital Energies (a.u.)
    -----------------------

    Doubly Occupied:

       1A    -20.538701     2A    -11.320302     3A    -11.229826
       4A    -11.226375     5A    -11.215969     6A    -11.215422
       7A    -11.215023     8A    -11.214510     9A    -11.209198
      10A     -1.398810    11A     -1.094805    12A     -1.056995
      13A     -1.014866    14A     -0.968996    15A     -0.901193
      16A     -0.817952    17A     -0.787174    18A     -0.729367
      19A     -0.660194    20A     -0.655969    21A     -0.634700
      22A     -0.624606    23A     -0.596666    24A     -0.584475
      25A     -0.569361    26A     -0.561640    27A     -0.544988
      28A     -0.529472    29A     -0.520241    30A     -0.495477
      31A     -0.493108    32A     -0.476617    33A     -0.461407
      34A     -0.454152    35A     -0.448478    36A     -0.402913

  @DF-RHF Final Energy:  -387.26791496994571

   => Energetics <=

    Nuclear Repulsion Energy =            446.2510598548570329
    One-Electron Energy =               -1409.2980518900171774
    Two-Electron Energy =                 575.7790770652147785
    DFT Exchange-Correlation Energy =       0.0000000000000000
    Empirical Dispersion Energy =           0.0000000000000000
    PCM Polarization Energy =               0.0000000000000000
    EFP Energy =                            0.0000000000000000
    Total Energy =                       -387.2679149699454229
    Molecular point group: c1
  Basis Set: CC-PVTZ
  Basis Set:

  -Total Gradient:
     Atom            X                  Y                   Z
    ------   -----------------  -----------------  -----------------
       1        0.000007392232    -0.000021264748    -0.000024827908
       2       -0.000015095461     0.000010967918     0.000058421471
       3       -0.000024862474     0.000027149320     0.000031180208
       4       -0.000020104844    -0.000018989844    -0.000006359002
       5       -0.003670389941     0.005325665602     0.001855057564
       6       -0.000020939939     0.000034497093     0.000022890800
       7       -0.000006690217    -0.000008042324    -0.000000557154
       8       -0.002514896460     0.004364111537    -0.004238118878
       9        0.003426745744    -0.005160739363    -0.000846688343
      10       -0.000004828187    -0.000063350432    -0.000027316558
      11       -0.000002360549     0.000051849052    -0.000186881231
      12        0.002746755792    -0.004486061305     0.003260739441
      13        0.000022062471    -0.000023500748     0.000037439958
      14        0.000023711791    -0.000029641604     0.000052333359
      15       -0.000045723552    -0.000015589547    -0.000008256465
      16        0.000050392029     0.000031830849    -0.000004401999
      17        0.000039961482     0.000021447639     0.000011337027
      18        0.000000447916     0.000017106557     0.000004079189
      19       -0.000011249573    -0.000031677031     0.000014270225
      20        0.000005015619     0.000003891408     0.000000962267
      21        0.000020991497    -0.000010280898    -0.000003779005
      22       -0.000005751774    -0.000000313834     0.000001918649
      23       -0.000007589629     0.000008966930    -0.000005810866
      24        0.000000705055    -0.000015827849    -0.000000983907
      25        0.000006300982    -0.000012204371     0.000003351157

  **** Optimization is complete! (in 8 steps) ****
    Final optimized geometry and variables:
    Molecular point group: c1

    Geometry (in Angstrom), charge = 0, multiplicity = 1:

    O            3.160587814037     0.945036938481     0.154860107884
    C            2.171060105329     1.412213850685    -0.305935830126
    C            0.852863585210     0.664020641468    -0.334132080579
    C            2.160322372701     2.802064781325    -0.901987959837
    C            0.922786230352    -0.728463879808     0.275952772833
    H            0.119663334552     1.286807919674     0.169186760292
    H            0.529950232928     0.617597176266    -1.371701141888
    C           -0.364937077875    -1.570999880888     0.192108397625
    H            1.263589715613    -0.672631625291     1.302623675747
    H            1.712816222922    -1.272805861198    -0.228062283643
    C           -1.693191920463    -0.822873646343     0.262959409324
    H           -0.330410403154    -2.198798293955    -0.693941497878
    H           -0.336135118509    -2.278622196679     1.016388308401
    C           -2.896955263522    -1.760778859411     0.299258712107
    H           -1.796018116334    -0.154857355282    -0.587183890358
    H           -1.708268609694    -0.193306845589     1.150123477984
    C           -4.230127944167    -1.023117518765     0.362574263761
    H           -2.879876034990    -2.398787318339    -0.580138418434
    H           -2.810566120608    -2.422537240755     1.156424299315
    H           -4.363247835974    -0.379067514207    -0.500466030711
    H           -5.062136009767    -1.717368841244     0.387365097419
    H           -4.292114749522    -0.401653391410     1.249830195631
    H            1.445584507754     3.427899247131    -0.379030428559
    H            3.144808480321     3.238282047182    -0.831510976624
    H            1.852899188576     2.760868212910    -1.941123035395

  Mulliken Charges: (a.u.)
   Center  Symbol    Alpha    Beta     Spin     Total
       1     O     4.17004  4.17004  0.00000 -0.34009
       2     C     2.86301  2.86301  0.00000  0.27397
       3     C     3.11748  3.11748  0.00000 -0.23496
       4     C     3.15121  3.15121  0.00000 -0.30243
       5     C     3.09124  3.09124  0.00000 -0.18248
       6     H     0.44147  0.44147  0.00000  0.11706
       7     H     0.44380  0.44380  0.00000  0.11239
       8     C     3.09836  3.09836  0.00000 -0.19672
       9     H     0.44373  0.44373  0.00000  0.11254
      10     H     0.44298  0.44298  0.00000  0.11404
      11     C     3.09239  3.09239  0.00000 -0.18478
      12     H     0.45066  0.45066  0.00000  0.09869
      13     H     0.44992  0.44992  0.00000  0.10017
      14     C     3.08484  3.08484  0.00000 -0.16969
      15     H     0.45323  0.45323  0.00000  0.09353
      16     H     0.45357  0.45357  0.00000  0.09285
      17     C     3.14993  3.14993  0.00000 -0.29986
      18     H     0.45417  0.45417  0.00000  0.09166
      19     H     0.45269  0.45269  0.00000  0.09462
      20     H     0.45593  0.45593  0.00000  0.08814
      21     H     0.44771  0.44771  0.00000  0.10458
      22     H     0.45520  0.45520  0.00000  0.08960
      23     H     0.45061  0.45061  0.00000  0.09879
      24     H     0.43510  0.43510  0.00000  0.12980
      25     H     0.45072  0.45072  0.00000  0.09856

   Total alpha = 36.00000, Total beta = 36.00000, Total charge = -0.00000
