  ==> Input File <==

--------------------------------------------------------------------------
set {
	reference rhf
	basis 6-31G*
}

set_num_threads( 4 )
memory 2 gb

molecule MOL {
0 1

H	 3.276176	 0.174363	 -0.109463
N	 2.434251	 -0.367735	 -0.081097
C	 1.267428	 0.496480	 0.024474
H	 2.501951	 -0.965776	 0.720575
C	 -0.016086	 -0.325158	 -0.029487
H	 1.288818	 1.183521	 -0.816092
H	 1.267576	 1.109062	 0.929528
C	 -1.282277	 0.529072	 0.046735
H	 -0.012495	 -0.908639	 -0.945788
H	 -0.015903	 -1.041248	 0.791956
C	 -1.121982	 1.891034	 -0.627853
H	 -1.556356	 0.674844	 1.089624
H	 -2.110393	 -0.005306	 -0.414371
H	 -0.323767	 2.464865	 -0.166017
H	 -2.034073	 2.475446	 -0.556620
H	 -0.881274	 1.780460	 -1.681444

	symmetry c1
}
set optking {
	frozen_dihedral = ("
		12 8 5 9
	")
}

ee = optimize('scf')
oeprop('DIPOLE', 'QUADRUPOLE', 'MULLIKEN_CHARGES')
f=open( 'psi4out.xyz', 'w' )
f.write( "16  " )
f.write( str(ee) + "\n" )
f.write( MOL.save_string_xyz() )
f.close()
--------------------------------------------------------------------------

    Molecular point group: c1
  Charge       = 0
  Multiplicity = 1
  Basis Set: 6-31G*
  Basis Set:
  @DF-RHF Final Energy:  -212.31002142278470
    Total Energy =                       -212.3100214227849278
    Molecular point group: c1
  Basis Set: 6-31G*
  Basis Set:
  Basis Set: 6-31G*
  Basis Set:
  @DF-RHF Final Energy:  -212.31131171541443
    Total Energy =                       -212.3113117154142060
  Basis Set: 6-31G*
  Basis Set:
  Basis Set: 6-31G*
  Basis Set:
  @DF-RHF Final Energy:  -212.31254610930284
    Total Energy =                       -212.3125461093028434
  Basis Set: 6-31G*
  Basis Set:
  Basis Set: 6-31G*
  Basis Set:
  @DF-RHF Final Energy:  -212.31265829565641
    Total Energy =                       -212.3126582956566608
  Basis Set: 6-31G*
  Basis Set:
  Basis Set: 6-31G*
  Basis Set:
  @DF-RHF Final Energy:  -212.31266517339088
    Total Energy =                       -212.3126651733908830
  Basis Set: 6-31G*
  Basis Set:
  Basis Set: 6-31G*
  Basis Set:
  @DF-RHF Final Energy:  -212.31267071409499
    Total Energy =                       -212.3126707140949634
  Basis Set: 6-31G*
  Basis Set:
  Charge       = 0
  Multiplicity = 1
  Basis Set: 6-31G*
  Basis Set:

    Orbital Energies (a.u.)
    -----------------------

    Doubly Occupied:

       1A    -15.532578     2A    -11.239702     3A    -11.215306
       4A    -11.209873     5A    -11.208704     6A     -1.176836
       7A     -1.057029     8A     -0.954424     9A     -0.863100
      10A     -0.775434    11A     -0.664088    12A     -0.632275
      13A     -0.606934    14A     -0.590484    15A     -0.547116
      16A     -0.527940    17A     -0.515769    18A     -0.466976
      19A     -0.458887    20A     -0.457010    21A     -0.380979

  @DF-RHF Final Energy:  -212.31267134031003

   => Energetics <=

    Nuclear Repulsion Energy =            188.9941361909031343
    One-Electron Energy =                -660.4507238289065754
    Two-Electron Energy =                 259.1439162976932948
    DFT Exchange-Correlation Energy =       0.0000000000000000
    Empirical Dispersion Energy =           0.0000000000000000
    PCM Polarization Energy =               0.0000000000000000
    EFP Energy =                            0.0000000000000000
    Total Energy =                       -212.3126713403101462
    Molecular point group: c1
  Basis Set: 6-31G*
  Basis Set:

  -Total Gradient:
     Atom            X                  Y                   Z
    ------   -----------------  -----------------  -----------------
       1       -0.000028326886     0.000019232050    -0.000002635008
       2       -0.000048750841    -0.000005590039     0.000009650299
       3        0.000010974106     0.000042795964     0.000005120308
       4        0.000002106952    -0.000009710971     0.000005304656
       5        0.002348334427     0.004065878432    -0.003268995742
       6       -0.000012519859     0.000019467828    -0.000011558250
       7        0.000033088641    -0.000006904395     0.000006725731
       8        0.003186853159     0.004580067541     0.000797662569
       9       -0.002499587088    -0.004164066662     0.002609049376
      10        0.000009022529    -0.000008426144     0.000000203463
      11        0.000001016426     0.000005067695    -0.000012066281
      12       -0.003006186969    -0.004557840904    -0.000129024580
      13       -0.000009940696     0.000002733115     0.000003102192
      14       -0.000012556248     0.000004186039     0.000005999045
      15        0.000005144631     0.000001109741    -0.000015482487
      16        0.000021327716     0.000012000709    -0.000003055291

  **** Optimization is complete! (in 7 steps) ****
    Final optimized geometry and variables:
    Molecular point group: c1

    Geometry (in Angstrom), charge = 0, multiplicity = 1:

    H            3.026559484265    -0.407415930427     0.094325159406
    N            2.154307807291    -0.899927715718     0.089831604533
    C            1.036244941515     0.029944383626     0.155432657799
    H            2.157739190579    -1.504366378398     0.889411407700
    C           -0.281479711803    -0.729712000208     0.050798562031
    H            1.136318084695     0.718040202354    -0.676434931239
    H            1.034625641117     0.635470582523     1.065850922473
    C           -1.557060661240     0.119284404419     0.190931565213
    H           -0.304159116739    -1.297854849077    -0.874359039759
    H           -0.298877707566    -1.484324651416     0.836764362813
    C           -1.539217430860     1.471238354299    -0.522800458211
    H           -1.797963413863     0.247347669940     1.243685856194
    H           -2.383104225104    -0.465567098171    -0.207288047534
    H           -0.806116182339     2.148246533010    -0.096563777576
    H           -2.508951837861     1.953499372432    -0.449368768565
    H           -1.308784664352     1.354766569075    -1.578228671836

  Mulliken Charges: (a.u.)
   Center  Symbol    Alpha    Beta     Spin     Total
       1     H     0.33239  0.33239  0.00000  0.33522
       2     N     3.92200  3.92200  0.00000 -0.84400
       3     C     3.06305  3.06305  0.00000 -0.12610
       4     H     0.33530  0.33530  0.00000  0.32939
       5     C     3.15235  3.15235  0.00000 -0.30470
       6     H     0.41824  0.41824  0.00000  0.16352
       7     H     0.43486  0.43486  0.00000  0.13028
       8     C     3.15622  3.15622  0.00000 -0.31244
       9     H     0.41303  0.41303  0.00000  0.17394
      10     H     0.42674  0.42674  0.00000  0.14652
      11     C     3.24347  3.24347  0.00000 -0.48694
      12     H     0.42273  0.42273  0.00000  0.15454
      13     H     0.42008  0.42008  0.00000  0.15984
      14     H     0.42067  0.42067  0.00000  0.15867
      15     H     0.41877  0.41877  0.00000  0.16247
      16     H     0.42011  0.42011  0.00000  0.15979

   Total alpha = 21.00000, Total beta = 21.00000, Total charge = -0.00000
