  ==> Input File <==

--------------------------------------------------------------------------
set {
	reference rhf
	basis 6-31G*
}

set_num_threads( 4 )
memory 2 gb

molecule MOL {
0 1

H	 -2.174673	 0.439071	 2.524639
C	 -1.729851	 -0.408452	 3.042305
O	 -0.532990	 -0.796322	 2.448655
H	 -1.510206	 -0.120329	 4.061070
H	 -2.453010	 -1.222881	 3.055519
C	 -0.659876	 -1.204647	 1.123355
C	 0.710224	 -1.494316	 0.556677
H	 -1.270944	 -2.106070	 1.062301
H	 -1.139644	 -0.432932	 0.524788
O	 1.392611	 -0.295398	 0.366430
H	 1.251737	 -2.143406	 1.241843
H	 0.601635	 -2.022160	 -0.391628
C	 2.706965	 -0.449871	 -0.062409
H	 2.756559	 -0.644779	 -1.131878
H	 3.305899	 0.433456	 0.155466
H	 3.125548	 -1.294566	 0.467107

	symmetry c1
}
set optking {
	frozen_dihedral = ("
		7 10 13 14
	")
}

ee = optimize('scf')
oeprop('DIPOLE', 'QUADRUPOLE', 'MULLIKEN_CHARGES')
f=open( 'psi4out.xyz', 'w' )
f.write( "16  " )
f.write( str(ee) + "\n" )
f.write( MOL.save_string_xyz() )
f.close()
--------------------------------------------------------------------------

    Molecular point group: c1
  Charge       = 0
  Multiplicity = 1
  Basis Set: 6-31G*
  Basis Set:
  @DF-RHF Final Energy:  -306.97537980197836
    Total Energy =                       -306.9753798019785336
    Molecular point group: c1
  Basis Set: 6-31G*
  Basis Set:
  Basis Set: 6-31G*
  Basis Set:
  @DF-RHF Final Energy:  -306.97649246085876
    Total Energy =                       -306.9764924608587080
  Basis Set: 6-31G*
  Basis Set:
  Basis Set: 6-31G*
  Basis Set:
  @DF-RHF Final Energy:  -306.97678980870779
    Total Energy =                       -306.9767898087077356
  Basis Set: 6-31G*
  Basis Set:
  Charge       = 0
  Multiplicity = 1
  Basis Set: 6-31G*
  Basis Set:

    Orbital Energies (a.u.)
    -----------------------

    Doubly Occupied:

       1A    -20.553456     2A    -20.552721     3A    -11.269061
       4A    -11.268348     5A    -11.263472     6A    -11.263255
       7A     -1.387667     8A     -1.369919     9A     -1.030826
      10A     -0.936174    11A     -0.891848    12A     -0.823822
      13A     -0.683560    14A     -0.680139    15A     -0.656610
      16A     -0.635822    17A     -0.629265    18A     -0.596645
      19A     -0.551966    20A     -0.535500    21A     -0.508595
      22A     -0.477150    23A     -0.462297    24A     -0.419311
      25A     -0.409700

  @DF-RHF Final Energy:  -306.97679144291226

   => Energetics <=

    Nuclear Repulsion Energy =            258.7719366687864522
    One-Electron Energy =                -931.7832017411645893
    Two-Electron Energy =                 366.0344736294656514
    DFT Exchange-Correlation Energy =       0.0000000000000000
    Empirical Dispersion Energy =           0.0000000000000000
    PCM Polarization Energy =               0.0000000000000000
    EFP Energy =                            0.0000000000000000
    Total Energy =                       -306.9767914429124858
    Molecular point group: c1
  Basis Set: 6-31G*
  Basis Set:

  -Total Gradient:
     Atom            X                  Y                   Z
    ------   -----------------  -----------------  -----------------
       1        0.000001982551    -0.000000290178    -0.000002153210
       2        0.000002604526    -0.000001413745     0.000003476539
       3       -0.000002176799    -0.000006240723     0.000027698322
       4        0.000000681825    -0.000000956149    -0.000001252449
       5       -0.000001407906    -0.000000852552     0.000000357179
       6        0.000027094942     0.000094979078    -0.000017782091
       7        0.000678672345    -0.000165200136     0.001908476008
       8        0.000042792601    -0.000004241843    -0.000008668590
       9       -0.000014421802     0.000000660501    -0.000014804229
      10       -0.000819286769     0.000903030267    -0.003037636776
      11        0.000038077049     0.000027962456     0.000010241205
      12       -0.000006644790    -0.000003990443     0.000011671245
      13        0.000055610183    -0.003439622879     0.001511443177
      14        0.000022851182     0.002605257158    -0.000406393733
      15       -0.000043208893     0.000028917501     0.000001035290
      16        0.000016779754    -0.000037998314     0.000014292113

  **** Optimization is complete! (in 4 steps) ****
    Final optimized geometry and variables:
    Molecular point group: c1

    Geometry (in Angstrom), charge = 0, multiplicity = 1:

    H           -2.479681661979     1.226820215166     1.277845501314
    C           -2.043378449862     0.372746586946     1.791996598618
    O           -0.851082561654    -0.025558524911     1.196004547696
    H           -1.820179659692     0.654654914977     2.811721318759
    H           -2.774855244167    -0.434192885844     1.802317413977
    C           -0.983237360012    -0.427799801426    -0.130720143282
    C            0.383251407602    -0.729941546477    -0.699758783708
    H           -1.603474238246    -1.322742424736    -0.194455267068
    H           -1.455945904156     0.350795600051    -0.725885220202
    O            1.079481482742     0.462905344019    -0.879027047694
    H            0.917692685214    -1.388471192406    -0.018795682285
    H            0.266403633833    -1.251786503568    -1.650577508581
    C            2.396546544472     0.310929978818    -1.304322629195
    H            2.448149437584     0.126785275627    -2.375994833580
    H            2.914672304379     1.237747459312    -1.096262549379
    H            2.901179973451    -0.496013706693    -0.778856221214

  Mulliken Charges: (a.u.)
   Center  Symbol    Alpha    Beta     Spin     Total
       1     H     0.42808  0.42808  0.00000  0.14383
       2     C     3.07947  3.07947  0.00000 -0.15894
       3     O     4.30088  4.30088  0.00000 -0.60177
       4     H     0.41132  0.41132  0.00000  0.17736
       5     H     0.43191  0.43191  0.00000  0.13619
       6     C     2.99346  2.99346  0.00000  0.01308
       7     C     2.99320  2.99320  0.00000  0.01361
       8     H     0.43232  0.43232  0.00000  0.13537
       9     H     0.42276  0.42276  0.00000  0.15447
      10     O     4.30202  4.30202  0.00000 -0.60404
      11     H     0.42229  0.42229  0.00000  0.15541
      12     H     0.43266  0.43266  0.00000  0.13467
      13     C     3.07843  3.07843  0.00000 -0.15687
      14     H     0.42951  0.42951  0.00000  0.14097
      15     H     0.41204  0.41204  0.00000  0.17593
      16     H     0.42963  0.42963  0.00000  0.14074

   Total alpha = 25.00000, Total beta = 25.00000, Total charge =  0.00000
