                              Psi4 1.0.54 Driver

  ==> Input File <==

--------------------------------------------------------------------------
set {
	reference rhf
	basis cc-pvtz
}

set_num_threads( 4 )
memory 2 gb

molecule MOL {
0 1

H	 1.128311	 0.207724	 1.465118
C	 1.134565	 0.093781	 0.372499
C	 0.062554	 0.862911	 -0.350953
O	 1.948932	 -0.587720	 -0.146651
C	 0.540969	 2.239780	 -0.822085
H	 -0.801080	 0.942542	 0.296574
H	 -0.219917	 0.267062	 -1.215966
C	 0.836035	 3.204413	 0.322934
H	 -0.220049	 2.664985	 -1.466000
H	 1.427360	 2.121103	 -1.439073
H	 -0.047036	 3.367252	 0.930574
H	 1.161262	 4.165283	 -0.057324
H	 1.615874	 2.826785	 0.975071

	symmetry c1
}
set optking {
	frozen_dihedral = ("
		6 3 2 4
	")
}

ee,wfn = optimize('scf', return_wfn=True)
oeprop( wfn, 'DIPOLE', 'QUADRUPOLE', 'MULLIKEN_CHARGES')
f=open( 'psi4out.xyz', 'w' )
f.write( "13  " )
f.write( str(ee) + "\n" )
f.write( MOL.save_string_xyz() )
f.close()
--------------------------------------------------------------------------

    Molecular point group: c1
  Charge       = 0
  Multiplicity = 1
  Basis Set: CC-PVTZ
  Basis Set:
  @DF-RHF Final Energy:  -231.06839870675188
    Total Energy =                       -231.0683987067519354
    Molecular point group: c1
  Basis Set: CC-PVTZ
  Basis Set:
  Basis Set: CC-PVTZ
  Basis Set:
  @DF-RHF Final Energy:  -231.06879305084334
    Total Energy =                       -231.0687930508432828
  Basis Set: CC-PVTZ
  Basis Set:
  Basis Set: CC-PVTZ
  Basis Set:
  @DF-RHF Final Energy:  -231.06873464040510
    Total Energy =                       -231.0687346404051254
  Basis Set: CC-PVTZ
  Basis Set:
  Basis Set: CC-PVTZ
  Basis Set:
  @DF-RHF Final Energy:  -231.06881052725012
    Total Energy =                       -231.0688105272499229
  Basis Set: CC-PVTZ
  Basis Set:
  Basis Set: CC-PVTZ
  Basis Set:
  @DF-RHF Final Energy:  -231.06882896841091
    Total Energy =                       -231.0688289684109122
  Basis Set: CC-PVTZ
  Basis Set:
  Basis Set: CC-PVTZ
  Basis Set:
  @DF-RHF Final Energy:  -231.06883288596919
    Total Energy =                       -231.0688328859690728
  Basis Set: CC-PVTZ
  Basis Set:
  Basis Set: CC-PVTZ
  Basis Set:
  @DF-RHF Final Energy:  -231.06883676403459
    Total Energy =                       -231.0688367640345859
  Basis Set: CC-PVTZ
  Basis Set:
  Charge       = 0
  Multiplicity = 1
  Basis Set: CC-PVTZ
  Basis Set:

    Orbital Energies (a.u.)
    -----------------------

    Doubly Occupied:

       1A    -20.552400     2A    -11.321334     3A    -11.235648
       4A    -11.233889     5A    -11.221930     6A     -1.407126
       7A     -1.085149     8A     -0.973327     9A     -0.854923
      10A     -0.777296    11A     -0.685895    12A     -0.646860
      13A     -0.613145    14A     -0.601902    15A     -0.563968
      16A     -0.538531    17A     -0.507552    18A     -0.493047
      19A     -0.481791    20A     -0.411508

  @DF-RHF Final Energy:  -231.06883688749926

   => Energetics <=

    Nuclear Repulsion Energy =            174.3286664958773429
    One-Electron Energy =                -658.3805702898393974
    Two-Electron Energy =                 252.9830669064629660
    DFT Exchange-Correlation Energy =       0.0000000000000000
    Empirical Dispersion Energy =           0.0000000000000000
    PCM Polarization Energy =               0.0000000000000000
    EFP Energy =                            0.0000000000000000
    Total Energy =                       -231.0688368874991170
    Molecular point group: c1
  Basis Set: CC-PVTZ
  Basis Set:

  -Total Gradient:
     Atom            X                  Y                   Z
    ------   -----------------  -----------------  -----------------
       1        0.000000444661    -0.000004908992    -0.000002065518
       2       -0.000393942188    -0.000455006149     0.000087735038
       3       -0.000074293190    -0.000321413110    -0.000223274072
       4        0.000286754391     0.000399626451    -0.000023053935
       5        0.000006443568    -0.000000698151    -0.000005684847
       6        0.000175814816     0.000392251009     0.000173740977
       7       -0.000003840667     0.000000545813    -0.000005028412
       8        0.000002053894    -0.000007689998    -0.000001505797
       9        0.000004945643     0.000000562027     0.000001878749
      10       -0.000005507703     0.000000841186     0.000000162176
      11        0.000000420953    -0.000011268907    -0.000000868093
      12       -0.000002980732     0.000002766117    -0.000004622511
      13        0.000003686552     0.000004392700     0.000002586245

  **** Optimization is complete! (in 8 steps) ****
    Final optimized geometry and variables:
    Molecular point group: c1

    Geometry (in Angstrom), charge = 0, multiplicity = 1:

    H            0.168843950262    -0.956008186429     1.579231494469
    C            0.185629669654    -1.073462157545     0.489686034248
    C           -0.853097783147    -0.302616553196    -0.285784263715
    O            1.004870624601    -1.761120092132    -0.015726334459
    C           -0.349409904664     1.090027182609    -0.695413724064
    H           -1.748982003460    -0.202987037514     0.319343503947
    H           -1.094537943031    -0.875687967095    -1.171519440547
    C           -0.055727320190     2.022151020902     0.477289745477
    H           -1.101577142719     1.542515064851    -1.331544079940
    H            0.540709010088     0.971713329900    -1.302997089611
    H           -0.932007247578     2.153749173801     1.103379677511
    H            0.244736413886     2.999675352855     0.120344068582
    H            0.746116942400     1.645844906869     1.102691600582

  Mulliken Charges: (a.u.)
   Center  Symbol    Alpha    Beta     Spin     Total
       1     H     0.45922  0.45922  0.00000  0.08156
       2     C     2.90935  2.90935  0.00000  0.18130
       3     C     3.08952  3.08952  0.00000 -0.17905
       4     O     4.16741  4.16741  0.00000 -0.33482
       5     C     3.09307  3.09307  0.00000 -0.18614
       6     H     0.45086  0.45086  0.00000  0.09828
       7     H     0.43803  0.43803  0.00000  0.12394
       8     C     3.15128  3.15128  0.00000 -0.30256
       9     H     0.44677  0.44677  0.00000  0.10646
      10     H     0.44420  0.44420  0.00000  0.11160
      11     H     0.45415  0.45415  0.00000  0.09169
      12     H     0.44404  0.44404  0.00000  0.11191
      13     H     0.45209  0.45209  0.00000  0.09582

   Total alpha = 20.00000, Total beta = 20.00000, Total charge =  0.00000

*** Psi4 exiting successfully. Buy a developer a beer!
