  ==> Input File <==

--------------------------------------------------------------------------
set {
	reference rhf
	basis cc-pvtz
}

set_num_threads( 4 )
memory 2 gb

molecule MOL {
0 1

H	 2.462362	 2.203948	 1.013070
N	 1.646532	 1.634322	 0.938479
C	 1.860978	 0.530248	 0.016256
H	 0.904127	 2.223075	 0.622957
C	 0.644130	 -0.381765	 -0.031064
H	 2.717608	 -0.034350	 0.368849
H	 2.099921	 0.862428	 -0.994940
C	 -0.678115	 0.376691	 0.025731
H	 0.693998	 -0.977147	 -0.936845
H	 0.693309	 -1.082142	 0.800523
C	 -1.900706	 -0.535531	 -0.022488
H	 -0.725296	 1.079516	 -0.802982
H	 -0.715474	 0.974884	 0.933278
C	 -3.220513	 0.226854	 0.028039
H	 -1.865036	 -1.134397	 -0.928236
H	 -1.857948	 -1.236381	 0.806820
H	 -3.309098	 0.911849	 -0.808725
H	 -4.066838	 -0.449485	 -0.008086
H	 -3.301685	 0.809374	 0.939860

	symmetry c1
}
set optking {
	frozen_dihedral = ("
		6 3 5 9
	")
}

ee = optimize('scf')
oeprop('DIPOLE', 'QUADRUPOLE', 'MULLIKEN_CHARGES')
f=open( 'psi4out.xyz', 'w' )
f.write( "19  " )
f.write( str(ee) + "\n" )
f.write( MOL.save_string_xyz() )
f.close()
--------------------------------------------------------------------------

    Molecular point group: c1
  Charge       = 0
  Multiplicity = 1
  Basis Set: CC-PVTZ
  Basis Set:
  @DF-RHF Final Energy:  -251.44283208742246
    Total Energy =                       -251.4428320874226301
    Molecular point group: c1
  Basis Set: CC-PVTZ
  Basis Set:
  Basis Set: CC-PVTZ
  Basis Set:
  @DF-RHF Final Energy:  -251.44354906230080
    Total Energy =                       -251.4435490623006331
  Basis Set: CC-PVTZ
  Basis Set:
  Basis Set: CC-PVTZ
  Basis Set:
  @DF-RHF Final Energy:  -251.44455371627083
    Total Energy =                       -251.4445537162709456
  Basis Set: CC-PVTZ
  Basis Set:
  Basis Set: CC-PVTZ
  Basis Set:
  @DF-RHF Final Energy:  -251.44462305326769
    Total Energy =                       -251.4446230532677191
  Basis Set: CC-PVTZ
  Basis Set:
  Basis Set: CC-PVTZ
  Basis Set:
  @DF-RHF Final Energy:  -251.44463088241673
    Total Energy =                       -251.4446308824170728
  Basis Set: CC-PVTZ
  Basis Set:
  Basis Set: CC-PVTZ
  Basis Set:
  @DF-RHF Final Energy:  -251.44463438104293
    Total Energy =                       -251.4446343810426470
  Basis Set: CC-PVTZ
  Basis Set:
  Charge       = 0
  Multiplicity = 1
  Basis Set: CC-PVTZ
  Basis Set:

    Orbital Energies (a.u.)
    -----------------------

    Doubly Occupied:

       1A    -15.526098     2A    -11.238960     3A    -11.210542
       4A    -11.208076     5A    -11.207411     6A    -11.204406
       7A     -1.177809     8A     -1.070815     9A     -0.996694
      10A     -0.907057    11A     -0.814436    12A     -0.777869
      13A     -0.665549    14A     -0.653623    15A     -0.613517
      16A     -0.585285    17A     -0.561459    18A     -0.551239
      19A     -0.526527    20A     -0.500140    21A     -0.488106
      22A     -0.463181    23A     -0.459793    24A     -0.444962
      25A     -0.382642

  @DF-RHF Final Energy:  -251.44463454477554

   => Energetics <=

    Nuclear Repulsion Energy =            250.1816185604457417
    One-Electron Energy =                -834.7801163003571219
    Two-Electron Energy =                 333.1538631951355001
    DFT Exchange-Correlation Energy =       0.0000000000000000
    Empirical Dispersion Energy =           0.0000000000000000
    PCM Polarization Energy =               0.0000000000000000
    EFP Energy =                            0.0000000000000000
    Total Energy =                       -251.4446345447759086
    Molecular point group: c1
  Basis Set: CC-PVTZ
  Basis Set:

  -Total Gradient:
     Atom            X                  Y                   Z
    ------   -----------------  -----------------  -----------------
       1       -0.000001708521    -0.000009298874    -0.000004825952
       2       -0.000006840326    -0.000008138649    -0.000001798167
       3        0.000558193753    -0.000987412642    -0.007264894423
       4       -0.000000893789    -0.000002082149     0.000002912826
       5        0.003449201680    -0.004538905252     0.004547831265
       6       -0.000992371204     0.001535429825     0.005451074429
       7        0.000003797590    -0.000003944274    -0.000006710708
       8        0.000005589750     0.000009483152    -0.000002448317
       9       -0.003014282477     0.004018132004    -0.002725873765
      10       -0.000003211262    -0.000003717186     0.000000867521
      11       -0.000004657421    -0.000008914720     0.000017666917
      12       -0.000000183841     0.000004097869    -0.000001699753
      13        0.000003342663    -0.000001853439    -0.000002169816
      14        0.000005809966     0.000001492414    -0.000012108678
      15       -0.000002944750    -0.000000349037     0.000001912078
      16       -0.000000419915    -0.000003347342     0.000002848005
      17       -0.000002286942     0.000004738741     0.000001024394
      18        0.000001863945    -0.000000508057    -0.000003894115
      19        0.000002001095    -0.000004902386     0.000000286259

  **** Optimization is complete! (in 7 steps) ****
    Final optimized geometry and variables:
    Molecular point group: c1

    Geometry (in Angstrom), charge = 0, multiplicity = 1:

    H            2.892827553242     1.775464536949     0.862223267606
    N            2.014313770722     1.311530684349     0.771975869052
    C            2.113940383685     0.206650970456    -0.174340745883
    H            1.353263422282     1.994888805528     0.470254191416
    C            0.881186299126    -0.699888056226    -0.141209902024
    H            2.972388587114    -0.372459893778     0.144705276882
    H            2.293532179621     0.542469325351    -1.194938047555
    C           -0.454387730112     0.044246039028    -0.116811957701
    H            0.890406950188    -1.306244129431    -1.043065405790
    H            0.936669158906    -1.363292136216     0.714775128997
    C           -1.655861801942    -0.893164645864    -0.203961076598
    H           -0.493973492351     0.747102209840    -0.948175375752
    H           -0.529501842182     0.630801399711     0.791969029813
    C           -2.992261095324    -0.159459068497    -0.166042913538
    H           -1.592453904928    -1.478093735114    -1.117545672432
    H           -1.613032130635    -1.604699750436     0.616133099553
    H           -3.080083225109     0.537323181350    -0.993299492301
    H           -3.823467413557    -0.852514402997    -0.228922628628
    H           -3.101897324613     0.405857582589     0.753425101915

  Mulliken Charges: (a.u.)
   Center  Symbol    Alpha    Beta     Spin     Total
       1     H     0.42940  0.42940  0.00000  0.14121
       2     N     3.69259  3.69259  0.00000 -0.38517
       3     C     3.03853  3.03853  0.00000 -0.07706
       4     H     0.42722  0.42722  0.00000  0.14556
       5     C     3.07626  3.07626  0.00000 -0.15253
       6     H     0.45370  0.45370  0.00000  0.09261
       7     H     0.46346  0.46346  0.00000  0.07308
       8     C     3.09750  3.09750  0.00000 -0.19499
       9     H     0.45721  0.45721  0.00000  0.08557
      10     H     0.45388  0.45388  0.00000  0.09223
      11     C     3.08486  3.08486  0.00000 -0.16971
      12     H     0.45765  0.45765  0.00000  0.08471
      13     H     0.44850  0.44850  0.00000  0.10300
      14     C     3.15003  3.15003  0.00000 -0.30006
      15     H     0.45547  0.45547  0.00000  0.08906
      16     H     0.45394  0.45394  0.00000  0.09212
      17     H     0.45623  0.45623  0.00000  0.08755
      18     H     0.44874  0.44874  0.00000  0.10252
      19     H     0.45484  0.45484  0.00000  0.09033

   Total alpha = 25.00000, Total beta = 25.00000, Total charge = -0.00000
