  ==> Input File <==

--------------------------------------------------------------------------
set {
	reference rhf
	basis 6-31G*
}

set_num_threads( 4 )
memory 2 gb

molecule MOL {
0 1

H	 2.591676	 2.013956	 0.335017
O	 3.341076	 1.666752	 -0.126416
C	 3.569581	 0.339145	 0.272707
C	 3.487626	 -0.657221	 -0.878495
H	 4.565413	 0.326573	 0.696777
H	 2.877563	 0.054822	 1.064573
C	 2.101759	 -0.753028	 -1.521193
H	 4.220108	 -0.376075	 -1.630687
H	 3.779789	 -1.635866	 -0.501318
C	 2.038437	 -1.799961	 -2.636872
H	 1.824986	 0.219061	 -1.919696
H	 1.364606	 -1.000308	 -0.757126
C	 0.650296	 -1.996933	 -3.257038
H	 2.747293	 -1.533275	 -3.418696
H	 2.374798	 -2.753786	 -2.235897
C	 0.116079	 -0.792445	 -4.036973
H	 0.693975	 -2.852517	 -3.927772
H	 -0.058523	 -2.263110	 -2.474374
C	 -1.221964	 -1.073116	 -4.724214
H	 0.848678	 -0.496506	 -4.786527
H	 -0.002340	 0.060619	 -3.373226
C	 -1.760602	 0.129608	 -5.498158
H	 -1.108545	 -1.916525	 -5.401919
H	 -1.952649	 -1.378361	 -3.978016
H	 -1.066431	 0.439169	 -6.274382
H	 -2.708134	 -0.101323	 -5.975117
H	 -1.920136	 0.979841	 -4.840880

	symmetry c1
}
set optking {
	frozen_dihedral = ("
		4 3 2 1
	")
}

ee = optimize('scf')
oeprop('DIPOLE', 'QUADRUPOLE', 'MULLIKEN_CHARGES')
f=open( 'psi4out.xyz', 'w' )
f.write( "27  " )
f.write( str(ee) + "\n" )
f.write( MOL.save_string_xyz() )
f.close()
--------------------------------------------------------------------------

    Molecular point group: c1
  Charge       = 0
  Multiplicity = 1
  Basis Set: 6-31G*
  Basis Set:
  @DF-RHF Final Energy:  -388.28000407686619
    Total Energy =                       -388.2800040768659073
    Molecular point group: c1
  Basis Set: 6-31G*
  Basis Set:
  Basis Set: 6-31G*
  Basis Set:
  @DF-RHF Final Energy:  -388.28052155016923
    Total Energy =                       -388.2805215501687144
  Basis Set: 6-31G*
  Basis Set:
  Basis Set: 6-31G*
  Basis Set:
  @DF-RHF Final Energy:  -388.28064364465274
    Total Energy =                       -388.2806436446530824
  Basis Set: 6-31G*
  Basis Set:
  Basis Set: 6-31G*
  Basis Set:
  @DF-RHF Final Energy:  -388.28065023365411
    Total Energy =                       -388.2806502336547965
  Basis Set: 6-31G*
  Basis Set:
  Charge       = 0
  Multiplicity = 1
  Basis Set: 6-31G*
  Basis Set:

    Orbital Energies (a.u.)
    -----------------------

    Doubly Occupied:

       1A    -20.551918     2A    -11.268124     3A    -11.212984
       4A    -11.211828     5A    -11.211447     6A    -11.211228
       7A    -11.210196     8A    -11.210029     9A    -11.206788
      10A     -1.357999    11A     -1.090329    12A     -1.057857
      13A     -1.009091    14A     -0.945008    15A     -0.882685
      16A     -0.814146    17A     -0.796543    18A     -0.773104
      19A     -0.704197    20A     -0.646847    21A     -0.628543
      22A     -0.622138    23A     -0.588519    24A     -0.580286
      25A     -0.577733    26A     -0.546239    27A     -0.539048
      28A     -0.523657    29A     -0.506208    30A     -0.482898
      31A     -0.480432    32A     -0.473904    33A     -0.464001
      34A     -0.456699    35A     -0.452444    36A     -0.440272
      37A     -0.418275

  @DF-RHF Final Energy:  -388.28065093173649

   => Energetics <=

    Nuclear Repulsion Energy =            459.9606816315023821
    One-Electron Energy =               -1438.1753756491627882
    Two-Electron Energy =                 589.9340430859236903
    DFT Exchange-Correlation Energy =       0.0000000000000000
    Empirical Dispersion Energy =           0.0000000000000000
    PCM Polarization Energy =               0.0000000000000000
    EFP Energy =                            0.0000000000000000
    Total Energy =                       -388.2806509317366590
    Molecular point group: c1
  Basis Set: 6-31G*
  Basis Set:

  -Total Gradient:
     Atom            X                  Y                   Z
    ------   -----------------  -----------------  -----------------
       1       -0.000001822308    -0.000013090196    -0.000016890688
       2        0.000027013832    -0.000022582241     0.000010550537
       3       -0.000014380301     0.000054907258    -0.000010422791
       4       -0.000022460730    -0.000010736562    -0.000006062004
       5       -0.000007534571    -0.000006060205     0.000002041088
       6       -0.000004609096    -0.000007453996     0.000017347988
       7        0.000001636644    -0.000001610467     0.000015312003
       8        0.000009148270    -0.000001623126    -0.000014222398
       9        0.000006471353     0.000009136637    -0.000004580258
      10        0.000002783681     0.000001731192    -0.000004120844
      11        0.000004660542     0.000013061418     0.000016686047
      12       -0.000003452511    -0.000012013845    -0.000006942477
      13        0.000002189643    -0.000003768653     0.000002050086
      14       -0.000003978663     0.000000553708     0.000002704954
      15        0.000003177204    -0.000003119318    -0.000002063853
      16        0.000001795715     0.000000239215    -0.000000982708
      17        0.000000736151     0.000001499305     0.000001335768
      18       -0.000001029259    -0.000001362346    -0.000000453811
      19       -0.000001392030     0.000001959508     0.000000744760
      20       -0.000002139214    -0.000000643868    -0.000001611809
      21        0.000002480344     0.000000947351    -0.000000351287
      22       -0.000000570701    -0.000000689765    -0.000000401135
      23        0.000000605241     0.000000132314     0.000000297672
      24        0.000000544838     0.000000454396    -0.000000016842
      25        0.000000078878    -0.000000036778    -0.000000021397
      26        0.000000060376     0.000000181068    -0.000000154218
      27       -0.000000013330    -0.000000012006     0.000000227614

  **** Optimization is complete! (in 5 steps) ****
    Final optimized geometry and variables:
    Molecular point group: c1

    Geometry (in Angstrom), charge = 0, multiplicity = 1:

    H            1.204936980389     2.549263192158     2.624417662827
    O            1.959974438498     2.152268935799     2.219399051538
    C            2.161024327217     0.852050024920     2.725140634759
    C            2.088929508942    -0.179117875511     1.608511522037
    H            3.138343970273     0.817796728209     3.196100058284
    H            1.425642658722     0.621397801938     3.492828413006
    C            0.710311379618    -0.274936349075     0.954146529841
    H            2.833121930471     0.078323035479     0.859089286526
    H            2.374549748823    -1.147542487526     2.016419896769
    C            0.664793055515    -1.299695847412    -0.182458533463
    H            0.433727987563     0.706636236904     0.585302441560
    H           -0.028121346265    -0.546813492198     1.708916227586
    C           -0.719162086016    -1.501074100139    -0.810607635101
    H            1.371402282278    -1.007261698213    -0.957301770565
    H            1.012531954154    -2.258467767577     0.197424141481
    C           -1.265863706608    -0.285853059939    -1.564641147212
    H           -0.664313660139    -2.341268891298    -1.499951409612
    H           -1.426519190493    -1.792504685817    -0.035520016817
    C           -2.601930430133    -0.564699872190    -2.256440096484
    H           -0.536840732542     0.032443768274    -2.308485941050
    H           -1.390583529776     0.551765060389    -0.882958721845
    C           -3.151708571256     0.648192774446    -3.006372618253
    H           -2.482042411530    -1.393715272397    -2.950709839166
    H           -3.329541343657    -0.890778008512    -1.515969927277
    H           -2.460904099110     0.978707511991    -3.776940924025
    H           -4.097841263686     0.418745452605    -3.487005135775
    H           -3.317415822056     1.484091507823    -2.332448822944

  Mulliken Charges: (a.u.)
   Center  Symbol    Alpha    Beta     Spin     Total
       1     H     0.27916  0.27916  0.00000  0.44169
       2     O     4.37203  4.37203  0.00000 -0.74407
       3     C     2.99986  2.99986  0.00000  0.00028
       4     C     3.15650  3.15650  0.00000 -0.31301
       5     H     0.42031  0.42031  0.00000  0.15937
       6     H     0.43229  0.43229  0.00000  0.13542
       7     C     3.15918  3.15918  0.00000 -0.31837
       8     H     0.41501  0.41501  0.00000  0.16998
       9     H     0.42582  0.42582  0.00000  0.14835
      10     C     3.15272  3.15272  0.00000 -0.30545
      11     H     0.41167  0.41167  0.00000  0.17667
      12     H     0.42944  0.42944  0.00000  0.14113
      13     C     3.15304  3.15304  0.00000 -0.30608
      14     H     0.42244  0.42244  0.00000  0.15511
      15     H     0.42338  0.42338  0.00000  0.15324
      16     C     3.15226  3.15226  0.00000 -0.30453
      17     H     0.42236  0.42236  0.00000  0.15528
      18     H     0.42513  0.42513  0.00000  0.14975
      19     C     3.15109  3.15109  0.00000 -0.30219
      20     H     0.42381  0.42381  0.00000  0.15239
      21     H     0.42248  0.42248  0.00000  0.15504
      22     C     3.23898  3.23898  0.00000 -0.47796
      23     H     0.42338  0.42338  0.00000  0.15324
      24     H     0.42384  0.42384  0.00000  0.15231
      25     H     0.42158  0.42158  0.00000  0.15685
      26     H     0.41990  0.41990  0.00000  0.16020
      27     H     0.42232  0.42232  0.00000  0.15535

   Total alpha = 37.00000, Total beta = 37.00000, Total charge =  0.00000
