  ==> Input File <==

--------------------------------------------------------------------------
set {
	reference rhf
	basis cc-pvtz
}

set_num_threads( 4 )
memory 2 gb

molecule MOL {
0 1

O	 1.134195	 1.434708	 -0.356216
C	 0.885178	 0.500164	 -1.038623
C	 -0.401350	 -0.284469	 -1.012957
O	 1.727574	 0.012776	 -1.934837
C	 -1.413045	 0.229353	 0.001137
H	 -0.808576	 -0.265644	 -2.018588
H	 -0.141652	 -1.320036	 -0.819002
C	 -2.702562	 -0.586401	 0.000228
H	 -1.636045	 1.269036	 -0.210688
H	 -0.968837	 0.213073	 0.990055
C	 -3.953810	 0.284959	 -0.000782
H	 -2.717793	 -1.238567	 -0.869075
H	 -2.719108	 -1.238472	 0.869576
H	 -3.983727	 0.924403	 -0.876454
H	 -4.852989	 -0.320147	 -0.001515
H	 -3.985140	 0.924399	 0.874841
C	 2.979341	 0.655624	 -2.065769
H	 2.849483	 1.687895	 -2.355221
H	 3.511178	 0.117887	 -2.833790
H	 3.527148	 0.616668	 -1.135924

	symmetry c1
}
set optking {
	frozen_dihedral = ("
		9 5 8 12
	")
}

ee = optimize('scf')
oeprop('DIPOLE', 'QUADRUPOLE', 'MULLIKEN_CHARGES')
f=open( 'psi4out.xyz', 'w' )
f.write( "20  " )
f.write( str(ee) + "\n" )
f.write( MOL.save_string_xyz() )
f.close()
--------------------------------------------------------------------------

    Molecular point group: c1
  Charge       = 0
  Multiplicity = 1
  Basis Set: CC-PVTZ
  Basis Set:
  @DF-RHF Final Energy:  -384.07796975324544
    Total Energy =                       -384.0779697532454975
    Molecular point group: c1
  Basis Set: CC-PVTZ
  Basis Set:
  Basis Set: CC-PVTZ
  Basis Set:
  @DF-RHF Final Energy:  -384.07827469589387
    Total Energy =                       -384.0782746958940379
  Basis Set: CC-PVTZ
  Basis Set:
  Basis Set: CC-PVTZ
  Basis Set:
  @DF-RHF Final Energy:  -384.07821182606648
    Total Energy =                       -384.0782118260665357
  Basis Set: CC-PVTZ
  Basis Set:
  Basis Set: CC-PVTZ
  Basis Set:
  @DF-RHF Final Energy:  -384.07833940908426
    Total Energy =                       -384.0783394090841512
  Basis Set: CC-PVTZ
  Basis Set:
  Basis Set: CC-PVTZ
  Basis Set:
  @DF-RHF Final Energy:  -384.07834217531200
    Total Energy =                       -384.0783421753119455
  Basis Set: CC-PVTZ
  Basis Set:
  Charge       = 0
  Multiplicity = 1
  Basis Set: CC-PVTZ
  Basis Set:

    Orbital Energies (a.u.)
    -----------------------

    Doubly Occupied:

       1A    -20.596456     2A    -20.534354     3A    -11.364645
       4A    -11.278596     5A    -11.234609     6A    -11.218073
       7A    -11.216932     8A    -11.209634     9A     -1.472359
      10A     -1.365967    11A     -1.087896    12A     -1.025017
      13A     -0.970103    14A     -0.886816    15A     -0.805435
      16A     -0.769721    17A     -0.701167    18A     -0.686036
      19A     -0.676348    20A     -0.638393    21A     -0.600481
      22A     -0.598208    23A     -0.578118    24A     -0.544312
      25A     -0.531840    26A     -0.524113    27A     -0.509246
      28A     -0.478238    29A     -0.474517    30A     -0.465844
      31A     -0.457658    32A     -0.439587

  @DF-RHF Final Energy:  -384.07834255871342

   => Energetics <=

    Nuclear Repulsion Energy =            381.8035773803691200
    One-Electron Energy =               -1279.8824022332066761
    Two-Electron Energy =                 514.0004822941243674
    DFT Exchange-Correlation Energy =       0.0000000000000000
    Empirical Dispersion Energy =           0.0000000000000000
    PCM Polarization Energy =               0.0000000000000000
    EFP Energy =                            0.0000000000000000
    Total Energy =                       -384.0783425587131887
    Molecular point group: c1
  Basis Set: CC-PVTZ
  Basis Set:

  -Total Gradient:
     Atom            X                  Y                   Z
    ------   -----------------  -----------------  -----------------
       1       -0.000017005531     0.000008207634     0.000010951165
       2        0.000015722137    -0.000000336497     0.000002640191
       3        0.000013018704     0.000000056535    -0.000003310327
       4        0.000003429859    -0.000013793185    -0.000016428221
       5        0.000799846153    -0.001321795245    -0.003714140320
       6       -0.000001659332     0.000005933114     0.000004381579
       7       -0.000000438974     0.000003052773     0.000000924127
       8       -0.002041508321     0.003135940777    -0.001401069213
       9       -0.000323830247     0.000606034405     0.003328790048
      10        0.000005038442    -0.000001575456    -0.000003665375
      11       -0.000013247900    -0.000000331973     0.000001926447
      12        0.001572268783    -0.002413215464     0.001785534035
      13       -0.000009305839     0.000000295831    -0.000001064651
      14        0.000005187100    -0.000004218348     0.000002542724
      15       -0.000001584499     0.000000216350    -0.000000716855
      16        0.000003419170    -0.000003420077    -0.000002362818
      17       -0.000003661451     0.000001757106     0.000006156020
      18       -0.000000658998    -0.000000094587    -0.000000268372
      19       -0.000005214977    -0.000002860110    -0.000000260858
      20        0.000000185716     0.000000146420    -0.000000559323

  **** Optimization is complete! (in 6 steps) ****
    Final optimized geometry and variables:
    Molecular point group: c1

    Geometry (in Angstrom), charge = 0, multiplicity = 1:

    O            1.323766914965     1.144040627653     0.453367332254
    C            1.078548060806     0.208846449380    -0.229532878022
    C           -0.213479613803    -0.567324675260    -0.220321045823
    O            1.930223869392    -0.286785428868    -1.112405914017
    C           -1.237201684861    -0.044831286569     0.776375467894
    H           -0.606304487562    -0.549929927953    -1.231597375656
    H            0.035780217293    -1.604063132906    -0.018358645417
    C           -2.534057466704    -0.875465027056     0.799050284653
    H           -1.460381748086     0.993949402153     0.564487872705
    H           -0.790917084216    -0.035333159873     1.763305890545
    C           -3.799137915311    -0.027121547863     0.856277295438
    H           -2.570441436577    -1.535326255300    -0.062691548369
    H           -2.515915706275    -1.539198250018     1.657820313569
    H           -3.883341117276     0.607615632006    -0.019449973046
    H           -4.686814258581    -0.647346243134     0.904890477238
    H           -3.795930657136     0.616684266342     1.729388500423
    C            3.187533800116     0.347986478121    -1.228283731031
    H            3.067973951834     1.380041892269    -1.522909302092
    H            3.726548709777    -0.195575417896    -1.987147499002
    H            3.722328769370     0.308884706617    -0.290892203498

  Mulliken Charges: (a.u.)
   Center  Symbol    Alpha    Beta     Spin     Total
       1     O     4.19661  4.19661  0.00000 -0.39322
       2     C     2.80785  2.80785  0.00000  0.38429
       3     C     3.09988  3.09988  0.00000 -0.19977
       4     O     4.14687  4.14687  0.00000 -0.29374
       5     C     3.08719  3.08719  0.00000 -0.17438
       6     H     0.43969  0.43969  0.00000  0.12063
       7     H     0.43877  0.43877  0.00000  0.12246
       8     C     3.08888  3.08888  0.00000 -0.17776
       9     H     0.44657  0.44657  0.00000  0.10686
      10     H     0.44453  0.44453  0.00000  0.11095
      11     C     3.14683  3.14683  0.00000 -0.29365
      12     H     0.45617  0.45617  0.00000  0.08767
      13     H     0.45135  0.45135  0.00000  0.09731
      14     H     0.45529  0.45529  0.00000  0.08941
      15     H     0.44946  0.44946  0.00000  0.10108
      16     H     0.45243  0.45243  0.00000  0.09513
      17     C     3.03766  3.03766  0.00000 -0.07533
      18     H     0.45434  0.45434  0.00000  0.09132
      19     H     0.44530  0.44530  0.00000  0.10939
      20     H     0.45433  0.45433  0.00000  0.09134

   Total alpha = 32.00000, Total beta = 32.00000, Total charge =  0.00000
