                              Psi4 1.0.54 Driver

  ==> Input File <==

--------------------------------------------------------------------------
set {
	reference rhf
	basis cc-pvtz
}

set_num_threads( 4 )
memory 2 gb

molecule MOL {
0 1

H	 -3.401682	 -1.036167	 0.000000
O	 -3.113760	 -0.140926	 0.000000
C	 -1.775087	 -0.058754	 0.000000
C	 -1.109473	 1.143581	 -0.204415
C	 -1.062118	 -1.226817	 0.213276
H	 -1.669544	 2.045573	 -0.369212
C	 0.264866	 1.171640	 -0.194506
H	 -1.594845	 -2.143346	 0.368826
C	 0.313724	 -1.181680	 0.220196
H	 0.790207	 2.092861	 -0.350962
C	 0.993638	 0.009635	 0.017875
H	 0.867864	 -2.087273	 0.385563
C	 2.468141	 0.033438	 0.029615
O	 3.133947	 1.001041	 -0.133486
H	 2.940691	 -0.938899	 0.205847

	symmetry c1
}
set optking {
	frozen_dihedral = ("
		5 3 2 1
	")
}

ee,wfn = optimize('scf', return_wfn=True)
oeprop( wfn, 'DIPOLE', 'QUADRUPOLE', 'MULLIKEN_CHARGES')
f=open( 'psi4out.xyz', 'w' )
f.write( "15  " )
f.write( str(ee) + "\n" )
f.write( MOL.save_string_xyz() )
f.close()
--------------------------------------------------------------------------

    Molecular point group: c1
  Charge       = 0
  Multiplicity = 1
  Basis Set: CC-PVTZ
  Basis Set:
  @DF-RHF Final Energy:  -418.44033422913981
    Total Energy =                       -418.4403342291398076
    Molecular point group: c1
  Basis Set: CC-PVTZ
  Basis Set:
  Basis Set: CC-PVTZ
  Basis Set:
  @DF-RHF Final Energy:  -418.44218586327554
    Total Energy =                       -418.4421858632755402
  Basis Set: CC-PVTZ
  Basis Set:
  Basis Set: CC-PVTZ
  Basis Set:
  @DF-RHF Final Energy:  -418.44235753657784
    Total Energy =                       -418.4423575365779016
  Basis Set: CC-PVTZ
  Basis Set:
  Basis Set: CC-PVTZ
  Basis Set:
  @DF-RHF Final Energy:  -418.44216385610662
    Total Energy =                       -418.4421638561069585
  Basis Set: CC-PVTZ
  Basis Set:
  Basis Set: CC-PVTZ
  Basis Set:
  @DF-RHF Final Energy:  -418.44237745285676
    Total Energy =                       -418.4423774528568174
  Basis Set: CC-PVTZ
  Basis Set:
  Basis Set: CC-PVTZ
  Basis Set:
  @DF-RHF Final Energy:  -418.44238236496983
    Total Energy =                       -418.4423823649698306
  Basis Set: CC-PVTZ
  Basis Set:
  Charge       = 0
  Multiplicity = 1
  Basis Set: CC-PVTZ
  Basis Set:

    Orbital Energies (a.u.)
    -----------------------

    Doubly Occupied:

       1A    -20.604743     2A    -20.545525     3A    -11.322647
       4A    -11.322639     5A    -11.260657     6A    -11.251949
       7A    -11.242480     8A    -11.237140     9A    -11.236401
      10A     -1.437816    11A     -1.401854    12A     -1.175288
      13A     -1.046734    14A     -1.040420    15A     -0.897335
      16A     -0.861723    17A     -0.806053    18A     -0.761647
      19A     -0.699373    20A     -0.690959    21A     -0.642825
      22A     -0.629170    23A     -0.617085    24A     -0.611339
      25A     -0.585592    26A     -0.561640    27A     -0.555372
      28A     -0.509299    29A     -0.490290    30A     -0.421470
      31A     -0.362010    32A     -0.332391

  @DF-RHF Final Energy:  -418.44238283912858

   => Energetics <=

    Nuclear Repulsion Energy =            402.2827114540889966
    One-Electron Energy =               -1367.1264560749632437
    Two-Electron Energy =                 546.4013617817456634
    DFT Exchange-Correlation Energy =       0.0000000000000000
    Empirical Dispersion Energy =           0.0000000000000000
    PCM Polarization Energy =               0.0000000000000000
    EFP Energy =                            0.0000000000000000
    Total Energy =                       -418.4423828391286406
    Molecular point group: c1
  Basis Set: CC-PVTZ
  Basis Set:

  -Total Gradient:
     Atom            X                  Y                   Z
    ------   -----------------  -----------------  -----------------
       1       -0.000006067491    -0.000029557651    -0.001227422706
       2       -0.000062438124     0.000110453484     0.002081706247
       3       -0.000016536153    -0.000196043590    -0.001843641584
       4        0.000021853779    -0.000034384201     0.000041608705
       5        0.000106686807     0.000106222712     0.000938803251
       6        0.000017946014     0.000009086770    -0.000003525124
       7        0.000040121611    -0.000022210365     0.000024997186
       8       -0.000020658867    -0.000005799786     0.000003248911
       9       -0.000089785428    -0.000069986792     0.000036428437
      10        0.000002055293     0.000003123496    -0.000007925225
      11        0.000055873535     0.000083979247    -0.000026799626
      12       -0.000005692826     0.000012665780    -0.000006704994
      13        0.000052404711     0.000027323048    -0.000017205647
      14       -0.000042611455    -0.000086598930     0.000019783945
      15       -0.000053151415     0.000091726775    -0.000013351776

  **** Optimization is complete! (in 7 steps) ****
    Final optimized geometry and variables:
    Molecular point group: c1

    Geometry (in Angstrom), charge = 0, multiplicity = 1:

    H           -3.462931548897    -1.029012055411     0.005189435516
    O           -3.108776534131    -0.157685898305    -0.001832524766
    C           -1.767397269215    -0.175928771630     0.004292286559
    C           -1.113028995037     1.035883209105    -0.196611809770
    C           -1.043990473259    -1.334194384675     0.221770888740
    H           -1.697251418064     1.919508730965    -0.359242690412
    C            0.256545186870     1.075333425204    -0.183996777219
    H           -1.552143890364    -2.266320171522     0.385550042596
    C            0.336333354098    -1.278168175701     0.227811882573
    H            0.774363464132     2.001139701814    -0.338775207958
    C            1.000459080973    -0.083742655269     0.027155823839
    H            0.897670543887    -2.179000857672     0.394657814170
    C            2.474751426541    -0.047104012165     0.039676575291
    O            3.132408871245     0.925738865086    -0.122372634480
    H            2.954548916423    -1.016092008780     0.215713372765

  Mulliken Charges: (a.u.)
   Center  Symbol    Alpha    Beta     Spin     Total
       1     H     0.38548  0.38548  0.00000  0.22904
       2     O     4.16640  4.16640  0.00000 -0.33280
       3     C     2.84436  2.84436  0.00000  0.31127
       4     C     3.10728  3.10728  0.00000 -0.21456
       5     C     3.13397  3.13397  0.00000 -0.26793
       6     H     0.41533  0.41533  0.00000  0.16934
       7     C     3.05988  3.05988  0.00000 -0.11975
       8     H     0.43177  0.43177  0.00000  0.13647
       9     C     3.07400  3.07400  0.00000 -0.14799
      10     H     0.40727  0.40727  0.00000  0.18546
      11     C     3.00243  3.00243  0.00000 -0.00486
      12     H     0.42121  0.42121  0.00000  0.15757
      13     C     2.91135  2.91135  0.00000  0.17730
      14     O     4.17826  4.17826  0.00000 -0.35652
      15     H     0.46101  0.46101  0.00000  0.07797

   Total alpha = 32.00000, Total beta = 32.00000, Total charge = -0.00000

*** Psi4 exiting successfully. Buy a developer a beer!
