                              Psi4 1.0.54 Driver

  ==> Input File <==

--------------------------------------------------------------------------
set {
	reference rhf
	basis cc-pvtz
}

set_num_threads( 4 )
memory 2 gb

molecule MOL {
0 1

H	 0.363380	 -3.210836	 1.616007
O	 0.520628	 -2.538065	 0.970726
C	 -0.493316	 -1.678138	 1.003366
C	 -0.318151	 -0.570512	 0.000144
O	 -1.403338	 -1.806076	 1.747315
C	 -1.454884	 0.441630	 -0.000560
H	 0.633568	 -0.093981	 0.212367
H	 -0.204366	 -1.035859	 -0.973717
C	 -2.822577	 -0.232186	 0.000063
H	 -1.359760	 1.084704	 -0.867077
H	 -1.359641	 1.085996	 0.864983
H	 -2.954352	 -0.858985	 -0.875745
H	 -3.615886	 0.505352	 0.000019
H	 -2.953878	 -0.858359	 0.876394

	symmetry c1
}
set optking {
	frozen_dihedral = ("
		7 4 6 10
	")
}

ee,wfn = optimize('scf', return_wfn=True)
oeprop( wfn, 'DIPOLE', 'QUADRUPOLE', 'MULLIKEN_CHARGES')
f=open( 'psi4out.xyz', 'w' )
f.write( "14  " )
f.write( str(ee) + "\n" )
f.write( MOL.save_string_xyz() )
f.close()
--------------------------------------------------------------------------

    Molecular point group: c1
  Charge       = 0
  Multiplicity = 1
  Basis Set: CC-PVTZ
  Basis Set:
  @DF-RHF Final Energy:  -305.99105597223979
    Total Energy =                       -305.9910559722399057
    Molecular point group: c1
  Basis Set: CC-PVTZ
  Basis Set:
  Basis Set: CC-PVTZ
  Basis Set:
  @DF-RHF Final Energy:  -305.99668585064410
    Total Energy =                       -305.9966858506443259
  Basis Set: CC-PVTZ
  Basis Set:
  Basis Set: CC-PVTZ
  Basis Set:
  @DF-RHF Final Energy:  -305.99761184062254
    Total Energy =                       -305.9976118406227670
  Basis Set: CC-PVTZ
  Basis Set:
  Basis Set: CC-PVTZ
  Basis Set:
  @DF-RHF Final Energy:  -305.99710497131423
    Total Energy =                       -305.9971049713143998
  Basis Set: CC-PVTZ
  Basis Set:
  @DF-RHF Final Energy:  -305.99778749197276
    Total Energy =                       -305.9977874919729288
  @DF-RHF Final Energy:  -305.99835619378825
    Total Energy =                       -305.9983561937884815
  @DF-RHF Final Energy:  -305.99849088503731
    Total Energy =                       -305.9984908850374268
  @DF-RHF Final Energy:  -305.99851197440978
    Total Energy =                       -305.9985119744098938
  @DF-RHF Final Energy:  -305.99851499770773
    Total Energy =                       -305.9985149977077299
  @DF-RHF Final Energy:  -305.99851708757410
    Total Energy =                       -305.9985170875740437
  @DF-RHF Final Energy:  -305.99851659770070
    Total Energy =                       -305.9985165977008137
  @DF-RHF Final Energy:  -305.99851583422856
    Total Energy =                       -305.9985158342286127
  Basis Set: CC-PVTZ
  Basis Set:
  @DF-RHF Final Energy:  -305.99851988752590
    Total Energy =                       -305.9985198875259584
  Basis Set: CC-PVTZ
  Basis Set:
  Basis Set: CC-PVTZ
  Basis Set:
  @DF-RHF Final Energy:  -305.99852189796985
    Total Energy =                       -305.9985218979695674
  Basis Set: CC-PVTZ
  Basis Set:
  Basis Set: CC-PVTZ
  Basis Set:
  @DF-RHF Final Energy:  -305.99852320274840
    Total Energy =                       -305.9985232027482880
  Basis Set: CC-PVTZ
  Basis Set:
  Charge       = 0
  Multiplicity = 1
  Basis Set: CC-PVTZ
  Basis Set:

    Orbital Energies (a.u.)
    -----------------------

    Doubly Occupied:

       1A    -20.605544     2A    -20.539874     3A    -11.374416
       4A    -11.240560     5A    -11.226682     6A    -11.208001
       7A     -1.478662     8A     -1.369479     9A     -1.082303
      10A     -0.977120    11A     -0.863576    12A     -0.789046
      13A     -0.706292    14A     -0.690975    15A     -0.663237
      16A     -0.618988    17A     -0.594130    18A     -0.568719
      19A     -0.557965    20A     -0.500376    21A     -0.490463
      22A     -0.486794    23A     -0.480873    24A     -0.442852

  @DF-RHF Final Energy:  -305.99852296750862

   => Energetics <=

    Nuclear Repulsion Energy =            245.6978336797291433
    One-Electron Energy =                -904.2788561063960060
    Two-Electron Energy =                 352.5824994591582708
    DFT Exchange-Correlation Energy =       0.0000000000000000
    Empirical Dispersion Energy =           0.0000000000000000
    PCM Polarization Energy =               0.0000000000000000
    EFP Energy =                            0.0000000000000000
    Total Energy =                       -305.9985229675086202
    Molecular point group: c1
  Basis Set: CC-PVTZ
  Basis Set:

  -Total Gradient:
     Atom            X                  Y                   Z
    ------   -----------------  -----------------  -----------------
       1        0.000021434495    -0.000040569673     0.000014060466
       2        0.000030866625     0.000051873801     0.000082006539
       3        0.000058868462     0.000001774611     0.000180303118
       4        0.000124710718     0.000299013592    -0.006800279081
       5       -0.000118186184    -0.000111227135    -0.000139987361
       6        0.003217260322     0.004077455123     0.004312683326
       7       -0.000433729953    -0.000754722836     0.004890290777
       8       -0.000072304434     0.000036187854    -0.000003146637
       9       -0.000046484116    -0.000023149139    -0.000047790681
      10       -0.002849937835    -0.003436620703    -0.002563479556
      11        0.000091658853    -0.000101498159     0.000080012115
      12       -0.000000334848    -0.000007982058     0.000005990535
      13       -0.000020761043    -0.000009030165     0.000001099751
      14       -0.000003061061     0.000018494890    -0.000011763311

  **** Optimization is complete! (in 16 steps) ****
    Final optimized geometry and variables:
    Molecular point group: c1

    Geometry (in Angstrom), charge = 0, multiplicity = 1:

    H            1.254905109167    -2.194029318039     0.863609402228
    O            1.263684744971    -1.618575583503     0.113255939929
    C            0.564578523352    -0.528498509360     0.412408534990
    C            0.593468652295     0.486551337778    -0.702390388578
    O            0.037200484435    -0.389675462823     1.462211577553
    C           -0.569758651610     1.477474138408    -0.689608011296
    H            1.530042934222     1.012856718487    -0.536327000725
    H            0.672427743851    -0.032719794653    -1.647489138725
    C           -1.950745785814     0.822453421188    -0.708393250672
    H           -0.485386754062     2.077292935378    -1.589680675505
    H           -0.483349112249     2.135654134932     0.164684736400
    H           -2.050313490034     0.151334339923    -1.556342273583
    H           -2.722966799138     1.577377043512    -0.798142460794
    H           -2.138807046749     0.259249746295     0.194400397557

  Mulliken Charges: (a.u.)
   Center  Symbol    Alpha    Beta     Spin     Total
       1     H     0.38130  0.38130  0.00000  0.23740
       2     O     4.15980  4.15980  0.00000 -0.31959
       3     C     2.80263  2.80263  0.00000  0.39473
       4     C     3.11182  3.11182  0.00000 -0.22364
       5     O     4.19616  4.19616  0.00000 -0.39233
       6     C     3.08122  3.08122  0.00000 -0.16244
       7     H     0.43625  0.43625  0.00000  0.12750
       8     H     0.43401  0.43401  0.00000  0.13199
       9     C     3.15722  3.15722  0.00000 -0.31443
      10     H     0.44827  0.44827  0.00000  0.10345
      11     H     0.44635  0.44635  0.00000  0.10729
      12     H     0.45681  0.45681  0.00000  0.08638
      13     H     0.44793  0.44793  0.00000  0.10413
      14     H     0.44022  0.44022  0.00000  0.11957

   Total alpha = 24.00000, Total beta = 24.00000, Total charge = -0.00000

*** Psi4 exiting successfully. Buy a developer a beer!
