                              Psi4 1.0.54 Driver

  ==> Input File <==

--------------------------------------------------------------------------
set {
	reference rhf
	basis cc-pvtz
}

set_num_threads( 4 )
memory 2 gb

molecule MOL {
0 1

H	 2.301515	 0.774395	 -1.172622
O	 1.440530	 0.387750	 -1.226892
C	 1.050374	 0.054877	 0.000135
C	 -0.318151	 -0.570512	 0.000144
O	 1.728722	 0.245365	 0.949622
C	 -1.454884	 0.441630	 -0.000560
H	 -0.371613	 -1.223646	 -0.864985
H	 -0.371920	 -1.222758	 0.865929
C	 -2.822577	 -0.232186	 0.000063
H	 -1.359760	 1.084704	 -0.867077
H	 -1.359641	 1.085996	 0.864983
H	 -2.954352	 -0.858985	 -0.875745
H	 -3.615886	 0.505352	 0.000019
H	 -2.953878	 -0.858359	 0.876394

	symmetry c1
}
set optking {
	frozen_dihedral = ("
		2 3 4 7
	")
}

ee,wfn = optimize('scf', return_wfn=True)
oeprop( wfn, 'DIPOLE', 'QUADRUPOLE', 'MULLIKEN_CHARGES')
f=open( 'psi4out.xyz', 'w' )
f.write( "14  " )
f.write( str(ee) + "\n" )
f.write( MOL.save_string_xyz() )
f.close()
--------------------------------------------------------------------------

    Molecular point group: c1
  Charge       = 0
  Multiplicity = 1
  Basis Set: CC-PVTZ
  Basis Set:
  @DF-RHF Final Energy:  -305.99904512959114
    Total Energy =                       -305.9990451295914227
    Molecular point group: c1
  Basis Set: CC-PVTZ
  Basis Set:
  Basis Set: CC-PVTZ
  Basis Set:
  @DF-RHF Final Energy:  -305.99950686922824
    Total Energy =                       -305.9995068692282985
  Basis Set: CC-PVTZ
  Basis Set:
  Basis Set: CC-PVTZ
  Basis Set:
  @DF-RHF Final Energy:  -305.99969227936629
    Total Energy =                       -305.9996922793661724
  Basis Set: CC-PVTZ
  Basis Set:
  Basis Set: CC-PVTZ
  Basis Set:
  @DF-RHF Final Energy:  -305.99972623806809
    Total Energy =                       -305.9997262380682059
  Basis Set: CC-PVTZ
  Basis Set:
  Charge       = 0
  Multiplicity = 1
  Basis Set: CC-PVTZ
  Basis Set:

    Orbital Energies (a.u.)
    -----------------------

    Doubly Occupied:

       1A    -20.605080     2A    -20.539010     3A    -11.372629
       4A    -11.238101     5A    -11.234281     6A    -11.219507
       7A     -1.477371     8A     -1.368109     9A     -1.087892
      10A     -0.980964    11A     -0.852777    12A     -0.811743
      13A     -0.706141    14A     -0.688589    15A     -0.642726
      16A     -0.640146    17A     -0.596557    18A     -0.568450
      19A     -0.554440    20A     -0.519541    21A     -0.501062
      22A     -0.489828    23A     -0.476051    24A     -0.441352

  @DF-RHF Final Energy:  -305.99972685630746

   => Energetics <=

    Nuclear Repulsion Energy =            240.9097377259335815
    One-Electron Energy =                -894.5942353895999304
    Two-Electron Energy =                 347.6847708073588024
    DFT Exchange-Correlation Energy =       0.0000000000000000
    Empirical Dispersion Energy =           0.0000000000000000
    PCM Polarization Energy =               0.0000000000000000
    EFP Energy =                            0.0000000000000000
    Total Energy =                       -305.9997268563075181
    Molecular point group: c1
  Basis Set: CC-PVTZ
  Basis Set:

  -Total Gradient:
     Atom            X                  Y                   Z
    ------   -----------------  -----------------  -----------------
       1        0.000064315111     0.000056214532    -0.000049958223
       2        0.000154424637    -0.000203927448     0.000083071720
       3       -0.000276946411     0.000282472684    -0.000000041539
       4        0.000095064557    -0.000236593450     0.000169175447
       5        0.000052303717    -0.000008872380    -0.000093905687
       6        0.000017480740    -0.000051028224     0.000004975629
       7       -0.000071523678     0.000172602082    -0.000134908914
       8       -0.000013259816    -0.000023585812     0.000020957915
       9       -0.000021227465     0.000019882507     0.000001128298
      10       -0.000004556525    -0.000008071369     0.000008422768
      11       -0.000010650260    -0.000004737925    -0.000010706960
      12        0.000012613987     0.000002699519    -0.000002229859
      13       -0.000001485398     0.000005120443    -0.000001827301
      14        0.000003446805    -0.000002175157     0.000005846708

  **** Optimization is complete! (in 5 steps) ****
    Final optimized geometry and variables:
    Molecular point group: c1

    Geometry (in Angstrom), charge = 0, multiplicity = 1:

    H            2.321965372280     0.736780506763    -1.066980762272
    O            1.478178810153     0.316612837194    -1.141591741244
    C            1.073635359510    -0.034652357029     0.075663378607
    C           -0.288683038513    -0.671206527421     0.069748029316
    O            1.729724621716     0.167282796416     1.038971327537
    C           -1.398459017760     0.386293690085     0.020437689376
    H           -0.367307728021    -1.325713781862    -0.789330229459
    H           -0.373795665843    -1.261809961292     0.970759385035
    C           -2.787524568854    -0.240725894818     0.035645197580
    H           -1.279017481034     0.989397493190    -0.872410168745
    H           -1.289052460376     1.052645951998     0.869132738678
    H           -2.932459935023    -0.892137134434    -0.819329381050
    H           -3.555502421860     0.522690445516     0.004921667860
    H           -2.941088434459    -0.830338367765     0.932739135408

  Mulliken Charges: (a.u.)
   Center  Symbol    Alpha    Beta     Spin     Total
       1     H     0.38028  0.38028  0.00000  0.23944
       2     O     4.16415  4.16415  0.00000 -0.32830
       3     C     2.80468  2.80468  0.00000  0.39065
       4     C     3.08703  3.08703  0.00000 -0.17406
       5     O     4.19680  4.19680  0.00000 -0.39360
       6     C     3.09445  3.09445  0.00000 -0.18890
       7     H     0.44352  0.44352  0.00000  0.11296
       8     H     0.43756  0.43756  0.00000  0.12487
       9     C     3.14977  3.14977  0.00000 -0.29954
      10     H     0.44517  0.44517  0.00000  0.10966
      11     H     0.44452  0.44452  0.00000  0.11097
      12     H     0.45375  0.45375  0.00000  0.09250
      13     H     0.44567  0.44567  0.00000  0.10865
      14     H     0.45265  0.45265  0.00000  0.09469

   Total alpha = 24.00000, Total beta = 24.00000, Total charge =  0.00000

*** Psi4 exiting successfully. Buy a developer a beer!
