  ==> Input File <==

--------------------------------------------------------------------------
set {
	reference rhf
	basis 6-31G*
}

set_num_threads( 1 )
memory 2 gb

molecule MOL {
0 1

O	 -2.042549	 -1.228399	 -0.269030
C	 -1.653912	 -0.146171	 0.050137
C	 -0.332303	 0.024011	 0.778412
C	 -2.438579	 1.106236	 -0.272369
C	 0.451171	 -1.297732	 0.810583
H	 0.266545	 0.797449	 0.305594
H	 -0.553517	 0.339287	 1.792112
C	 1.777354	 -1.178011	 1.562871
H	 0.645018	 -1.635443	 -0.206008
H	 -0.169387	 -2.056675	 1.277544
C	 2.554401	 -2.493192	 1.604143
H	 2.390043	 -0.410012	 1.095736
H	 1.583424	 -0.840156	 2.578161
H	 2.793219	 -2.839906	 0.602740
H	 1.979240	 -3.272546	 2.095305
H	 3.487978	 -2.379282	 2.145886
H	 -3.277823	 0.863061	 -0.908988
H	 -1.806773	 1.843019	 -0.759671
H	 -2.802853	 1.554979	 0.648059

	symmetry c1
}
set optking {
	frozen_dihedral = ("
		11 8 5 9,
		9 5 3 2
	")
}

ee = energy('scf')
oeprop('DIPOLE', 'QUADRUPOLE', 'MULLIKEN_CHARGES')
f=open( 'psi4out.xyz', 'w' )
f.write( "19  " )
f.write( str(ee) + "\n" )
f.write( MOL.save_string_xyz() )
f.close()
--------------------------------------------------------------------------

    Molecular point group: c1

    Geometry (in Angstrom), charge = 0, multiplicity = 1:

       Center              X                  Y                   Z               Mass
    ------------   -----------------  -----------------  -----------------  -----------------
           O         -1.804738097276    -0.473414001539    -0.877011497104    15.994914619560
           C         -1.416101097276     0.608813998461    -0.557844497104    12.000000000000
           C         -0.094492097276     0.778995998461     0.170430502896    12.000000000000
           C         -2.200768097276     1.861220998461    -0.880350497104    12.000000000000
           C          0.688981902724    -0.542747001539     0.202601502896    12.000000000000
           H          0.504355902724     1.552433998461    -0.302387497104     1.007825032070
           H         -0.315706097276     1.094271998461     1.184130502896     1.007825032070
           C          2.015164902724    -0.423026001539     0.954889502896    12.000000000000
           H          0.882828902724    -0.880458001539    -0.813989497104     1.007825032070
           H          0.068423902724    -1.301690001539     0.669562502896     1.007825032070
           C          2.792211902724    -1.738207001539     0.996161502896    12.000000000000
           H          2.627853902724     0.344972998461     0.487754502896     1.007825032070
           H          1.821234902724    -0.085171001539     1.970179502896     1.007825032070
           H          3.031029902724    -2.084921001539    -0.005241497104     1.007825032070
           H          2.217050902724    -2.517561001539     1.487323502896     1.007825032070
           H          3.725788902724    -1.624297001539     1.537904502896     1.007825032070
           H         -3.040012097276     1.618045998461    -1.516969497104     1.007825032070
           H         -1.568962097276     2.598003998461    -1.367652497104     1.007825032070
           H         -2.565042097276     2.309963998461     0.040077502896     1.007825032070

  Charge       = 0
  Multiplicity = 1
  Basis Set: 6-31G*
  Basis Set:

    Orbital Energies (a.u.)
    -----------------------

    Doubly Occupied:

       1A    -20.550243     2A    -11.326363     3A    -11.231335
       4A    -11.229155     5A    -11.217351     6A    -11.215593
       7A    -11.208905     8A     -1.396252     9A     -1.083177
      10A     -1.028475    11A     -0.983782    12A     -0.884570
      13A     -0.798385    14A     -0.730941    15A     -0.657877
      16A     -0.651358    17A     -0.625136    18A     -0.611094
      19A     -0.578718    20A     -0.571562    21A     -0.554413
      22A     -0.528082    23A     -0.511221    24A     -0.487894
      25A     -0.472721    26A     -0.468663    27A     -0.467823
      28A     -0.401103

  @DF-RHF Final Energy:  -309.06583987217653

   => Energetics <=

    Nuclear Repulsion Energy =            301.5558265799191986
    One-Electron Energy =               -1016.2989498067585146
    Two-Electron Energy =                 405.6772833546639276
    DFT Exchange-Correlation Energy =       0.0000000000000000
    Empirical Dispersion Energy =           0.0000000000000000
    PCM Polarization Energy =               0.0000000000000000
    EFP Energy =                            0.0000000000000000
    Total Energy =                       -309.0658398721753883

  Mulliken Charges: (a.u.)
   Center  Symbol    Alpha    Beta     Spin     Total
       1     O     4.26076  4.26076  0.00000 -0.52152
       2     C     2.73701  2.73701  0.00000  0.52599
       3     C     3.21128  3.21128  0.00000 -0.42256
       4     C     3.28571  3.28571  0.00000 -0.57143
       5     C     3.14764  3.14764  0.00000 -0.29529
       6     H     0.41040  0.41040  0.00000  0.17919
       7     H     0.40730  0.40730  0.00000  0.18540
       8     C     3.15292  3.15292  0.00000 -0.30584
       9     H     0.41541  0.41541  0.00000  0.16919
      10     H     0.40955  0.40955  0.00000  0.18090
      11     C     3.23909  3.23909  0.00000 -0.47818
      12     H     0.42505  0.42505  0.00000  0.14991
      13     H     0.42461  0.42461  0.00000  0.15079
      14     H     0.42049  0.42049  0.00000  0.15902
      15     H     0.41988  0.41988  0.00000  0.16023
      16     H     0.41957  0.41957  0.00000  0.16085
      17     H     0.39638  0.39638  0.00000  0.20725
      18     H     0.40961  0.40961  0.00000  0.18078
      19     H     0.40734  0.40734  0.00000  0.18533

   Total alpha = 28.00000, Total beta = 28.00000, Total charge = -0.00000
