                              Psi4 1.0.54 Driver

  ==> Input File <==

--------------------------------------------------------------------------
set {
	reference rhf
	basis cc-pvtz
}

set_num_threads( 4 )
memory 2 gb

molecule MOL {
0 1

H	 -3.200154	 0.233645	 0.949638
O	 -2.403863	 -0.273969	 0.993985
C	 -1.605397	 0.107680	 0.001145
C	 -0.310616	 -0.658853	 0.000791
O	 -1.916863	 0.949670	 -0.768279
C	 0.926581	 0.227233	 0.000178
H	 -0.327628	 -1.313681	 -0.864448
H	 -0.327041	 -1.313334	 0.866298
C	 2.220156	 -0.582071	 -0.000088
H	 0.899945	 0.878221	 -0.866390
H	 0.900542	 0.878581	 0.866486
C	 3.466689	 0.296012	 -0.000457
H	 2.239073	 -1.234095	 -0.869382
H	 2.239505	 -1.233985	 0.869270
H	 3.493549	 0.935857	 -0.875887
H	 4.368821	 -0.304526	 -0.001199
H	 3.494559	 0.935166	 0.875458

	symmetry c1
}
set optking {
	frozen_dihedral = ("
		2 3 4 7
	")
}

ee,wfn = optimize('scf', return_wfn=True)
oeprop( wfn, 'DIPOLE', 'QUADRUPOLE', 'MULLIKEN_CHARGES')
f=open( 'psi4out.xyz', 'w' )
f.write( "17  " )
f.write( str(ee) + "\n" )
f.write( MOL.save_string_xyz() )
f.close()
--------------------------------------------------------------------------

    Molecular point group: c1
  Charge       = 0
  Multiplicity = 1
  Basis Set: CC-PVTZ
  Basis Set:
  @DF-RHF Final Energy:  -345.04681013805396
    Total Energy =                       -345.0468101380540702
    Molecular point group: c1
  Basis Set: CC-PVTZ
  Basis Set:
  Basis Set: CC-PVTZ
  Basis Set:
  @DF-RHF Final Energy:  -345.04740439448216
    Total Energy =                       -345.0474043944822142
  Basis Set: CC-PVTZ
  Basis Set:
  Basis Set: CC-PVTZ
  Basis Set:
  @DF-RHF Final Energy:  -345.04737838607753
    Total Energy =                       -345.0473783860777530
  Basis Set: CC-PVTZ
  Basis Set:
  Basis Set: CC-PVTZ
  Basis Set:
  @DF-RHF Final Energy:  -345.04740663476053
    Total Energy =                       -345.0474066347606481
  Basis Set: CC-PVTZ
  Basis Set:
  Basis Set: CC-PVTZ
  Basis Set:
  @DF-RHF Final Energy:  -345.04746096884298
    Total Energy =                       -345.0474609688427563
  Basis Set: CC-PVTZ
  Basis Set:
  Charge       = 0
  Multiplicity = 1
  Basis Set: CC-PVTZ
  Basis Set:

    Orbital Energies (a.u.)
    -----------------------

    Doubly Occupied:

       1A    -20.606288     2A    -20.538082     3A    -11.373525
       4A    -11.238214     5A    -11.226049     6A    -11.222440
       7A    -11.212122     8A     -1.478224     9A     -1.368362
      10A     -1.094015    11A     -1.019730    12A     -0.913651
      13A     -0.825955    14A     -0.797912    15A     -0.705866
      16A     -0.687509    17A     -0.661062    18A     -0.636804
      19A     -0.593132    20A     -0.584030    21A     -0.580580
      22A     -0.538570    23A     -0.513736    24A     -0.489960
      25A     -0.482133    26A     -0.477853    27A     -0.472036
      28A     -0.442768

  @DF-RHF Final Energy:  -345.04746119042420

   => Energetics <=

    Nuclear Repulsion Energy =            304.8631905106773274
    One-Electron Energy =               -1074.2600889928116885
    Two-Electron Energy =                 424.3494372917101600
    DFT Exchange-Correlation Energy =       0.0000000000000000
    Empirical Dispersion Energy =           0.0000000000000000
    PCM Polarization Energy =               0.0000000000000000
    EFP Energy =                            0.0000000000000000
    Total Energy =                       -345.0474611904242010
    Molecular point group: c1
  Basis Set: CC-PVTZ
  Basis Set:

  -Total Gradient:
     Atom            X                  Y                   Z
    ------   -----------------  -----------------  -----------------
       1        0.000016280774     0.000003084512    -0.000012466992
       2        0.000199946751     0.000311421326     0.000406514081
       3       -0.000198718925    -0.000364296624    -0.000561278693
       4       -0.000312719752    -0.000434101068     0.000530757084
       5        0.000010334460     0.000018735728    -0.000036599207
       6       -0.000009179289     0.000010911787     0.000005817729
       7        0.000305034898     0.000468226614    -0.000325096639
       8        0.000000155899    -0.000009313276     0.000004828337
       9       -0.000002806461    -0.000010201524    -0.000010079660
      10        0.000007547460     0.000002883524    -0.000001992168
      11       -0.000004311773    -0.000002354765     0.000001162331
      12       -0.000007860135     0.000005610130    -0.000000108952
      13       -0.000000823370    -0.000005164203    -0.000000858612
      14       -0.000004305169     0.000003499823     0.000000190867
      15        0.000002034768     0.000001171932    -0.000000941125
      16       -0.000001149319    -0.000001346624     0.000000350473
      17        0.000000539175     0.000001232709    -0.000000198858

  **** Optimization is complete! (in 6 steps) ****
    Final optimized geometry and variables:
    Molecular point group: c1

    Geometry (in Angstrom), charge = 0, multiplicity = 1:

    H           -3.265316183332     0.264824118168     0.764498820397
    O           -2.489501598810    -0.265975118036     0.869354627500
    C           -1.607510502112     0.096533068183    -0.055251528647
    C           -0.332500205548    -0.704381812377    -0.000426869682
    O           -1.831130231272     0.959567121511    -0.833260521383
    C            0.908525004442     0.188431269239    -0.002765660983
    H           -0.328677279453    -1.332542426890    -0.885485323792
    H           -0.349623086399    -1.351897990707     0.864640925122
    C            2.203697899121    -0.617198711469    -0.024051762750
    H            0.866453627998     0.846037525868    -0.862164908667
    H            0.893575462968     0.825605563596     0.877048634736
    C            3.447833854860     0.264278606499    -0.018896425043
    H            2.215595372361    -1.252700741434    -0.905307863568
    H            2.230427113859    -1.283744307867     0.833588818462
    H            3.465724874296     0.919682625564    -0.882869433016
    H            4.351048027441    -0.334221718258    -0.038019473602
    H            3.482257781704     0.887240179640     0.868490263129

  Mulliken Charges: (a.u.)
   Center  Symbol    Alpha    Beta     Spin     Total
       1     H     0.38072  0.38072  0.00000  0.23856
       2     O     4.15761  4.15761  0.00000 -0.31521
       3     C     2.80958  2.80958  0.00000  0.38084
       4     C     3.09283  3.09283  0.00000 -0.18567
       5     O     4.19782  4.19782  0.00000 -0.39564
       6     C     3.09268  3.09268  0.00000 -0.18537
       7     H     0.44323  0.44323  0.00000  0.11353
       8     H     0.43739  0.43739  0.00000  0.12521
       9     C     3.08689  3.08689  0.00000 -0.17377
      10     H     0.43887  0.43887  0.00000  0.12226
      11     H     0.45097  0.45097  0.00000  0.09806
      12     C     3.14913  3.14913  0.00000 -0.29827
      13     H     0.45325  0.45325  0.00000  0.09349
      14     H     0.45407  0.45407  0.00000  0.09185
      15     H     0.45296  0.45296  0.00000  0.09409
      16     H     0.44772  0.44772  0.00000  0.10457
      17     H     0.45427  0.45427  0.00000  0.09147

   Total alpha = 28.00000, Total beta = 28.00000, Total charge = -0.00000

*** Psi4 exiting successfully. Buy a developer a beer!
