                              Psi4 1.0.54 Driver

  ==> Input File <==

--------------------------------------------------------------------------
set {
	reference rhf
	basis cc-pvtz
}

set_num_threads( 4 )
memory 2 gb

molecule MOL {
0 1

H	 2.142322	 -1.071901	 0.896456
C	 1.362745	 -0.351770	 1.079492
O	 0.462329	 -0.453336	 -0.000137
H	 1.798209	 0.638085	 1.132186
H	 0.875067	 -0.586218	 2.017278
C	 -0.590565	 0.341382	 0.000062
O	 -1.693898	 -0.053880	 0.000252
H	 -0.340426	 1.403822	 0.000200

	symmetry c1
}
set optking {
	frozen_dihedral = ("
		2 3 6 7
	")
}

ee,wfn = optimize('scf', return_wfn=True)
oeprop( wfn, 'DIPOLE', 'QUADRUPOLE', 'MULLIKEN_CHARGES')
f=open( 'psi4out.xyz', 'w' )
f.write( "8  " )
f.write( str(ee) + "\n" )
f.write( MOL.save_string_xyz() )
f.close()
--------------------------------------------------------------------------

    Molecular point group: c1
  Charge       = 0
  Multiplicity = 1
  Basis Set: CC-PVTZ
  Basis Set:
  @DF-RHF Final Energy:  -227.86183281378521
    Total Energy =                       -227.8618328137853837
    Molecular point group: c1
  Basis Set: CC-PVTZ
  Basis Set:
  Basis Set: CC-PVTZ
  Basis Set:
  @DF-RHF Final Energy:  -227.86209269149077
    Total Energy =                       -227.8620926914907443
  Basis Set: CC-PVTZ
  Basis Set:
  Basis Set: CC-PVTZ
  Basis Set:
  @DF-RHF Final Energy:  -227.86199773594427
    Total Energy =                       -227.8619977359442998
  Basis Set: CC-PVTZ
  Basis Set:
  Basis Set: CC-PVTZ
  Basis Set:
  @DF-RHF Final Energy:  -227.86226898733995
    Total Energy =                       -227.8622689873399167
  Basis Set: CC-PVTZ
  Basis Set:
  Basis Set: CC-PVTZ
  Basis Set:
  @DF-RHF Final Energy:  -227.86227436661090
    Total Energy =                       -227.8622743666107908
  Basis Set: CC-PVTZ
  Basis Set:
  Charge       = 0
  Multiplicity = 1
  Basis Set: CC-PVTZ
  Basis Set:

    Orbital Energies (a.u.)
    -----------------------

    Doubly Occupied:

       1A    -20.597006     2A    -20.559205     3A    -11.376137
       4A    -11.300204     5A     -1.475540     6A     -1.387790
       7A     -0.988245     8A     -0.843081     9A     -0.740478
      10A     -0.690547    11A     -0.676451    12A     -0.622903
      13A     -0.568417    14A     -0.522167    15A     -0.474914
      16A     -0.460530

  @DF-RHF Final Energy:  -227.86227536448234

   => Energetics <=

    Nuclear Repulsion Energy =            121.7571256331987115
    One-Electron Energy =                -552.6715705103499658
    Two-Electron Energy =                 203.0521695126687973
    DFT Exchange-Correlation Energy =       0.0000000000000000
    Empirical Dispersion Energy =           0.0000000000000000
    PCM Polarization Energy =               0.0000000000000000
    EFP Energy =                            0.0000000000000000
    Total Energy =                       -227.8622753644824570
    Molecular point group: c1
  Basis Set: CC-PVTZ
  Basis Set:

  -Total Gradient:
     Atom            X                  Y                   Z
    ------   -----------------  -----------------  -----------------
       1       -0.000017613592    -0.000001788412    -0.000031307785
       2       -0.002425585601    -0.002581578345     0.002595087266
       3        0.003634667688     0.004112194767    -0.000939109475
       4        0.000009922568    -0.000009115561    -0.000001594827
       5       -0.000005683404    -0.000002089508    -0.000009760835
       6       -0.001386725195    -0.001964386289    -0.007299585349
       7        0.000180608086     0.000444044212     0.005692148979
       8        0.000010409448     0.000002719136    -0.000005877972

  **** Optimization is complete! (in 6 steps) ****
    Final optimized geometry and variables:
    Molecular point group: c1

    Geometry (in Angstrom), charge = 0, multiplicity = 1:

    H            2.278634836814    -0.936840468719     0.553449950069
    C            1.458940071540    -0.272689899115     0.771046508955
    O            0.528191417183    -0.411380529381    -0.279108212330
    H            1.831958539171     0.744550417761     0.834039355631
    H            1.005523880822    -0.550363065146     1.713509455256
    C           -0.459216012780     0.482636516727    -0.309027981575
    O           -1.593964283960     0.205452622159    -0.238005321254
    H           -0.105071547363     1.511080033292    -0.395207177132

  Mulliken Charges: (a.u.)
   Center  Symbol    Alpha    Beta     Spin     Total
       1     H     0.44244  0.44244  0.00000  0.11511
       2     C     3.02554  3.02554  0.00000 -0.05108
       3     O     4.14127  4.14127  0.00000 -0.28255
       4     H     0.46675  0.46675  0.00000  0.06651
       5     H     0.45591  0.45591  0.00000  0.08819
       6     C     2.83283  2.83283  0.00000  0.33434
       7     O     4.16291  4.16291  0.00000 -0.32583
       8     H     0.47235  0.47235  0.00000  0.05531

   Total alpha = 16.00000, Total beta = 16.00000, Total charge = -0.00000

*** Psi4 exiting successfully. Buy a developer a beer!
