                              Psi4 1.0.54 Driver

  ==> Input File <==

--------------------------------------------------------------------------
set {
	reference rhf
	basis cc-pvtz
}

set_num_threads( 4 )
memory 2 gb

molecule MOL {
0 1

O	 -2.440701	 -0.934798	 -0.415053
C	 -1.922978	 0.063265	 -0.045005
C	 -2.632749	 1.372204	 0.158357
O	 -0.637375	 0.157174	 0.243149
H	 -2.187724	 2.129143	 -0.474664
H	 -3.677681	 1.257276	 -0.079438
H	 -2.516788	 1.693160	 1.185542
C	 0.162530	 -1.009518	 0.097799
C	 1.587210	 -0.664190	 0.477086
H	 0.096803	 -1.356267	 -0.924704
H	 -0.233803	 -1.785900	 0.736810
C	 1.721937	 0.054830	 1.816721
H	 1.989283	 -0.037201	 -0.314090
H	 2.179367	 -1.574206	 0.484768
C	 3.166733	 0.411056	 2.150312
H	 1.122066	 0.960838	 1.796677
H	 1.311784	 -0.568996	 2.602507
H	 3.233107	 0.923372	 3.102947
H	 3.596342	 1.060832	 1.394918
H	 3.784949	 -0.478480	 2.209921

	symmetry c1
}
set optking {
	frozen_dihedral = ("
		12 9 8 10
	")
}

ee,wfn = optimize('scf', return_wfn=True)
oeprop( wfn, 'DIPOLE', 'QUADRUPOLE', 'MULLIKEN_CHARGES')
f=open( 'psi4out.xyz', 'w' )
f.write( "20  " )
f.write( str(ee) + "\n" )
f.write( MOL.save_string_xyz() )
f.close()
--------------------------------------------------------------------------

    Molecular point group: c1
  Charge       = 0
  Multiplicity = 1
  Basis Set: CC-PVTZ
  Basis Set:
  @DF-RHF Final Energy:  -384.08618525143771
    Total Energy =                       -384.0861852514376551
    Molecular point group: c1
  Basis Set: CC-PVTZ
  Basis Set:
  Basis Set: CC-PVTZ
  Basis Set:
  @DF-RHF Final Energy:  -384.08645303200706
    Total Energy =                       -384.0864530320077392
  Basis Set: CC-PVTZ
  Basis Set:
  Basis Set: CC-PVTZ
  Basis Set:
  @DF-RHF Final Energy:  -384.08644551378427
    Total Energy =                       -384.0864455137848381
  Basis Set: CC-PVTZ
  Basis Set:
  Basis Set: CC-PVTZ
  Basis Set:
  @DF-RHF Final Energy:  -384.08656432868656
    Total Energy =                       -384.0865643286863360
  Basis Set: CC-PVTZ
  Basis Set:
  Basis Set: CC-PVTZ
  Basis Set:
  @DF-RHF Final Energy:  -384.08658358413601
    Total Energy =                       -384.0865835841359512
  Basis Set: CC-PVTZ
  Basis Set:
  Basis Set: CC-PVTZ
  Basis Set:
  @DF-RHF Final Energy:  -384.08659505517448
    Total Energy =                       -384.0865950551743708
  Basis Set: CC-PVTZ
  Basis Set:
  Charge       = 0
  Multiplicity = 1
  Basis Set: CC-PVTZ
  Basis Set:

    Orbital Energies (a.u.)
    -----------------------

    Doubly Occupied:

       1A    -20.593857     2A    -20.532516     3A    -11.366546
       4A    -11.280656     5A    -11.231644     6A    -11.223926
       7A    -11.218156     8A    -11.211262     9A     -1.470760
      10A     -1.364928    11A     -1.086491    12A     -1.029000
      13A     -0.982091    14A     -0.881192    15A     -0.814722
      16A     -0.771842    17A     -0.692402    18A     -0.688969
      19A     -0.669752    20A     -0.633799    21A     -0.599935
      22A     -0.594268    23A     -0.573382    24A     -0.550392
      25A     -0.546289    26A     -0.534215    27A     -0.512151
      28A     -0.484830    29A     -0.474784    30A     -0.471689
      31A     -0.452398    32A     -0.442090

  @DF-RHF Final Energy:  -384.08659539168639

   => Energetics <=

    Nuclear Repulsion Energy =            386.4931318214852354
    One-Electron Energy =               -1289.1975859103963558
    Two-Electron Energy =                 518.6178586972253015
    DFT Exchange-Correlation Energy =       0.0000000000000000
    Empirical Dispersion Energy =           0.0000000000000000
    PCM Polarization Energy =               0.0000000000000000
    EFP Energy =                            0.0000000000000000
    Total Energy =                       -384.0865953916858189
    Molecular point group: c1
  Basis Set: CC-PVTZ
  Basis Set:

  -Total Gradient:
     Atom            X                  Y                   Z
    ------   -----------------  -----------------  -----------------
       1       -0.000019963061    -0.000026124266    -0.000007951648
       2       -0.000039144503     0.000065893343    -0.000041667198
       3        0.000006335100    -0.000034430372     0.000034555357
       4        0.000087268244     0.000000806276     0.000030701997
       5        0.000007647333    -0.000009586308    -0.000014189417
       6       -0.000026781219     0.000001356616    -0.000008413577
       7        0.000009941021     0.000007390491     0.000002237817
       8        0.000704484262    -0.003505763762     0.000986563426
       9        0.000345039548    -0.002567896610     0.001491638747
      10       -0.000696547346     0.003614044808    -0.001189597425
      11        0.000011687955    -0.000013286504    -0.000001196211
      12       -0.000390152809     0.002489778707    -0.001288807621
      13        0.000020913402     0.000004740817    -0.000002387217
      14       -0.000025200588    -0.000004887767    -0.000003406973
      15       -0.000002755776     0.000010457050    -0.000019887502
      16        0.000024151493    -0.000024380520     0.000008956804
      17       -0.000009653278    -0.000007193675     0.000017926679
      18       -0.000005538860     0.000007634501     0.000004284148
      19        0.000002335999    -0.000005144140    -0.000002808546
      20       -0.000004066931    -0.000003408683     0.000003448358

  **** Optimization is complete! (in 7 steps) ****
    Final optimized geometry and variables:
    Molecular point group: c1

    Geometry (in Angstrom), charge = 0, multiplicity = 1:

    O           -2.283907016547    -0.949157624926    -0.964420269245
    C           -1.803464962941     0.074865912813    -0.615422055575
    C           -2.559574491480     1.362666261342    -0.449287776220
    O           -0.523946433568     0.220393140708    -0.322764849529
    H           -2.132063767545     2.120402172661    -1.093216279480
    H           -3.597081444103     1.207247607547    -0.696601641584
    H           -2.467526282442     1.708905030701     0.572107455727
    C            0.317165869856    -0.922327987751    -0.440261029982
    C            1.733503421286    -0.520771851169    -0.075727374624
    H            0.266334875087    -1.264227572305    -1.464003960142
    H           -0.059290685042    -1.702710990668     0.206261302798
    C            1.869498145243     0.198169443046     1.264079198921
    H            2.131343973537     0.115618122543    -0.860911285088
    H            2.334856110964    -1.425396434889    -0.076107973780
    C            3.321284658242     0.507668153486     1.613836430845
    H            1.298644964736     1.117274313124     1.236477054835
    H            1.431721856551    -0.413151635306     2.049312652583
    H            3.392045551924     1.026795453755     2.562487857541
    H            3.779784557482     1.137125483489     0.858292946597
    H            3.911135963297    -0.399854444654     1.688718523859

  Mulliken Charges: (a.u.)
   Center  Symbol    Alpha    Beta     Spin     Total
       1     O     4.19763  4.19763  0.00000 -0.39526
       2     C     2.80812  2.80812  0.00000  0.38376
       3     C     3.13886  3.13886  0.00000 -0.27773
       4     O     4.15309  4.15309  0.00000 -0.30618
       5     H     0.44580  0.44580  0.00000  0.10840
       6     H     0.43748  0.43748  0.00000  0.12504
       7     H     0.44598  0.44598  0.00000  0.10804
       8     C     2.99520  2.99520  0.00000  0.00961
       9     C     3.08591  3.08591  0.00000 -0.17182
      10     H     0.44480  0.44480  0.00000  0.11040
      11     H     0.44925  0.44925  0.00000  0.10150
      12     C     3.08479  3.08479  0.00000 -0.16957
      13     H     0.45253  0.45253  0.00000  0.09494
      14     H     0.45166  0.45166  0.00000  0.09668
      15     C     3.15050  3.15050  0.00000 -0.30100
      16     H     0.44525  0.44525  0.00000  0.10950
      17     H     0.45568  0.45568  0.00000  0.08865
      18     H     0.44738  0.44738  0.00000  0.10525
      19     H     0.45468  0.45468  0.00000  0.09064
      20     H     0.45541  0.45541  0.00000  0.08917

   Total alpha = 32.00000, Total beta = 32.00000, Total charge = -0.00000

*** Psi4 exiting successfully. Buy a developer a beer!
