  ==> Input File <==

--------------------------------------------------------------------------
set {
	reference rhf
	basis 6-31G*
}

set_num_threads( 4 )
memory 2 gb

molecule MOL {
0 1

O	 2.012540	 -0.015602	 0.775186
C	 1.122059	 0.121804	 -0.000188
C	 -0.170150	 -0.657997	 -0.000612
O	 1.151960	 1.002955	 -0.991981
C	 -1.412532	 0.227344	 -0.000452
H	 -0.153702	 -1.313099	 -0.867402
H	 -0.153924	 -1.313811	 0.865644
C	 -2.706999	 -0.587347	 -0.000541
H	 -1.388000	 0.879466	 -0.868000
H	 -1.387972	 0.879138	 0.867341
C	 -3.956778	 0.291888	 0.000910
H	 -2.726114	 -1.239230	 -0.871609
H	 -2.725217	 -1.240844	 0.869333
H	 -3.985213	 0.933254	 -0.875158
H	 -4.860123	 -0.309979	 0.000519
H	 -3.984618	 0.931166	 0.878514
C	 2.314360	 1.803640	 -1.105429
H	 2.456448	 2.395884	 -0.212935
H	 2.149116	 2.444743	 -1.957269
H	 3.186844	 1.186490	 -1.264814

	symmetry c1
}
set optking {
	frozen_dihedral = ("
		1 2 3 6
	")
}

ee = optimize('scf')
oeprop('DIPOLE', 'QUADRUPOLE', 'MULLIKEN_CHARGES')
f=open( 'psi4out.xyz', 'w' )
f.write( "20  " )
f.write( str(ee) + "\n" )
f.write( MOL.save_string_xyz() )
f.close()
--------------------------------------------------------------------------

    Molecular point group: c1
  Charge       = 0
  Multiplicity = 1
  Basis Set: 6-31G*
  Basis Set:
  @DF-RHF Final Energy:  -383.93987154348480
    Total Energy =                       -383.9398715434851965
    Molecular point group: c1
  Basis Set: 6-31G*
  Basis Set:
  Basis Set: 6-31G*
  Basis Set:
  @DF-RHF Final Energy:  -383.93921243478712
    Total Energy =                       -383.9392124347871231
  Basis Set: 6-31G*
  Basis Set:
  Basis Set: 6-31G*
  Basis Set:
  @DF-RHF Final Energy:  -383.94003078258595
    Total Energy =                       -383.9400307825859500
  Basis Set: 6-31G*
  Basis Set:
  Basis Set: 6-31G*
  Basis Set:
  @DF-RHF Final Energy:  -383.94017047967372
    Total Energy =                       -383.9401704796737249
  Basis Set: 6-31G*
  Basis Set:
  Charge       = 0
  Multiplicity = 1
  Basis Set: 6-31G*
  Basis Set:

    Orbital Energies (a.u.)
    -----------------------

    Doubly Occupied:

       1A    -20.604493     2A    -20.543646     3A    -11.371349
       4A    -11.281073     5A    -11.234768     6A    -11.227390
       7A    -11.223685     8A    -11.214126     9A     -1.469138
      10A     -1.361443    11A     -1.092452    12A     -1.024884
      13A     -0.966449    14A     -0.891645    15A     -0.806991
      16A     -0.774167    17A     -0.693418    18A     -0.680878
      19A     -0.672980    20A     -0.647498    21A     -0.595900
      22A     -0.591962    23A     -0.577874    24A     -0.548998
      25A     -0.532202    26A     -0.522351    27A     -0.508425
      28A     -0.487188    29A     -0.481144    30A     -0.473823
      31A     -0.454790    32A     -0.428726

  @DF-RHF Final Energy:  -383.94016973640936

   => Energetics <=

    Nuclear Repulsion Energy =            383.5163611710495957
    One-Electron Energy =               -1282.9413489466344345
    Two-Electron Energy =                 515.4848180391753658
    DFT Exchange-Correlation Energy =       0.0000000000000000
    Empirical Dispersion Energy =           0.0000000000000000
    PCM Polarization Energy =               0.0000000000000000
    EFP Energy =                            0.0000000000000000
    Total Energy =                       -383.9401697364095298
    Molecular point group: c1
  Basis Set: 6-31G*
  Basis Set:

  -Total Gradient:
     Atom            X                  Y                   Z
    ------   -----------------  -----------------  -----------------
       1        0.000254986511    -0.000297655321    -0.000473030736
       2       -0.000230892263     0.000398308499     0.000736013841
       3       -0.000356566532     0.000530903964    -0.000633479123
       4       -0.000035559723     0.000002738029     0.000046624475
       5        0.000099896238    -0.000028184891     0.000073380830
       6        0.000266140837    -0.000460178050     0.000398963234
       7       -0.000012818882    -0.000111297799    -0.000007948051
       8        0.000026165979    -0.000009852321    -0.000047015994
       9        0.000051003132     0.000012396389    -0.000020657185
      10       -0.000010205314     0.000009004560    -0.000112430118
      11       -0.000016047012    -0.000001695566     0.000065228687
      12       -0.000035098788     0.000016641825    -0.000019520695
      13        0.000010381977    -0.000048474125    -0.000022599419
      14        0.000009045914    -0.000021562426     0.000009912693
      15       -0.000021908765     0.000004072568     0.000020410519
      16       -0.000003978359     0.000020680266    -0.000008577049
      17       -0.000042454682    -0.000046794665    -0.000016261685
      18        0.000001649062     0.000004933507     0.000009202636
      19        0.000030319894     0.000019431225     0.000002639191
      20        0.000015940779     0.000006584333    -0.000000856048

  **** Optimization is complete! (in 5 steps) ****
    Final optimized geometry and variables:
    Molecular point group: c1

    Geometry (in Angstrom), charge = 0, multiplicity = 1:

    O            2.183041775394    -0.327967572966     0.942230650033
    C            1.296788095587    -0.163024981291     0.166957704608
    C            0.003316040184    -0.940784732199     0.158104076708
    O            1.352813908649     0.726364350598    -0.816460938195
    C           -1.252450858293    -0.062089911456     0.147539866778
    H            0.015091512508    -1.579155386810    -0.721810640550
    H            0.019568461862    -1.584758145685     1.028110619803
    C           -2.537208910198    -0.891196053185     0.186701997168
    H           -1.246895712365     0.564867052364    -0.737411626860
    H           -1.229997961780     0.607399651108     1.004613961140
    C           -3.797250256219    -0.026749580961     0.195776008751
    H           -2.562049202418    -1.557099650520    -0.673303618146
    H           -2.530220755110    -1.529056711091     1.067611135345
    H           -3.850686892762     0.597488209648    -0.691480280190
    H           -4.692603343269    -0.639615317665     0.223868136001
    H           -3.817133850971     0.628043801960     1.062185615138
    C            2.533786771905     1.501584630867    -0.914554517463
    H            2.685673266327     2.077746943589    -0.013293652294
    H            2.387090333438     2.157948631517    -1.758157977653
    H            3.392124204683     0.866222500672    -1.078831257338

  Mulliken Charges: (a.u.)
   Center  Symbol    Alpha    Beta     Spin     Total
       1     O     4.28632  4.28632  0.00000 -0.57264
       2     C     2.61203  2.61203  0.00000  0.77594
       3     C     3.20058  3.20058  0.00000 -0.40116
       4     O     4.30253  4.30253  0.00000 -0.60506
       5     C     3.16065  3.16065  0.00000 -0.32131
       6     H     0.40358  0.40358  0.00000  0.19283
       7     H     0.39833  0.39833  0.00000  0.20334
       8     C     3.15361  3.15361  0.00000 -0.30721
       9     H     0.40760  0.40760  0.00000  0.18480
      10     H     0.41667  0.41667  0.00000  0.16666
      11     C     3.23993  3.23993  0.00000 -0.47986
      12     H     0.42126  0.42126  0.00000  0.15747
      13     H     0.42028  0.42028  0.00000  0.15945
      14     H     0.42033  0.42033  0.00000  0.15933
      15     H     0.41753  0.41753  0.00000  0.16494
      16     H     0.42017  0.42017  0.00000  0.15966
      17     C     3.09226  3.09226  0.00000 -0.18452
      18     H     0.40871  0.40871  0.00000  0.18258
      19     H     0.40886  0.40886  0.00000  0.18228
      20     H     0.40877  0.40877  0.00000  0.18247

   Total alpha = 32.00000, Total beta = 32.00000, Total charge =  0.00000
