                              Psi4 1.0.54 Driver

  ==> Input File <==

--------------------------------------------------------------------------
set {
	reference rhf
	basis cc-pvtz
}

set_num_threads( 4 )
memory 2 gb

molecule MOL {
0 1

O	 -2.081319	 -0.951530	 -0.502732
N	 -1.613558	 0.006676	 0.014756
C	 -0.329345	 -0.171618	 0.743966
O	 -2.068523	 1.100482	 -0.024385
C	 0.792629	 -0.431218	 -0.253466
H	 -0.476492	 -1.007138	 1.407797
H	 -0.171180	 0.738868	 1.297348
C	 2.132616	 -0.618967	 0.453181
H	 0.551564	 -1.315352	 -0.832044
H	 0.850818	 0.403330	 -0.942582
C	 3.275062	 -0.873389	 -0.523839
H	 2.060423	 -1.449511	 1.149185
H	 2.354341	 0.263015	 1.046775
H	 3.096967	 -1.768929	 -1.108637
H	 3.391549	 -0.044620	 -1.213252
H	 4.213060	 -1.001707	 0.002332

	symmetry c1
}
set optking {
	frozen_dihedral = ("
		5 3 2 1
	")
}

ee,wfn = optimize('scf', return_wfn=True)
oeprop( wfn, 'DIPOLE', 'QUADRUPOLE', 'MULLIKEN_CHARGES')
f=open( 'psi4out.xyz', 'w' )
f.write( "16  " )
f.write( str(ee) + "\n" )
f.write( MOL.save_string_xyz() )
f.close()
--------------------------------------------------------------------------

    Molecular point group: c1
  Charge       = 0
  Multiplicity = 1
  Basis Set: CC-PVTZ
  Basis Set:
  @DF-RHF Final Energy:  -360.90933157104070
    Total Energy =                       -360.9093315710406387
    Molecular point group: c1
  Basis Set: CC-PVTZ
  Basis Set:
  Basis Set: CC-PVTZ
  Basis Set:
  @DF-RHF Final Energy:  -360.90760021060305
    Total Energy =                       -360.9076002106028227
  Basis Set: CC-PVTZ
  Basis Set:
  Basis Set: CC-PVTZ
  Basis Set:
  @DF-RHF Final Energy:  -360.90918992701114
    Total Energy =                       -360.9091899270111981
  Basis Set: CC-PVTZ
  Basis Set:
  Basis Set: CC-PVTZ
  Basis Set:
  @DF-RHF Final Energy:  -360.90939338743499
    Total Energy =                       -360.9093933874349887
  Basis Set: CC-PVTZ
  Basis Set:
  Basis Set: CC-PVTZ
  Basis Set:
  @DF-RHF Final Energy:  -360.90939545288222
    Total Energy =                       -360.9093954528822792
  Basis Set: CC-PVTZ
  Basis Set:
  Charge       = 0
  Multiplicity = 1
  Basis Set: CC-PVTZ
  Basis Set:

    Orbital Energies (a.u.)
    -----------------------

    Doubly Occupied:

       1A    -20.591423     2A    -20.588307     3A    -15.836442
       4A    -11.296485     5A    -11.249613     6A    -11.241531
       7A    -11.225643     8A     -1.635450     9A     -1.419692
      10A     -1.136170    11A     -1.059929    12A     -0.948795
      13A     -0.843436    14A     -0.828225    15A     -0.758278
      16A     -0.739176    17A     -0.728448    18A     -0.678175
      19A     -0.615557    20A     -0.607386    21A     -0.567500
      22A     -0.541288    23A     -0.517462    24A     -0.503916
      25A     -0.496235    26A     -0.486411    27A     -0.469814
      28A     -0.452580

  @DF-RHF Final Energy:  -360.90939585602979

   => Energetics <=

    Nuclear Repulsion Energy =            312.9077718820300902
    One-Electron Energy =               -1111.5075917678805126
    Two-Electron Energy =                 437.6904240298208038
    DFT Exchange-Correlation Energy =       0.0000000000000000
    Empirical Dispersion Energy =           0.0000000000000000
    PCM Polarization Energy =               0.0000000000000000
    EFP Energy =                            0.0000000000000000
    Total Energy =                       -360.9093958560295619
    Molecular point group: c1
  Basis Set: CC-PVTZ
  Basis Set:

  -Total Gradient:
     Atom            X                  Y                   Z
    ------   -----------------  -----------------  -----------------
       1        0.000219145234     0.000127807478    -0.000317783939
       2       -0.000319681679    -0.000267794788     0.000421019370
       3        0.000147875924     0.000417752870    -0.000149640695
       4        0.000000036133     0.000006510251     0.000000904823
       5       -0.000046213446    -0.000268642118     0.000027146219
       6        0.000012274324    -0.000012664500     0.000015975526
       7        0.000015216908     0.000003485740     0.000004797272
       8       -0.000027470164    -0.000006542029     0.000006449250
       9       -0.000012101782     0.000000350134     0.000017020287
      10        0.000008187434     0.000004817394    -0.000021795623
      11        0.000002859564     0.000005174411    -0.000005450916
      12        0.000006735373    -0.000008281912     0.000005642675
      13       -0.000009954243    -0.000006655935    -0.000001703268
      14        0.000000330648     0.000000068709     0.000002170267
      15        0.000000520726     0.000001382945    -0.000004327828
      16        0.000002239041     0.000003231348    -0.000000423422

  **** Optimization is complete! (in 6 steps) ****
    Final optimized geometry and variables:
    Molecular point group: c1

    Geometry (in Angstrom), charge = 0, multiplicity = 1:

    O           -2.063813528029    -0.674923033012    -0.478165003839
    N           -1.591052092461     0.283419649669     0.035851789610
    C           -0.301166230072     0.097123765668     0.755298083497
    O           -2.052306984797     1.374278075858     0.009576145378
    C            0.822500056168    -0.167501320711    -0.237161111576
    H           -0.453362217739    -0.744854703668     1.412682882710
    H           -0.143743532188     0.998193292065     1.322292514305
    C            2.160423657549    -0.347328719222     0.475668063019
    H            0.583565064204    -1.052726444536    -0.812076058957
    H            0.884166133339     0.663912758048    -0.931550652286
    C            3.306199497816    -0.610049260267    -0.495299649970
    H            2.086020711413    -1.172260670693     1.178312832136
    H            2.380731727182     0.539150136238     1.063005075439
    H            3.129372051966    -1.509774876300    -1.073966848315
    H            3.425783700484     0.213373363196    -1.190633079849
    H            4.242343019183    -0.734907700815     0.035023025841

  Mulliken Charges: (a.u.)
   Center  Symbol    Alpha    Beta     Spin     Total
       1     O     4.17535  4.17535  0.00000 -0.35071
       2     N     3.27626  3.27626  0.00000  0.44748
       3     C     3.04078  3.04078  0.00000 -0.08155
       4     O     4.17055  4.17055  0.00000 -0.34110
       5     C     3.10134  3.10134  0.00000 -0.20268
       6     H     0.43553  0.43553  0.00000  0.12894
       7     H     0.43274  0.43274  0.00000  0.13451
       8     C     3.09360  3.09360  0.00000 -0.18719
       9     H     0.43430  0.43430  0.00000  0.13140
      10     H     0.44152  0.44152  0.00000  0.11696
      11     C     3.14819  3.14819  0.00000 -0.29639
      12     H     0.45069  0.45069  0.00000  0.09862
      13     H     0.45038  0.45038  0.00000  0.09924
      14     H     0.45155  0.45155  0.00000  0.09691
      15     H     0.45196  0.45196  0.00000  0.09608
      16     H     0.44526  0.44526  0.00000  0.10947

   Total alpha = 28.00000, Total beta = 28.00000, Total charge = -0.00000

*** Psi4 exiting successfully. Buy a developer a beer!
