  ==> Input File <==

--------------------------------------------------------------------------
set {
	reference rhf
	basis 6-31G*
}

set_num_threads( 4 )
memory 2 gb

molecule MOL {
0 1

H	 -2.484090	 1.101190	 1.337800
C	 -1.830134	 1.688005	 1.979775
O	 -0.494527	 1.345407	 1.795064
H	 -1.936702	 2.733623	 1.725868
H	 -2.141539	 1.543844	 3.013541
C	 -0.200255	 0.017064	 2.091979
C	 1.244560	 -0.262687	 1.750721
H	 -0.362275	 -0.178086	 3.152809
H	 -0.839503	 -0.656996	 1.525404
O	 1.392611	 -0.295398	 0.366430
H	 1.872653	 0.510224	 2.189028
H	 1.536610	 -1.219695	 2.184930
C	 2.706965	 -0.449871	 -0.062409
H	 2.756559	 -0.644779	 -1.131878
H	 3.305899	 0.433456	 0.155466
H	 3.125548	 -1.294566	 0.467107

	symmetry c1
}
set optking {
	frozen_dihedral = ("
		7 10 13 14
	")
}

ee = optimize('scf')
oeprop('DIPOLE', 'QUADRUPOLE', 'MULLIKEN_CHARGES')
f=open( 'psi4out.xyz', 'w' )
f.write( "16  " )
f.write( str(ee) + "\n" )
f.write( MOL.save_string_xyz() )
f.close()
--------------------------------------------------------------------------

    Molecular point group: c1
  Charge       = 0
  Multiplicity = 1
  Basis Set: 6-31G*
  Basis Set:
  @DF-RHF Final Energy:  -306.97627956439504
    Total Energy =                       -306.9762795643949858
    Molecular point group: c1
  Basis Set: 6-31G*
  Basis Set:
  Basis Set: 6-31G*
  Basis Set:
  @DF-RHF Final Energy:  -306.97720382686140
    Total Energy =                       -306.9772038268612846
  Basis Set: 6-31G*
  Basis Set:
  Basis Set: 6-31G*
  Basis Set:
  @DF-RHF Final Energy:  -306.97748483687042
    Total Energy =                       -306.9774848368701896
  Basis Set: 6-31G*
  Basis Set:
  Basis Set: 6-31G*
  Basis Set:
  @DF-RHF Final Energy:  -306.97748600686162
    Total Energy =                       -306.9774860068616817
  Basis Set: 6-31G*
  Basis Set:
  Charge       = 0
  Multiplicity = 1
  Basis Set: 6-31G*
  Basis Set:

    Orbital Energies (a.u.)
    -----------------------

    Doubly Occupied:

       1A    -20.553566     2A    -20.553309     3A    -11.269069
       4A    -11.268407     5A    -11.263527     6A    -11.263509
       7A     -1.388091     8A     -1.370482     9A     -1.030775
      10A     -0.936029    11A     -0.891989    12A     -0.824021
      13A     -0.684077    14A     -0.680426    15A     -0.656794
      16A     -0.635344    17A     -0.630136    18A     -0.596756
      19A     -0.550554    20A     -0.536366    21A     -0.508508
      22A     -0.477545    23A     -0.462605    24A     -0.419481
      25A     -0.410460

  @DF-RHF Final Energy:  -306.97748637882427

   => Energetics <=

    Nuclear Repulsion Energy =            258.8086551228810208
    One-Electron Energy =                -931.8486259170131234
    Two-Electron Energy =                 366.0624844153079493
    DFT Exchange-Correlation Energy =       0.0000000000000000
    Empirical Dispersion Energy =           0.0000000000000000
    PCM Polarization Energy =               0.0000000000000000
    EFP Energy =                            0.0000000000000000
    Total Energy =                       -306.9774863788242101
    Molecular point group: c1
  Basis Set: 6-31G*
  Basis Set:

  -Total Gradient:
     Atom            X                  Y                   Z
    ------   -----------------  -----------------  -----------------
       1       -0.000001085802     0.000000377600     0.000000151130
       2        0.000000705606    -0.000000667235    -0.000001609417
       3       -0.000006548194    -0.000003884513    -0.000003902646
       4        0.000000049721     0.000000047309     0.000000018393
       5        0.000000591773    -0.000000304611     0.000000188077
       6        0.000004680819     0.000011350764     0.000009916798
       7       -0.000136859356    -0.001192284555     0.000007808527
       8       -0.000003346745    -0.000002101625     0.000004074217
       9        0.000004354404     0.000005253856    -0.000001216684
      10        0.000176096088     0.001336249889     0.000040991760
      11       -0.000003437191    -0.000001215932    -0.000005768082
      12        0.000004130745    -0.000001704536    -0.000003172208
      13        0.000064135681     0.001285910666    -0.000310467593
      14       -0.000092030938    -0.001435329820     0.000260519059
      15       -0.000010655165    -0.000000731699    -0.000000327998
      16       -0.000000781447    -0.000000965563     0.000002796667

  **** Optimization is complete! (in 5 steps) ****
    Final optimized geometry and variables:
    Molecular point group: c1

    Geometry (in Angstrom), charge = 0, multiplicity = 1:

    H           -2.951888709520     0.762499135219     0.010935828815
    C           -2.299982636474     1.346697168493     0.657367698995
    O           -0.964050836942     1.001951476565     0.478679621743
    H           -2.403431943666     2.393065479288     0.405319362158
    H           -2.616449714593     1.200572895317     1.689256314627
    C           -0.673661289890    -0.327566263917     0.774374938080
    C            0.772114783915    -0.609726803809     0.439362770378
    H           -0.841588393320    -0.524766043619     1.833909653535
    H           -1.311322749165    -0.999049907472     0.203027788662
    O            0.926139562123    -0.642081859100    -0.944471652587
    H            1.399083127081     0.161619465568     0.882190003183
    H            1.061023223570    -1.567792447613     0.872782193813
    C            2.242502631046    -0.796301247658    -1.368888297327
    H            2.223180441266    -0.985655321883    -2.433393502813
    H            2.831833030467     0.096709474295    -1.172470394953
    H            2.723376821495    -1.641876662984    -0.878912792883

  Mulliken Charges: (a.u.)
   Center  Symbol    Alpha    Beta     Spin     Total
       1     H     0.42806  0.42806  0.00000  0.14387
       2     C     3.07951  3.07951  0.00000 -0.15901
       3     O     4.30091  4.30091  0.00000 -0.60182
       4     H     0.41128  0.41128  0.00000  0.17743
       5     H     0.43188  0.43188  0.00000  0.13624
       6     C     2.99337  2.99337  0.00000  0.01327
       7     C     2.99348  2.99348  0.00000  0.01304
       8     H     0.43228  0.43228  0.00000  0.13544
       9     H     0.42275  0.42275  0.00000  0.15449
      10     O     4.30119  4.30119  0.00000 -0.60238
      11     H     0.42292  0.42292  0.00000  0.15415
      12     H     0.43197  0.43197  0.00000  0.13607
      13     C     3.07922  3.07922  0.00000 -0.15844
      14     H     0.41190  0.41190  0.00000  0.17621
      15     H     0.42661  0.42661  0.00000  0.14677
      16     H     0.43267  0.43267  0.00000  0.13465

   Total alpha = 25.00000, Total beta = 25.00000, Total charge = -0.00000
