                              Psi4 1.0.54 Driver

  ==> Input File <==

--------------------------------------------------------------------------
set {
	reference rhf
	basis cc-pvtz
}

set_num_threads( 4 )
memory 2 gb

molecule MOL {
0 1

H	 -3.402940	 -1.024479	 -0.134363
O	 -3.113621	 -0.142218	 0.014854
C	 -1.775048	 -0.059117	 0.004177
C	 -0.968249	 -1.170593	 -0.205898
C	 -1.209489	 1.187911	 0.212134
H	 -1.414416	 -2.134733	 -0.366512
C	 0.399141	 -1.029397	 -0.206934
H	 -1.849649	 2.032064	 0.372200
C	 0.161469	 1.312342	 0.208092
H	 1.032541	 -1.879115	 -0.367848
C	 0.981121	 0.213562	 0.000000
H	 0.601313	 2.279327	 0.369324
C	 2.447402	 0.371303	 0.000000
O	 3.227427	 -0.521847	 0.000000
H	 2.796538	 1.409525	 0.000000

	symmetry c1
}
set optking {
	frozen_dihedral = ("
		7 11 13 14
	")
}

ee,wfn = optimize('scf', return_wfn=True)
oeprop( wfn, 'DIPOLE', 'QUADRUPOLE', 'MULLIKEN_CHARGES')
f=open( 'psi4out.xyz', 'w' )
f.write( "15  " )
f.write( str(ee) + "\n" )
f.write( MOL.save_string_xyz() )
f.close()
--------------------------------------------------------------------------

    Molecular point group: c1
  Charge       = 0
  Multiplicity = 1
  Basis Set: CC-PVTZ
  Basis Set:
  @DF-RHF Final Energy:  -418.44222124989585
    Total Energy =                       -418.4422212498956242
    Molecular point group: c1
  Basis Set: CC-PVTZ
  Basis Set:
  Basis Set: CC-PVTZ
  Basis Set:
  @DF-RHF Final Energy:  -418.44186703439118
    Total Energy =                       -418.4418670343911799
  Basis Set: CC-PVTZ
  Basis Set:
  Basis Set: CC-PVTZ
  Basis Set:
  @DF-RHF Final Energy:  -418.44225715202970
    Total Energy =                       -418.4422571520299243
  Basis Set: CC-PVTZ
  Basis Set:
  Basis Set: CC-PVTZ
  Basis Set:
  @DF-RHF Final Energy:  -418.44228279004972
    Total Energy =                       -418.4422827900499442
  Basis Set: CC-PVTZ
  Basis Set:
  Charge       = 0
  Multiplicity = 1
  Basis Set: CC-PVTZ
  Basis Set:

    Orbital Energies (a.u.)
    -----------------------

    Doubly Occupied:

       1A    -20.604798     2A    -20.545822     3A    -11.322809
       4A    -11.322447     5A    -11.258140     6A    -11.254724
       7A    -11.242343     8A    -11.236877     9A    -11.236571
      10A     -1.437998    11A     -1.402017    12A     -1.175242
      13A     -1.044808    14A     -1.042510    15A     -0.892106
      16A     -0.871009    17A     -0.797581    18A     -0.762526
      19A     -0.717825    20A     -0.671085    21A     -0.646517
      22A     -0.631431    23A     -0.615274    24A     -0.610839
      25A     -0.587849    26A     -0.563138    27A     -0.554332
      28A     -0.509101    29A     -0.490464    30A     -0.421690
      31A     -0.362490    32A     -0.331419

  @DF-RHF Final Energy:  -418.44228298854705

   => Energetics <=

    Nuclear Repulsion Energy =            402.2880756724860021
    One-Electron Energy =               -1367.1331523419248697
    Two-Electron Energy =                 546.4027936808919321
    DFT Exchange-Correlation Energy =       0.0000000000000000
    Empirical Dispersion Energy =           0.0000000000000000
    PCM Polarization Energy =               0.0000000000000000
    EFP Energy =                            0.0000000000000000
    Total Energy =                       -418.4422829885469355
    Molecular point group: c1
  Basis Set: CC-PVTZ
  Basis Set:

  -Total Gradient:
     Atom            X                  Y                   Z
    ------   -----------------  -----------------  -----------------
       1       -0.000002957925     0.000006197014    -0.000012979700
       2       -0.000004888782     0.000012062551    -0.000071506199
       3        0.000011273136    -0.000070721583     0.000241267375
       4       -0.000027429772     0.000019752982    -0.000046603237
       5        0.000023329832     0.000038583656    -0.000074598636
       6        0.000004033125     0.000002938095    -0.000001858260
       7       -0.000020652636     0.000378395451    -0.001881242511
       8       -0.000006870888    -0.000005685532     0.000003480258
       9       -0.000045054347     0.000025210323    -0.000045567955
      10       -0.000000269005     0.000003631193     0.000013806025
      11        0.000099144792    -0.000564568465     0.003787276114
      12        0.000002924942    -0.000015610529     0.000041939625
      13       -0.000006382812     0.000279761705    -0.004276057443
      14        0.000011161440    -0.000024536588     0.002335824971
      15       -0.000037361105    -0.000085410276    -0.000013180425

  **** Optimization is complete! (in 5 steps) ****
    Final optimized geometry and variables:
    Molecular point group: c1

    Geometry (in Angstrom), charge = 0, multiplicity = 1:

    H           -3.403011269069    -1.020069420129    -0.159797083997
    O           -3.114127600751    -0.138666057933    -0.004025435395
    C           -1.775501638396    -0.057257200424    -0.004049204494
    C           -0.968536314589    -1.167951106354    -0.218940054366
    C           -1.209626486191     1.187733337080     0.213443001945
    H           -1.415083206998    -2.129301082140    -0.394901287926
    C            0.398948305792    -1.029246399996    -0.206809198217
    H           -1.849237285601     2.032514539538     0.372795903828
    C            0.161713758258     1.311267695283     0.214006467633
    H            1.031954454763    -1.879175438246    -0.368781217330
    C            0.981288221672     0.210672332865     0.017260961338
    H            0.601298609167     2.278473818243     0.374904404913
    C            2.448018811457     0.369364697353     0.011531675799
    O            3.227880516929    -0.523427641524    -0.007578344709
    H            2.796464026263     1.407292309636     0.045079685391

  Mulliken Charges: (a.u.)
   Center  Symbol    Alpha    Beta     Spin     Total
       1     H     0.38536  0.38536  0.00000  0.22928
       2     O     4.16626  4.16626  0.00000 -0.33253
       3     C     2.84440  2.84440  0.00000  0.31119
       4     C     3.13224  3.13224  0.00000 -0.26448
       5     C     3.10846  3.10846  0.00000 -0.21692
       6     H     0.43107  0.43107  0.00000  0.13786
       7     C     3.06754  3.06754  0.00000 -0.13508
       8     H     0.41667  0.41667  0.00000  0.16666
       9     C     3.06636  3.06636  0.00000 -0.13272
      10     H     0.40736  0.40736  0.00000  0.18528
      11     C     3.00158  3.00158  0.00000 -0.00317
      12     H     0.42150  0.42150  0.00000  0.15700
      13     C     2.91182  2.91182  0.00000  0.17635
      14     O     4.17872  4.17872  0.00000 -0.35745
      15     H     0.46065  0.46065  0.00000  0.07871

   Total alpha = 32.00000, Total beta = 32.00000, Total charge =  0.00000

*** Psi4 exiting successfully. Buy a developer a beer!
