                              Psi4 1.0.54 Driver

  ==> Input File <==

--------------------------------------------------------------------------
set {
	reference rhf
	basis cc-pvtz
}

set_num_threads( 4 )
memory 2 gb

molecule MOL {
0 1

H	 -1.081687	 2.176454	 2.654251
O	 -0.817393	 2.709724	 1.927152
C	 -0.460436	 1.903215	 0.839831
C	 0.878532	 1.228900	 1.064006
H	 -1.216417	 1.151699	 0.635268
H	 -0.397917	 2.548650	 -0.024568
O	 1.172093	 0.457955	 -0.054438
H	 0.835890	 0.604910	 1.958274
H	 1.643015	 1.984957	 1.229895
C	 2.395478	 -0.199028	 -0.000366
H	 2.505946	 -0.901710	 -0.823354
H	 3.174616	 0.545641	 -0.071768
H	 2.513730	 -0.742241	 0.934223

	symmetry c1
}
set optking {
	frozen_dihedral = ("
		4 7 10 13
	")
}

ee,wfn = optimize('scf', return_wfn=True)
oeprop( wfn, 'DIPOLE', 'QUADRUPOLE', 'MULLIKEN_CHARGES')
f=open( 'psi4out.xyz', 'w' )
f.write( "13  " )
f.write( str(ee) + "\n" )
f.write( MOL.save_string_xyz() )
f.close()
--------------------------------------------------------------------------

    Molecular point group: c1
  Charge       = 0
  Multiplicity = 1
  Basis Set: CC-PVTZ
  Basis Set:
  @DF-RHF Final Energy:  -268.06112277573845
    Total Energy =                       -268.0611227757382267
    Molecular point group: c1
  Basis Set: CC-PVTZ
  Basis Set:
  Basis Set: CC-PVTZ
  Basis Set:
  @DF-RHF Final Energy:  -268.06184615987775
    Total Energy =                       -268.0618461598778026
  Basis Set: CC-PVTZ
  Basis Set:
  Basis Set: CC-PVTZ
  Basis Set:
  @DF-RHF Final Energy:  -268.06204256869512
    Total Energy =                       -268.0620425686950057
  Basis Set: CC-PVTZ
  Basis Set:
  Charge       = 0
  Multiplicity = 1
  Basis Set: CC-PVTZ
  Basis Set:

    Orbital Energies (a.u.)
    -----------------------

    Doubly Occupied:

       1A    -20.555810     2A    -20.552882     3A    -11.269369
       4A    -11.267810     5A    -11.267484     6A     -1.391863
       7A     -1.369278     8A     -1.019734     9A     -0.914023
      10A     -0.842960    11A     -0.711902    12A     -0.676495
      13A     -0.663423    14A     -0.638800    15A     -0.598235
      16A     -0.570609    17A     -0.547493    18A     -0.491237
      19A     -0.483923    20A     -0.441722    21A     -0.424189

  @DF-RHF Final Energy:  -268.06204365826466

   => Energetics <=

    Nuclear Repulsion Energy =            190.5023420283165478
    One-Electron Energy =                -743.7302876200665196
    Two-Electron Energy =                 285.1659019334852587
    DFT Exchange-Correlation Energy =       0.0000000000000000
    Empirical Dispersion Energy =           0.0000000000000000
    PCM Polarization Energy =               0.0000000000000000
    EFP Energy =                            0.0000000000000000
    Total Energy =                       -268.0620436582647130
    Molecular point group: c1
  Basis Set: CC-PVTZ
  Basis Set:

  -Total Gradient:
     Atom            X                  Y                   Z
    ------   -----------------  -----------------  -----------------
       1        0.000007180007    -0.000017052047    -0.000014121092
       2        0.000104759897    -0.000048826332    -0.000060802592
       3       -0.000045298794    -0.000040271253    -0.000101492513
       4       -0.000485954370    -0.000973803399     0.000677626983
       5       -0.000005822749    -0.000001382894     0.000002652820
       6       -0.000023058022     0.000031436593     0.000002739655
       7        0.000953741535     0.001670891011    -0.000547768840
       8        0.000008021611     0.000000690427     0.000010589703
       9        0.000018448287    -0.000016635580    -0.000042891591
      10       -0.001036972049    -0.001811168096    -0.000570093666
      11       -0.000053800573     0.000019087893    -0.000006375307
      12       -0.000026776725     0.000020000249    -0.000004507412
      13        0.000585531944     0.001167033430     0.000654443858

  **** Optimization is complete! (in 4 steps) ****
    Final optimized geometry and variables:
    Molecular point group: c1

    Geometry (in Angstrom), charge = 0, multiplicity = 1:

    H           -1.714831275359     0.941765291947     1.869516349379
    O           -1.431269380910     1.485229287005     1.157367374349
    C           -1.072852751382     0.694913806472     0.058795873727
    C            0.250772945095    -0.007142141312     0.288393471206
    H           -1.838419222653    -0.039241853172    -0.171646311400
    H           -0.987037144407     1.356627650334    -0.791174187926
    O            0.543950770637    -0.763980575228    -0.839676341490
    H            0.185686244470    -0.646523655115     1.170018224868
    H            1.025974532505     0.732559414224     0.477825968124
    C            1.758850638029    -1.437392066766    -0.788152058117
    H            1.796726695441    -2.122189375518    -1.622437119389
    H            2.595813927790    -0.746676305223    -0.861658604260
    H            1.864506689052    -1.997459920947     0.138035928211

  Mulliken Charges: (a.u.)
   Center  Symbol    Alpha    Beta     Spin     Total
       1     H     0.39406  0.39406  0.00000  0.21188
       2     O     4.20212  4.20212  0.00000 -0.40424
       3     C     2.97354  2.97354  0.00000  0.05291
       4     C     2.96513  2.96513  0.00000  0.06975
       5     H     0.46699  0.46699  0.00000  0.06602
       6     H     0.45258  0.45258  0.00000  0.09484
       7     O     4.17571  4.17571  0.00000 -0.35143
       8     H     0.48120  0.48120  0.00000  0.03761
       9     H     0.47039  0.47039  0.00000  0.05922
      10     C     3.03137  3.03137  0.00000 -0.06274
      11     H     0.44639  0.44639  0.00000  0.10722
      12     H     0.46776  0.46776  0.00000  0.06447
      13     H     0.47276  0.47276  0.00000  0.05449

   Total alpha = 21.00000, Total beta = 21.00000, Total charge =  0.00000

*** Psi4 exiting successfully. Buy a developer a beer!
