  ==> Input File <==

--------------------------------------------------------------------------
set {
	reference rhf
	basis cc-pvtz
}

set_num_threads( 4 )
memory 2 gb

molecule MOL {
0 1

H	 1.607463	 1.680282	 -1.621056
O	 0.724298	 1.518248	 -1.346446
C	 0.700177	 0.619554	 -0.266242
C	 -0.713111	 0.588314	 0.266177
H	 1.376188	 0.945530	 0.518408
H	 0.992287	 -0.377854	 -0.584404
O	 -1.421673	 -0.521378	 -0.196983
H	 -1.244794	 1.469161	 -0.069059
H	 -0.685100	 0.604721	 1.352683
H	 -0.933408	 -1.297830	 0.014544

	symmetry c1
}
set optking {
	frozen_dihedral = ("
		5 3 4 7
	")
}

ee = optimize('scf')
oeprop('DIPOLE', 'QUADRUPOLE', 'MULLIKEN_CHARGES')
f=open( 'psi4out.xyz', 'w' )
f.write( "10  " )
f.write( str(ee) + "\n" )
f.write( MOL.save_string_xyz() )
f.close()
--------------------------------------------------------------------------

    Molecular point group: c1
  Charge       = 0
  Multiplicity = 1
  Basis Set: CC-PVTZ
  Basis Set:
  @DF-RHF Final Energy:  -229.01852321146771
    Total Energy =                       -229.0185232114676808
    Molecular point group: c1
  Basis Set: CC-PVTZ
  Basis Set:
  Basis Set: CC-PVTZ
  Basis Set:
  @DF-RHF Final Energy:  -229.01957839238619
    Total Energy =                       -229.0195783923862791
  Basis Set: CC-PVTZ
  Basis Set:
  Basis Set: CC-PVTZ
  Basis Set:
  @DF-RHF Final Energy:  -229.01996948859880
    Total Energy =                       -229.0199694885986617
  Basis Set: CC-PVTZ
  Basis Set:
  Basis Set: CC-PVTZ
  Basis Set:
  @DF-RHF Final Energy:  -229.02006815665624
    Total Energy =                       -229.0200681566562935
  Basis Set: CC-PVTZ
  Basis Set:
  Basis Set: CC-PVTZ
  Basis Set:
  @DF-RHF Final Energy:  -229.02008338729027
    Total Energy =                       -229.0200833872903274
  Basis Set: CC-PVTZ
  Basis Set:
  Basis Set: CC-PVTZ
  Basis Set:
  @DF-RHF Final Energy:  -229.02008466483272
    Total Energy =                       -229.0200846648327229
  Basis Set: CC-PVTZ
  Basis Set:
  Charge       = 0
  Multiplicity = 1
  Basis Set: CC-PVTZ
  Basis Set:

    Orbital Energies (a.u.)
    -----------------------

    Doubly Occupied:

       1A    -20.552317     2A    -20.548324     3A    -11.272464
       4A    -11.268282     5A     -1.376967     6A     -1.360978
       7A     -0.999663     8A     -0.848019     9A     -0.719918
      10A     -0.691660    11A     -0.646721    12A     -0.597404
      13A     -0.581629    14A     -0.536125    15A     -0.488384
      16A     -0.447363    17A     -0.438416

  @DF-RHF Final Energy:  -229.02008480850694

   => Energetics <=

    Nuclear Repulsion Energy =            132.0396778557055484
    One-Electron Energy =                -575.3702592800823368
    Two-Electron Energy =                 214.3104966158699085
    DFT Exchange-Correlation Energy =       0.0000000000000000
    Empirical Dispersion Energy =           0.0000000000000000
    PCM Polarization Energy =               0.0000000000000000
    EFP Energy =                            0.0000000000000000
    Total Energy =                       -229.0200848085068515
    Molecular point group: c1
  Basis Set: CC-PVTZ
  Basis Set:

  -Total Gradient:
     Atom            X                  Y                   Z
    ------   -----------------  -----------------  -----------------
       1       -0.000005425502    -0.000002997184    -0.000001907269
       2        0.000007175149    -0.000000788158    -0.000021435617
       3       -0.000406171730     0.004076355885    -0.000220219732
       4       -0.001246475781     0.001516457118    -0.003095780398
       5        0.000632759566    -0.003805853010     0.000905712761
       6       -0.000000564066     0.000013480797     0.000010555730
       7        0.001010250089    -0.001798958401     0.002412465007
       8        0.000012407565     0.000017971656     0.000018161031
       9       -0.000001796335    -0.000012613469    -0.000002029323
      10       -0.000002158954    -0.000003055235    -0.000005522192

  **** Optimization is complete! (in 7 steps) ****
    Final optimized geometry and variables:
    Molecular point group: c1

    Geometry (in Angstrom), charge = 0, multiplicity = 1:

    H            1.764374267790     1.038518801561    -1.297233160886
    O            0.909030925964     1.028738570954    -0.908974191365
    C            0.868494746509     0.118570171301     0.153066252374
    C           -0.560538407886     0.004750086941     0.671459085346
    H            1.532731772539     0.421003383650     0.959306023780
    H            1.195447931149    -0.866420774942    -0.172455152120
    O           -1.261029107804    -1.093075064912     0.155407444913
    H           -1.104756773772     0.890876521922     0.381453573197
    H           -0.549485837398    -0.040419721850     1.757160352648
    H           -0.918628141771    -1.890844551508     0.513937537892

  Mulliken Charges: (a.u.)
   Center  Symbol    Alpha    Beta     Spin     Total
       1     H     0.39420  0.39420  0.00000  0.21160
       2     O     4.19536  4.19536  0.00000 -0.39072
       3     C     2.95943  2.95943  0.00000  0.08115
       4     C     2.97151  2.97151  0.00000  0.05698
       5     H     0.47868  0.47868  0.00000  0.04264
       6     H     0.48132  0.48132  0.00000  0.03735
       7     O     4.19922  4.19922  0.00000 -0.39843
       8     H     0.45145  0.45145  0.00000  0.09710
       9     H     0.47259  0.47259  0.00000  0.05481
      10     H     0.39624  0.39624  0.00000  0.20752

   Total alpha = 17.00000, Total beta = 17.00000, Total charge = -0.00000
