                              Psi4 1.0.54 Driver

  ==> Input File <==

--------------------------------------------------------------------------
set {
	reference rhf
	basis cc-pvtz
}

set_num_threads( 4 )
memory 2 gb

molecule MOL {
0 1

H	 -1.980681	 0.820346	 0.666562
N	 -1.851927	 0.161443	 -0.071573
C	 -0.561396	 -0.500007	 0.035200
H	 -1.924778	 0.664161	 -0.931400
C	 0.575129	 0.507849	 -0.048832
H	 -0.478089	 -1.200753	 -0.788956
H	 -0.456191	 -1.081816	 0.952176
C	 1.951750	 -0.141983	 0.035101
H	 0.478254	 1.061643	 -0.975981
H	 0.467676	 1.231891	 0.755499
H	 2.101550	 -0.848142	 -0.774949
H	 2.738260	 0.600794	 -0.026526
H	 2.078939	 -0.679792	 0.968824

	symmetry c1
}
set optking {
	frozen_dihedral = ("
		1 2 3 6
	")
}

ee,wfn = optimize('scf', return_wfn=True)
oeprop( wfn, 'DIPOLE', 'QUADRUPOLE', 'MULLIKEN_CHARGES')
f=open( 'psi4out.xyz', 'w' )
f.write( "13  " )
f.write( str(ee) + "\n" )
f.write( MOL.save_string_xyz() )
f.close()
--------------------------------------------------------------------------

    Molecular point group: c1
  Charge       = 0
  Multiplicity = 1
  Basis Set: CC-PVTZ
  Basis Set:
  @DF-RHF Final Energy:  -173.35060247268351
    Total Energy =                       -173.3506024726833346
    Molecular point group: c1
  Basis Set: CC-PVTZ
  Basis Set:
  Basis Set: CC-PVTZ
  Basis Set:
  @DF-RHF Final Energy:  -173.35232673235168
    Total Energy =                       -173.3523267323517416
  Basis Set: CC-PVTZ
  Basis Set:
  Basis Set: CC-PVTZ
  Basis Set:
  @DF-RHF Final Energy:  -173.35255031474381
    Total Energy =                       -173.3525503147438656
  Basis Set: CC-PVTZ
  Basis Set:
  Basis Set: CC-PVTZ
  Basis Set:
  @DF-RHF Final Energy:  -173.35255362749666
    Total Energy =                       -173.3525536274965759
  Basis Set: CC-PVTZ
  Basis Set:
  Charge       = 0
  Multiplicity = 1
  Basis Set: CC-PVTZ
  Basis Set:

    Orbital Energies (a.u.)
    -----------------------

    Doubly Occupied:

       1A    -15.526945     2A    -11.238549     3A    -11.213756
       4A    -11.209696     5A     -1.179156     6A     -1.037806
       7A     -0.899981     8A     -0.807219     9A     -0.678519
      10A     -0.608675    11A     -0.605831    12A     -0.562610
      13A     -0.521903    14A     -0.518112    15A     -0.486811
      16A     -0.471037    17A     -0.380622

  @DF-RHF Final Energy:  -173.35255386953918

   => Energetics <=

    Nuclear Repulsion Energy =            131.8338160555761078
    One-Electron Energy =                -494.4782855939152455
    Two-Electron Energy =                 189.2919156688001294
    DFT Exchange-Correlation Energy =       0.0000000000000000
    Empirical Dispersion Energy =           0.0000000000000000
    PCM Polarization Energy =               0.0000000000000000
    EFP Energy =                            0.0000000000000000
    Total Energy =                       -173.3525538695390082
    Molecular point group: c1
  Basis Set: CC-PVTZ
  Basis Set:

  -Total Gradient:
     Atom            X                  Y                   Z
    ------   -----------------  -----------------  -----------------
       1        0.000127313479     0.000260875022    -0.000203167045
       2       -0.000132550789    -0.000279962220     0.000192870713
       3       -0.000083362140    -0.000205807537     0.000187932225
       4        0.000001877465     0.000007933631    -0.000001579028
       5       -0.000073758960    -0.000030354361     0.000022272176
       6        0.000101368001     0.000228947653    -0.000194011020
       7        0.000001879631    -0.000000259604     0.000007499651
       8        0.000024605096     0.000015490827    -0.000020737248
       9        0.000009027555    -0.000004192691     0.000017087042
      10        0.000003776560     0.000008299972    -0.000004699604
      11       -0.000001096926    -0.000000694450     0.000008809821
      12        0.000028496899    -0.000010738549    -0.000002606620
      13       -0.000007575870     0.000010462307    -0.000009671062

  **** Optimization is complete! (in 5 steps) ****
    Final optimized geometry and variables:
    Molecular point group: c1

    Geometry (in Angstrom), charge = 0, multiplicity = 1:

    H           -2.032241783336     0.793920398896     0.673254263768
    N           -1.896955133034     0.124840695611    -0.055734613372
    C           -0.576868024770    -0.475283770771     0.026219557311
    H           -2.016798013605     0.607353755098    -0.921772461755
    C            0.597272643986     0.499284940286    -0.025718730413
    H           -0.485762382975    -1.190009104995    -0.785292667441
    H           -0.526799270445    -1.050517162177     0.945140506760
    C            1.951467358262    -0.196457552594     0.063617831186
    H            0.541683209174     1.072997441953    -0.947505743825
    H            0.500654834276     1.214942962733     0.787074411880
    H            2.087178683763    -0.895891658524    -0.754653785759
    H            2.764695963498     0.518607978317     0.024253161372
    H            2.045605999337    -0.752576355140     0.990448678021

  Mulliken Charges: (a.u.)
   Center  Symbol    Alpha    Beta     Spin     Total
       1     H     0.43242  0.43242  0.00000  0.13515
       2     N     3.68806  3.68806  0.00000 -0.37612
       3     C     3.02885  3.02885  0.00000 -0.05771
       4     H     0.43236  0.43236  0.00000  0.13528
       5     C     3.08112  3.08112  0.00000 -0.16224
       6     H     0.45397  0.45397  0.00000  0.09205
       7     H     0.45374  0.45374  0.00000  0.09252
       8     C     3.15212  3.15212  0.00000 -0.30425
       9     H     0.45976  0.45976  0.00000  0.08048
      10     H     0.45978  0.45978  0.00000  0.08044
      11     H     0.45494  0.45494  0.00000  0.09011
      12     H     0.44797  0.44797  0.00000  0.10406
      13     H     0.45489  0.45489  0.00000  0.09022

   Total alpha = 17.00000, Total beta = 17.00000, Total charge =  0.00000

*** Psi4 exiting successfully. Buy a developer a beer!
