  ==> Input File <==

--------------------------------------------------------------------------
set {
	reference rhf
	basis 6-31G*
}

set_num_threads( 4 )
memory 2 gb

molecule MOL {
0 1

O	 -0.682937	 1.318834	 -0.186099
C	 -0.860635	 0.152188	 -0.042321
C	 -2.173363	 -0.477127	 0.338347
O	 0.083258	 -0.765189	 -0.202595
H	 -2.477673	 -1.180929	 -0.427595
H	 -2.923125	 0.290956	 0.455536
H	 -2.058825	 -1.029004	 1.264191
C	 1.391937	 -0.334737	 -0.569838
C	 2.323056	 -1.512130	 -0.792124
H	 1.773636	 0.329182	 0.190858
H	 1.247255	 0.222590	 -1.484143
H	 3.286992	 -1.156756	 -1.143220
H	 2.477741	 -2.060885	 0.128369
H	 1.915486	 -2.185107	 -1.538718

	symmetry c1
}
set optking {
	frozen_dihedral = ("
		10 8 4 2
	")
}

ee = optimize('scf')
oeprop('DIPOLE', 'QUADRUPOLE', 'MULLIKEN_CHARGES')
f=open( 'psi4out.xyz', 'w' )
f.write( "14  " )
f.write( str(ee) + "\n" )
f.write( MOL.save_string_xyz() )
f.close()
--------------------------------------------------------------------------

    Molecular point group: c1
  Charge       = 0
  Multiplicity = 1
  Basis Set: 6-31G*
  Basis Set:
  @DF-RHF Final Energy:  -305.87453570630157
    Total Energy =                       -305.8745357063016286
    Molecular point group: c1
  Basis Set: 6-31G*
  Basis Set:
  Basis Set: 6-31G*
  Basis Set:
  @DF-RHF Final Energy:  -305.87590199784609
    Total Energy =                       -305.8759019978460856
  Basis Set: 6-31G*
  Basis Set:
  Basis Set: 6-31G*
  Basis Set:
  @DF-RHF Final Energy:  -305.87619432050582
    Total Energy =                       -305.8761943205062153
  Basis Set: 6-31G*
  Basis Set:
  Basis Set: 6-31G*
  Basis Set:
  @DF-RHF Final Energy:  -305.87595761103540
    Total Energy =                       -305.8759576110355738
  Basis Set: 6-31G*
  Basis Set:
  Basis Set: 6-31G*
  Basis Set:
  @DF-RHF Final Energy:  -305.87623213853749
    Total Energy =                       -305.8762321385377163
  Basis Set: 6-31G*
  Basis Set:
  Charge       = 0
  Multiplicity = 1
  Basis Set: 6-31G*
  Basis Set:

    Orbital Energies (a.u.)
    -----------------------

    Doubly Occupied:

       1A    -20.602188     2A    -20.544434     3A    -11.374771
       4A    -11.285381     5A    -11.233483     6A    -11.222812
       7A     -1.468529     8A     -1.362624     9A     -1.058028
      10A     -1.000443    11A     -0.870906    12A     -0.780589
      13A     -0.689164    14A     -0.688702    15A     -0.666621
      16A     -0.611115    17A     -0.580239    18A     -0.564006
      19A     -0.552743    20A     -0.540485    21A     -0.507860
      22A     -0.503896    23A     -0.453378    24A     -0.439110

  @DF-RHF Final Energy:  -305.87623283389667

   => Energetics <=

    Nuclear Repulsion Energy =            245.6295878453140347
    One-Electron Energy =                -903.8086286012317032
    Two-Electron Energy =                 352.3028079220208610
    DFT Exchange-Correlation Energy =       0.0000000000000000
    Empirical Dispersion Energy =           0.0000000000000000
    PCM Polarization Energy =               0.0000000000000000
    EFP Energy =                            0.0000000000000000
    Total Energy =                       -305.8762328338967791
    Molecular point group: c1
  Basis Set: 6-31G*
  Basis Set:

  -Total Gradient:
     Atom            X                  Y                   Z
    ------   -----------------  -----------------  -----------------
       1       -0.000018862606     0.000035141254    -0.000003421582
       2        0.000015264509    -0.000031364274    -0.000068236955
       3       -0.000003665946    -0.000001354197    -0.000029559043
       4        0.000139694129     0.000029705089     0.000146937882
       5       -0.000002494619    -0.000003960822     0.000002096686
       6        0.000010243060     0.000002798618    -0.000005530714
       7        0.000004785209     0.000001861101     0.000005991649
       8       -0.000106016078     0.000080105796    -0.000178561913
       9       -0.000028645114     0.000000944688     0.000046508291
      10        0.000016607085    -0.000114596764     0.000093885502
      11       -0.000042088760    -0.000005176045    -0.000001955825
      12        0.000015884119     0.000006639369    -0.000005335741
      13        0.000008356835    -0.000012169929    -0.000003753092
      14       -0.000009061823     0.000011426118     0.000000934854

  **** Optimization is complete! (in 6 steps) ****
    Final optimized geometry and variables:
    Molecular point group: c1

    Geometry (in Angstrom), charge = 0, multiplicity = 1:

    O           -0.700699639191     1.583381730883     0.068139906539
    C           -0.872544735092     0.415323916661     0.204433892435
    C           -2.175611318135    -0.225324868678     0.599134668898
    O            0.077671596709    -0.491100617795     0.023696067848
    H           -2.488071640936    -0.923324748547    -0.168931168979
    H           -2.927770270007     0.537346657893     0.734850273097
    H           -2.044350702517    -0.785286576910     1.517881839784
    C            1.367575953062    -0.023361320164    -0.357276197129
    C            2.257864423617    -1.236097399774    -0.527174937120
    H            1.740967711462     0.641678244887     0.409531453515
    H            1.280822325122     0.541471105922    -1.275211949588
    H            3.255791079479    -0.923800796547    -0.817503188819
    H            2.329086460251    -1.794338834836     0.399376113063
    H            1.867806650520    -1.895165867372    -1.294441990120

  Mulliken Charges: (a.u.)
   Center  Symbol    Alpha    Beta     Spin     Total
       1     O     4.28324  4.28324  0.00000 -0.56648
       2     C     2.62008  2.62008  0.00000  0.75984
       3     C     3.28154  3.28154  0.00000 -0.56309
       4     O     4.30646  4.30646  0.00000 -0.61292
       5     H     0.40052  0.40052  0.00000  0.19897
       6     H     0.39689  0.39689  0.00000  0.20621
       7     H     0.40047  0.40047  0.00000  0.19906
       8     C     3.00246  3.00246  0.00000 -0.00492
       9     C     3.24859  3.24859  0.00000 -0.49718
      10     H     0.41029  0.41029  0.00000  0.17942
      11     H     0.40965  0.40965  0.00000  0.18070
      12     H     0.41615  0.41615  0.00000  0.16770
      13     H     0.41179  0.41179  0.00000  0.17641
      14     H     0.41187  0.41187  0.00000  0.17626

   Total alpha = 24.00000, Total beta = 24.00000, Total charge =  0.00000
