                              Psi4 1.0.54 Driver

  ==> Input File <==

--------------------------------------------------------------------------
set {
	reference rhf
	basis cc-pvtz
}

set_num_threads( 4 )
memory 2 gb

molecule MOL {
0 1

H	 -3.258660	 -0.290394	 1.471450
C	 -3.307964	 -0.275695	 0.374072
C	 -2.653809	 0.914422	 -0.273689
O	 -3.855140	 -1.148880	 -0.205112
C	 -2.452870	 0.732931	 -1.781123
H	 -3.243871	 1.794413	 -0.052837
H	 -1.683931	 1.033661	 0.204249
C	 -3.758070	 0.694582	 -2.573062
H	 -1.834356	 1.546216	 -2.144918
H	 -1.888981	 -0.178985	 -1.961767
C	 -3.541414	 0.524309	 -4.074345
H	 -4.311571	 1.611614	 -2.389231
H	 -4.386622	 -0.113476	 -2.207834
C	 -4.848058	 0.498393	 -4.865078
H	 -2.906412	 1.329040	 -4.431452
H	 -2.995843	 -0.399167	 -4.255569
C	 -4.685897	 0.247704	 -6.365332
H	 -5.377002	 1.436676	 -4.714655
H	 -5.487192	 -0.277802	 -4.453577
C	 -3.968484	 1.360947	 -7.124998
H	 -5.672273	 0.112039	 -6.797824
H	 -4.158167	 -0.690267	 -6.517048
H	 -4.470575	 2.313123	 -6.986210
H	 -2.941625	 1.478193	 -6.800193
H	 -3.950447	 1.150417	 -8.188161

	symmetry c1
}
set optking {
	frozen_dihedral = ("
		6 3 2 4
	")
}

ee,wfn = optimize('scf', return_wfn=True)
oeprop( wfn, 'DIPOLE', 'QUADRUPOLE', 'MULLIKEN_CHARGES')
f=open( 'psi4out.xyz', 'w' )
f.write( "25  " )
f.write( str(ee) + "\n" )
f.write( MOL.save_string_xyz() )
f.close()
--------------------------------------------------------------------------

    Molecular point group: c1
  Charge       = 0
  Multiplicity = 1
  Basis Set: CC-PVTZ
  Basis Set:
  @DF-RHF Final Energy:  -387.25828170690647
    Total Energy =                       -387.2582817069061321
    Molecular point group: c1
  Basis Set: CC-PVTZ
  Basis Set:
  Basis Set: CC-PVTZ
  Basis Set:
  @DF-RHF Final Energy:  -387.26012400586063
    Total Energy =                       -387.2601240058608028
  Basis Set: CC-PVTZ
  Basis Set:
  Basis Set: CC-PVTZ
  Basis Set:
  @DF-RHF Final Energy:  -387.25966211210527
    Total Energy =                       -387.2596621121052749
  Basis Set: CC-PVTZ
  Basis Set:
  Basis Set: CC-PVTZ
  Basis Set:
  @DF-RHF Final Energy:  -387.26033136215852
    Total Energy =                       -387.2603313621586949
  Basis Set: CC-PVTZ
  Basis Set:
  Basis Set: CC-PVTZ
  Basis Set:
  @DF-RHF Final Energy:  -387.26046657580662
    Total Energy =                       -387.2604665758068450
  Basis Set: CC-PVTZ
  Basis Set:
  Basis Set: CC-PVTZ
  Basis Set:
  @DF-RHF Final Energy:  -387.26046891736434
    Total Energy =                       -387.2604689173649604
  Basis Set: CC-PVTZ
  Basis Set:
  Charge       = 0
  Multiplicity = 1
  Basis Set: CC-PVTZ
  Basis Set:

    Orbital Energies (a.u.)
    -----------------------

    Doubly Occupied:

       1A    -20.553324     2A    -11.323582     3A    -11.236620
       4A    -11.221191     5A    -11.210860     6A    -11.209823
       7A    -11.208925     8A    -11.208315     9A    -11.204449
      10A     -1.408999    11A     -1.096074    12A     -1.064732
      13A     -1.010621    14A     -0.942449    15A     -0.876245
      16A     -0.815011    17A     -0.777080    18A     -0.766308
      19A     -0.688794    20A     -0.652180    21A     -0.631074
      22A     -0.620160    23A     -0.607436    24A     -0.589575
      25A     -0.561383    26A     -0.549605    27A     -0.536549
      28A     -0.516985    29A     -0.504676    30A     -0.498174
      31A     -0.479359    32A     -0.473045    33A     -0.458168
      34A     -0.452601    35A     -0.437719    36A     -0.411787

  @DF-RHF Final Energy:  -387.26046893327469

   => Energetics <=

    Nuclear Repulsion Energy =            444.0244305384817949
    One-Electron Energy =               -1404.9620459323828072
    Two-Electron Energy =                 573.6771464606265454
    DFT Exchange-Correlation Energy =       0.0000000000000000
    Empirical Dispersion Energy =           0.0000000000000000
    PCM Polarization Energy =               0.0000000000000000
    EFP Energy =                            0.0000000000000000
    Total Energy =                       -387.2604689332745238
    Molecular point group: c1
  Basis Set: CC-PVTZ
  Basis Set:

  -Total Gradient:
     Atom            X                  Y                   Z
    ------   -----------------  -----------------  -----------------
       1        0.000011686640    -0.000051196182    -0.000076138728
       2        0.002909379521    -0.001544739848    -0.000315591365
       3        0.000233111757     0.001309632564     0.002248081192
       4       -0.002219143441     0.000834687375     0.000063213449
       5       -0.000078433031    -0.000118562585    -0.000040789090
       6       -0.000936017276    -0.000651986041    -0.001954415256
       7        0.000073412724     0.000081919665     0.000027699094
       8       -0.000049970560    -0.000018959189    -0.000046351423
       9       -0.000109832896    -0.000012871651    -0.000030460763
      10        0.000042572393     0.000004451036     0.000072794939
      11       -0.000035718395    -0.000045721270     0.000079905401
      12       -0.000022047806     0.000052322104     0.000025284483
      13        0.000141561420     0.000101406601    -0.000060518691
      14        0.000029129379     0.000062727450     0.000023095184
      15       -0.000032396032     0.000006273031     0.000029590502
      16        0.000018811082     0.000003338805    -0.000012671029
      17        0.000060253299    -0.000028412349     0.000018990931
      18        0.000021078013     0.000015264364    -0.000009614815
      19       -0.000015353976     0.000006275865     0.000001825726
      20       -0.000019016217     0.000000194253    -0.000012362555
      21       -0.000002460287    -0.000018484925    -0.000000941744
      22        0.000018895571     0.000008860512     0.000009100658
      23        0.000007457659     0.000012271157     0.000005668487
      24       -0.000029175972    -0.000013839472    -0.000038771304
      25       -0.000017783572     0.000005148726    -0.000006623289

  **** Optimization is complete! (in 7 steps) ****
    Final optimized geometry and variables:
    Molecular point group: c1

    Geometry (in Angstrom), charge = 0, multiplicity = 1:

    H            0.236325298285    -0.631240159292     4.557754218614
    C            0.260786487472    -0.709827062074     3.463657851976
    C            0.767423200315     0.522646351046     2.760704530761
    O           -0.116465695272    -1.698015159519     2.935372020760
    C            1.063986213589     0.355393746590     1.271318343723
    H            0.010829186614     1.291622145224     2.910466387550
    H            1.647245737361     0.859727676853     3.301723403968
    C           -0.179466694754     0.334949245439     0.384394287939
    H            1.704694390303     1.174828105014     0.960582038260
    H            1.631894391264    -0.556762381218     1.123779916787
    C            0.152237816543     0.167413129061    -1.095867220953
    H           -0.729385186000     1.263677432498     0.524335421629
    H           -0.834680156577    -0.467266910139     0.700161190895
    C           -1.089098564363     0.165164579869    -1.985893602792
    H            0.826997130244     0.961724361484    -1.400902729506
    H            0.693070654284    -0.765529216728    -1.236091771406
    C           -0.817302626255    -0.096551908557    -3.468303334081
    H           -1.608716832686     1.115144579873    -1.880777244803
    H           -1.773623334957    -0.595890776443    -1.622199504815
    C           -0.025543723351     1.000413293331    -4.176081606696
    H           -1.769763735882    -0.218858799205    -3.974922783565
    H           -0.294953134734    -1.043615617382    -3.574609695463
    H           -0.519382413342     1.962065648330    -4.078009467461
    H            0.976015151187     1.100876836288    -3.775642279832
    H            0.067956490344     0.785094329148    -5.234454373914

  Mulliken Charges: (a.u.)
   Center  Symbol    Alpha    Beta     Spin     Total
       1     H     0.44868  0.44868  0.00000  0.10264
       2     C     2.92006  2.92006  0.00000  0.15989
       3     C     3.10579  3.10579  0.00000 -0.21158
       4     O     4.16748  4.16748  0.00000 -0.33496
       5     C     3.09054  3.09054  0.00000 -0.18108
       6     H     0.44500  0.44500  0.00000  0.11000
       7     H     0.43745  0.43745  0.00000  0.12509
       8     C     3.09094  3.09094  0.00000 -0.18188
       9     H     0.44670  0.44670  0.00000  0.10660
      10     H     0.44760  0.44760  0.00000  0.10480
      11     C     3.09366  3.09366  0.00000 -0.18732
      12     H     0.45849  0.45849  0.00000  0.08302
      13     H     0.44017  0.44017  0.00000  0.11965
      14     C     3.09486  3.09486  0.00000 -0.18972
      15     H     0.45452  0.45452  0.00000  0.09096
      16     H     0.45262  0.45262  0.00000  0.09477
      17     C     3.09046  3.09046  0.00000 -0.18091
      18     H     0.45537  0.45537  0.00000  0.08926
      19     H     0.44782  0.44782  0.00000  0.10436
      20     C     3.15266  3.15266  0.00000 -0.30532
      21     H     0.44870  0.44870  0.00000  0.10261
      22     H     0.45427  0.45427  0.00000  0.09146
      23     H     0.45554  0.45554  0.00000  0.08892
      24     H     0.45409  0.45409  0.00000  0.09182
      25     H     0.44654  0.44654  0.00000  0.10692

   Total alpha = 36.00000, Total beta = 36.00000, Total charge = -0.00000

*** Psi4 exiting successfully. Buy a developer a beer!
