  ==> Input File <==

--------------------------------------------------------------------------
set {
	reference rhf
	basis 6-31G*
}

set_num_threads( 4 )
memory 2 gb

molecule MOL {
0 1

O	 -2.324811	 1.361668	 -0.277141
C	 -2.105949	 0.203097	 -0.092081
C	 -0.889235	 -0.467034	 -0.705952
C	 -3.002726	 -0.644460	 0.782455
C	 0.055074	 0.574707	 -1.327400
H	 -1.240557	 -1.143022	 -1.477908
H	 -0.357996	 -1.051758	 0.039642
C	 1.277452	 -0.070406	 -1.984845
H	 -0.508109	 1.151889	 -2.052018
H	 0.387393	 1.272006	 -0.559882
C	 2.288273	 0.928338	 -2.560002
H	 0.946341	 -0.741631	 -2.775129
H	 1.784241	 -0.691766	 -1.249369
C	 1.768290	 1.747160	 -3.742856
H	 3.170260	 0.377580	 -2.876950
H	 2.618501	 1.600526	 -1.770571
H	 1.421485	 1.099397	 -4.543390
H	 2.552867	 2.379290	 -4.146899
H	 0.944173	 2.393372	 -3.459958
H	 -3.496582	 -1.399307	 0.176174
H	 -3.747939	 -0.023774	 1.260148
H	 -2.421318	 -1.168775	 1.535358

	symmetry c1
}
set optking {
	frozen_dihedral = ("
		6 3 2 1
	")
}

ee = optimize('scf')
oeprop('DIPOLE', 'QUADRUPOLE', 'MULLIKEN_CHARGES')
f=open( 'psi4out.xyz', 'w' )
f.write( "22  " )
f.write( str(ee) + "\n" )
f.write( MOL.save_string_xyz() )
f.close()
--------------------------------------------------------------------------

    Molecular point group: c1
  Charge       = 0
  Multiplicity = 1
  Basis Set: 6-31G*
  Basis Set:
  @DF-RHF Final Energy:  -348.09898214161973
    Total Energy =                       -348.0989821416196719
    Molecular point group: c1
  Basis Set: 6-31G*
  Basis Set:
  Basis Set: 6-31G*
  Basis Set:
  @DF-RHF Final Energy:  -348.09805011084563
    Total Energy =                       -348.0980501108456338
  Basis Set: 6-31G*
  Basis Set:
  Basis Set: 6-31G*
  Basis Set:
  @DF-RHF Final Energy:  -348.09957121886077
    Total Energy =                       -348.0995712188606603
  Basis Set: 6-31G*
  Basis Set:
  Basis Set: 6-31G*
  Basis Set:
  @DF-RHF Final Energy:  -348.10010632538763
    Total Energy =                       -348.1001063253876282
  Basis Set: 6-31G*
  Basis Set:
  @DF-RHF Final Energy:  -348.09961489029348
    Total Energy =                       -348.0996148902934237
  @DF-RHF Final Energy:  -348.10015712213800
    Total Energy =                       -348.1001571221380004
  @DF-RHF Final Energy:  -348.10022515599843
    Total Energy =                       -348.1002251559983733
  Basis Set: 6-31G*
  Basis Set:
  @DF-RHF Final Energy:  -348.10022413245832
    Total Energy =                       -348.1002241324582656
  Basis Set: 6-31G*
  Basis Set:
  Basis Set: 6-31G*
  Basis Set:
  @DF-RHF Final Energy:  -348.10022299521825
    Total Energy =                       -348.1002229952182461
  Basis Set: 6-31G*
  Basis Set:
  Basis Set: 6-31G*
  Basis Set:
  @DF-RHF Final Energy:  -348.10023575402005
    Total Energy =                       -348.1002357540199910
  Basis Set: 6-31G*
  Basis Set:
  Charge       = 0
  Multiplicity = 1
  Basis Set: 6-31G*
  Basis Set:

    Orbital Energies (a.u.)
    -----------------------

    Doubly Occupied:

       1A    -20.550182     2A    -11.326441     3A    -11.232026
       4A    -11.228521     5A    -11.217534     6A    -11.216736
       7A    -11.216198     8A    -11.207439     9A     -1.395671
      10A     -1.090548    11A     -1.042839    12A     -1.000855
      13A     -0.934769    14A     -0.854091    15A     -0.781333
      16A     -0.730897    17A     -0.657368    18A     -0.647817
      19A     -0.629660    20A     -0.614176    21A     -0.599857
      22A     -0.580020    23A     -0.560458    24A     -0.546975
      25A     -0.523814    26A     -0.510940    27A     -0.497330
      28A     -0.484213    29A     -0.464908    30A     -0.461597
      31A     -0.457248    32A     -0.399639

  @DF-RHF Final Energy:  -348.10023573252181

   => Energetics <=

    Nuclear Repulsion Energy =            372.4186214524581828
    One-Electron Energy =               -1209.7135189110917963
    Two-Electron Energy =                 489.1946617261121446
    DFT Exchange-Correlation Energy =       0.0000000000000000
    Empirical Dispersion Energy =           0.0000000000000000
    PCM Polarization Energy =               0.0000000000000000
    EFP Energy =                            0.0000000000000000
    Total Energy =                       -348.1002357325214689
    Molecular point group: c1
  Basis Set: 6-31G*
  Basis Set:

  -Total Gradient:
     Atom            X                  Y                   Z
    ------   -----------------  -----------------  -----------------
       1       -0.000290497397    -0.000135032266    -0.000418921648
       2        0.000415798952     0.000270482174     0.000526242924
       3       -0.000135175199    -0.000514108295     0.000222140431
       4       -0.000002213516     0.000001363528    -0.000003542425
       5        0.000008044453     0.000001853124     0.000018728846
       6        0.000007060593     0.000372332595    -0.000340309586
       7       -0.000001685000     0.000003448030    -0.000001816707
       8        0.000006799542     0.000006399981    -0.000006262123
       9        0.000005208241    -0.000002112117    -0.000001033862
      10       -0.000002742871     0.000006311980     0.000005756106
      11       -0.000009657487    -0.000002865542    -0.000002294331
      12       -0.000005626493     0.000002003815     0.000000920636
      13        0.000014780484     0.000001030131    -0.000005232408
      14       -0.000000469618    -0.000000814558    -0.000004567613
      15       -0.000001535102    -0.000008730759     0.000008436421
      16       -0.000006977107     0.000001927326     0.000002163249
      17       -0.000001689196     0.000001022860    -0.000003741218
      18        0.000001758610    -0.000000778524     0.000000585324
      19       -0.000001572566    -0.000002626263     0.000002348649
      20       -0.000000529268     0.000000048203    -0.000001303377
      21       -0.000000147553    -0.000003036831     0.000002914347
      22        0.000001067506     0.000001881399    -0.000001211633

  **** Optimization is complete! (in 11 steps) ****
    Final optimized geometry and variables:
    Molecular point group: c1

    Geometry (in Angstrom), charge = 0, multiplicity = 1:

    O           -2.018777643576     0.909398199025     1.024913336321
    C           -1.742540243390    -0.241175826474     1.175786684785
    C           -0.530219881573    -0.875242731330     0.517631912498
    C           -2.597054134961    -1.152400646625     2.031964885033
    C            0.440073006087     0.131320857182    -0.095327213096
    H           -0.904133283129    -1.553760878204    -0.249230495476
    H           -0.027926928659    -1.507376308853     1.247299538487
    C            1.629671922469    -0.551353793788    -0.774959079851
    H           -0.100923154610     0.750024001624    -0.800671711861
    H            0.797843173238     0.800632892982     0.682495442228
    C            2.677435683574     0.415955098828    -1.337498547744
    H            1.269488444150    -1.193664082184    -1.577619909779
    H            2.117755426219    -1.208510030778    -0.057493939237
    C            2.182510353819     1.282968289611    -2.496517100296
    H            3.533526644701    -0.163174956393    -1.674851027060
    H            3.040901533426     1.056235805483    -0.536472540678
    H            1.802532932931     0.668702578286    -3.308606627321
    H            2.989554782765     1.890952240986    -2.893546060756
    H            1.388766077058     1.955906485896    -2.190584454785
    H           -2.829062457348    -2.074744621024     1.508369786618
    H           -3.511868542863    -0.645947450655     2.306813942196
    H           -2.053587501673    -1.421172963472     2.933794031431

  Mulliken Charges: (a.u.)
   Center  Symbol    Alpha    Beta     Spin     Total
       1     O     4.26184  4.26184  0.00000 -0.52368
       2     C     2.73480  2.73480  0.00000  0.53040
       3     C     3.21077  3.21077  0.00000 -0.42155
       4     C     3.28705  3.28705  0.00000 -0.57410
       5     C     3.15092  3.15092  0.00000 -0.30184
       6     H     0.40748  0.40748  0.00000  0.18503
       7     H     0.41201  0.41201  0.00000  0.17598
       8     C     3.15431  3.15431  0.00000 -0.30863
       9     H     0.40644  0.40644  0.00000  0.18713
      10     H     0.41597  0.41597  0.00000  0.16806
      11     C     3.15223  3.15223  0.00000 -0.30447
      12     H     0.42489  0.42489  0.00000  0.15023
      13     H     0.42380  0.42380  0.00000  0.15239
      14     C     3.24222  3.24222  0.00000 -0.48444
      15     H     0.42108  0.42108  0.00000  0.15785
      16     H     0.42212  0.42212  0.00000  0.15575
      17     H     0.42275  0.42275  0.00000  0.15449
      18     H     0.41894  0.41894  0.00000  0.16212
      19     H     0.41674  0.41674  0.00000  0.16652
      20     H     0.41030  0.41030  0.00000  0.17940
      21     H     0.39668  0.39668  0.00000  0.20664
      22     H     0.40665  0.40665  0.00000  0.18670

   Total alpha = 32.00000, Total beta = 32.00000, Total charge =  0.00000
