                              Psi4 1.0.54 Driver

  ==> Input File <==

--------------------------------------------------------------------------
set {
	reference rhf
	basis cc-pvtz
}

set_num_threads( 4 )
memory 2 gb

molecule MOL {
0 1

H	 -0.939693	 0.000281	 1.681345
O	 -0.046262	 -0.000157	 1.387678
C	 -0.000837	 0.000006	 -0.025491
C	 -1.086921	 -0.924523	 -0.572132
C	 -0.191475	 1.424405	 -0.543071
C	 1.383081	 -0.523130	 -0.385061
H	 -1.053562	 -0.973100	 -1.654408
H	 -2.073046	 -0.570649	 -0.286824
H	 -0.961058	 -1.925186	 -0.178058
H	 -0.125275	 1.461817	 -1.624277
H	 -1.165299	 1.810604	 -0.257432
H	 0.565212	 2.078632	 -0.128489
H	 1.515034	 -0.560094	 -1.460007
H	 1.522336	 -1.519690	 0.014546
H	 2.147034	 0.118925	 0.034886

	symmetry c1
}
set optking {
	frozen_dihedral = ("
		4 3 2 1
	")
}

ee,wfn = optimize('scf', return_wfn=True)
oeprop( wfn, 'DIPOLE', 'QUADRUPOLE', 'MULLIKEN_CHARGES')
f=open( 'psi4out.xyz', 'w' )
f.write( "15  " )
f.write( str(ee) + "\n" )
f.write( MOL.save_string_xyz() )
f.close()
--------------------------------------------------------------------------

    Molecular point group: c1
  Charge       = 0
  Multiplicity = 1
  Basis Set: CC-PVTZ
  Basis Set:
  @DF-RHF Final Energy:  -232.24621468835966
    Total Energy =                       -232.2462146883598280
    Molecular point group: c1
  Basis Set: CC-PVTZ
  Basis Set:
  Basis Set: CC-PVTZ
  Basis Set:
  @DF-RHF Final Energy:  -232.24624661123642
    Total Energy =                       -232.2462466112361881
  Basis Set: CC-PVTZ
  Basis Set:
  Basis Set: CC-PVTZ
  Basis Set:
  @DF-RHF Final Energy:  -232.24626238793749
    Total Energy =                       -232.2462623879373496
  Basis Set: CC-PVTZ
  Basis Set:
  Basis Set: CC-PVTZ
  Basis Set:
  @DF-RHF Final Energy:  -232.24626340878839
    Total Energy =                       -232.2462634087885363
  Basis Set: CC-PVTZ
  Basis Set:
  Charge       = 0
  Multiplicity = 1
  Basis Set: CC-PVTZ
  Basis Set:

    Orbital Energies (a.u.)
    -----------------------

    Doubly Occupied:

       1A    -20.541705     2A    -11.280898     3A    -11.212837
       4A    -11.206037     5A    -11.203823     6A     -1.364410
       7A     -1.065353     8A     -0.944069     9A     -0.938645
      10A     -0.778543    11A     -0.672467    12A     -0.624520
      13A     -0.622674    14A     -0.576230    15A     -0.557379
      16A     -0.533410    17A     -0.517066    18A     -0.511410
      19A     -0.504130    20A     -0.459054    21A     -0.427889

  @DF-RHF Final Energy:  -232.24626388795812

   => Energetics <=

    Nuclear Repulsion Energy =            200.6517552323301459
    One-Electron Energy =                -712.7109416362402499
    Two-Electron Energy =                 279.8129225159519251
    DFT Exchange-Correlation Energy =       0.0000000000000000
    Empirical Dispersion Energy =           0.0000000000000000
    PCM Polarization Energy =               0.0000000000000000
    EFP Energy =                            0.0000000000000000
    Total Energy =                       -232.2462638879581505
    Molecular point group: c1
  Basis Set: CC-PVTZ
  Basis Set:

  -Total Gradient:
     Atom            X                  Y                   Z
    ------   -----------------  -----------------  -----------------
       1       -0.000020531011    -0.001613508428     0.000027636029
       2       -0.000234715008     0.002250911044    -0.000033638905
       3        0.000883733042    -0.001401767876     0.000056374880
       4       -0.000646699589     0.000768212627    -0.000015171532
       5        0.000001426127    -0.000009047697    -0.000020493661
       6        0.000009118355    -0.000005513190    -0.000013904474
       7        0.000003409368     0.000004800310    -0.000004459106
       8        0.000001153750    -0.000009313674     0.000002954628
       9        0.000008640074     0.000014359146    -0.000003048750
      10       -0.000006380288     0.000006060176     0.000010633148
      11        0.000003769170    -0.000001607920    -0.000002446338
      12        0.000000777761    -0.000005793609    -0.000003772875
      13        0.000003690038    -0.000006931664     0.000003954360
      14       -0.000000741676     0.000012416426    -0.000003770663
      15       -0.000006650113    -0.000003275673    -0.000000846743

  **** Optimization is complete! (in 5 steps) ****
    Final optimized geometry and variables:
    Molecular point group: c1

    Geometry (in Angstrom), charge = 0, multiplicity = 1:

    H           -0.937293182052     0.024165807363     1.684726536319
    O           -0.045325764778     0.016547693223     1.388786658480
    C            0.001544572711     0.000390593859    -0.025277585829
    C           -1.085644969242    -0.923992672416    -0.567892129228
    C           -0.195150785724     1.422850499737    -0.547639781204
    C            1.386843145059    -0.518193566596    -0.386138806513
    H           -1.050427608387    -0.976026775484    -1.649444807977
    H           -2.071654228424    -0.564711133471    -0.287756804898
    H           -0.963841099464    -1.925385519133    -0.172825836084
    H           -0.130738818257     1.458586578454    -1.629374302374
    H           -1.167647432316     1.805905148203    -0.256542764706
    H            0.560682820390     2.079210614214    -0.135248612830
    H            1.528224110856    -0.531096043969    -1.460532306316
    H            1.523613214889    -1.522738902438    -0.006131595123
    H            2.147355933050     0.115042927290     0.053190256236

  Mulliken Charges: (a.u.)
   Center  Symbol    Alpha    Beta     Spin     Total
       1     H     0.39477  0.39477  0.00000  0.21045
       2     O     4.21224  4.21224  0.00000 -0.42447
       3     C     2.87856  2.87856  0.00000  0.24289
       4     C     3.15458  3.15458  0.00000 -0.30916
       5     C     3.14637  3.14637  0.00000 -0.29274
       6     C     3.14207  3.14207  0.00000 -0.28414
       7     H     0.45341  0.45341  0.00000  0.09319
       8     H     0.45590  0.45590  0.00000  0.08819
       9     H     0.44562  0.44562  0.00000  0.10876
      10     H     0.45731  0.45731  0.00000  0.08537
      11     H     0.45515  0.45515  0.00000  0.08969
      12     H     0.44774  0.44774  0.00000  0.10451
      13     H     0.45891  0.45891  0.00000  0.08219
      14     H     0.45010  0.45010  0.00000  0.09980
      15     H     0.44727  0.44727  0.00000  0.10547

   Total alpha = 21.00000, Total beta = 21.00000, Total charge =  0.00000

*** Psi4 exiting successfully. Buy a developer a beer!
