  ==> Input File <==

--------------------------------------------------------------------------
set {
	reference rhf
	basis cc-pvtz
}

set_num_threads( 4 )
memory 2 gb

molecule MOL {
0 1

H	 -2.362939	 -1.309000	 -0.383250
C	 -1.359344	 -1.272457	 0.020748
C	 -0.684082	 0.000127	 -0.464918
H	 -0.825835	 -2.151141	 -0.318537
H	 -1.416276	 -1.292399	 1.099455
C	 -1.359089	 1.272668	 0.021259
N	 0.742439	 -0.000109	 0.007333
H	 -0.596914	 0.000345	 -1.538146
H	 -2.362696	 1.309620	 -0.382686
H	 -0.825392	 2.151374	 -0.317674
H	 -1.415983	 1.292181	 1.099973
O	 1.259048	 -1.052523	 0.178168
O	 1.261590	 1.052141	 0.179210

	symmetry c1
}
set optking {
	frozen_dihedral = ("
		12 7 3 8
	")
}

ee = optimize('scf')
oeprop('DIPOLE', 'QUADRUPOLE', 'MULLIKEN_CHARGES')
f=open( 'psi4out.xyz', 'w' )
f.write( "13  " )
f.write( str(ee) + "\n" )
f.write( MOL.save_string_xyz() )
f.close()
--------------------------------------------------------------------------

    Molecular point group: c1
  Charge       = 0
  Multiplicity = 1
  Basis Set: CC-PVTZ
  Basis Set:
  @DF-RHF Final Energy:  -321.86108136779461
    Total Energy =                       -321.8610813677944407
    Molecular point group: c1
  Basis Set: CC-PVTZ
  Basis Set:
  Basis Set: CC-PVTZ
  Basis Set:
  @DF-RHF Final Energy:  -321.85831109441966
    Total Energy =                       -321.8583110944194345
  Basis Set: CC-PVTZ
  Basis Set:
  Basis Set: CC-PVTZ
  Basis Set:
  @DF-RHF Final Energy:  -321.85964525681493
    Total Energy =                       -321.8596452568149857
  Basis Set: CC-PVTZ
  Basis Set:
  Basis Set: CC-PVTZ
  Basis Set:
  @DF-RHF Final Energy:  -321.86183725230546
    Total Energy =                       -321.8618372523053495
  Basis Set: CC-PVTZ
  Basis Set:
  Basis Set: CC-PVTZ
  Basis Set:
  @DF-RHF Final Energy:  -321.86207608320404
    Total Energy =                       -321.8620760832043288
  Basis Set: CC-PVTZ
  Basis Set:
  Basis Set: CC-PVTZ
  Basis Set:
  @DF-RHF Final Energy:  -321.86209506726772
    Total Energy =                       -321.8620950672678305
  Basis Set: CC-PVTZ
  Basis Set:
  Charge       = 0
  Multiplicity = 1
  Basis Set: CC-PVTZ
  Basis Set:

    Orbital Energies (a.u.)
    -----------------------

    Doubly Occupied:

       1A    -20.588604     2A    -20.588242     3A    -15.834039
       4A    -11.307137     5A    -11.238441     6A    -11.238142
       7A     -1.634500     8A     -1.418099     9A     -1.139573
      10A     -0.967391    11A     -0.958425    12A     -0.814954
      13A     -0.765382    14A     -0.730048    15A     -0.722704
      16A     -0.639301    17A     -0.596463    18A     -0.586083
      19A     -0.570403    20A     -0.521704    21A     -0.521456
      22A     -0.483119    23A     -0.472379    24A     -0.452370

  @DF-RHF Final Energy:  -321.86209594472541

   => Energetics <=

    Nuclear Repulsion Energy =            257.2044440720177363
    One-Electron Energy =                -948.5551629691530025
    Two-Electron Energy =                 369.4886229524100827
    DFT Exchange-Correlation Energy =       0.0000000000000000
    Empirical Dispersion Energy =           0.0000000000000000
    PCM Polarization Energy =               0.0000000000000000
    EFP Energy =                            0.0000000000000000
    Total Energy =                       -321.8620959447251835
    Molecular point group: c1
  Basis Set: CC-PVTZ
  Basis Set:

  -Total Gradient:
     Atom            X                  Y                   Z
    ------   -----------------  -----------------  -----------------
       1        0.000015049555     0.000001998773    -0.000005032012
       2        0.000055254755     0.000005863656     0.000000997407
       3        0.000063605826     0.000178747155    -0.000001214010
       4        0.000017864969    -0.000044809599     0.000005568667
       5        0.000006322897     0.000007116839    -0.000009263564
       6       -0.000068304750     0.000066408244    -0.000040209426
       7       -0.000078889220    -0.000031960664     0.000163265453
       8       -0.000004477850    -0.000121698175     0.000006165657
       9       -0.000009829691     0.000007794803     0.000010102190
      10       -0.000034735020    -0.000005691649     0.000010933634
      11        0.000009735408    -0.000017948763    -0.000007572423
      12       -0.000033050549    -0.000090024811    -0.000122932936
      13        0.000061453673     0.000044204194    -0.000010808637

  **** Optimization is complete! (in 7 steps) ****
    Final optimized geometry and variables:
    Molecular point group: c1

    Geometry (in Angstrom), charge = 0, multiplicity = 1:

    H           -2.398922187371    -1.253625157785    -0.375296759977
    C           -1.386717250296    -1.270517990167     0.008099260663
    C           -0.686029658102     0.000211137093    -0.439734642523
    H           -0.889999534870    -2.152884207492    -0.360871648669
    H           -1.433015146674    -1.326997659463     1.088308365173
    C           -1.386968231373     1.269366519884     0.013374492328
    N            0.753933910838     0.000250235543     0.024680240352
    H           -0.578924296327     0.002007302149    -1.517303479319
    H           -2.400146129941     1.253269647459    -0.367355519854
    H           -0.891422123297     2.152962118268    -0.353870571395
    H           -1.430897091649     1.321703332198     1.094017594770
    O            1.277839310129    -1.049032760520     0.191772032365
    O            1.289285908556     1.049743764592     0.150343191639

  Mulliken Charges: (a.u.)
   Center  Symbol    Alpha    Beta     Spin     Total
       1     H     0.45068  0.45068  0.00000  0.09864
       2     C     3.14315  3.14315  0.00000 -0.28630
       3     C     3.00665  3.00665  0.00000 -0.01330
       4     H     0.43191  0.43191  0.00000  0.13617
       5     H     0.44592  0.44592  0.00000  0.10817
       6     C     3.14330  3.14330  0.00000 -0.28659
       7     N     3.27535  3.27535  0.00000  0.44931
       8     H     0.43057  0.43057  0.00000  0.13887
       9     H     0.45063  0.45063  0.00000  0.09873
      10     H     0.43160  0.43160  0.00000  0.13679
      11     H     0.44608  0.44608  0.00000  0.10784
      12     O     4.17189  4.17189  0.00000 -0.34377
      13     O     4.17227  4.17227  0.00000 -0.34455

   Total alpha = 24.00000, Total beta = 24.00000, Total charge =  0.00000
