  ==> Input File <==

--------------------------------------------------------------------------
set {
	reference rhf
	basis 6-31G*
}

set_num_threads( 4 )
memory 2 gb

molecule MOL {
0 1

H	 -2.798360	 -0.862255	 -0.071053
N	 -1.863561	 -0.715187	 0.256814
C	 -1.344686	 0.554728	 -0.219830
H	 -1.300452	 -1.461917	 -0.101532
C	 0.081427	 0.741154	 0.254071
H	 -1.362155	 0.656231	 -1.305829
H	 -1.952773	 1.354456	 0.191809
O	 0.874168	 -0.245412	 -0.342030
H	 0.444037	 1.730782	 -0.023037
H	 0.121165	 0.653424	 1.337565
C	 2.195526	 0.133957	 -0.560344
H	 2.704657	 -0.701233	 -1.021800
H	 2.258100	 0.994033	 -1.224674
H	 2.697458	 0.381406	 0.372738

	symmetry c1
}
set optking {
	frozen_dihedral = ("
		11 8 5 3
	")
}

ee = optimize('scf')
oeprop('DIPOLE', 'QUADRUPOLE', 'MULLIKEN_CHARGES')
f=open( 'psi4out.xyz', 'w' )
f.write( "14  " )
f.write( str(ee) + "\n" )
f.write( MOL.save_string_xyz() )
f.close()
--------------------------------------------------------------------------

    Molecular point group: c1
  Charge       = 0
  Multiplicity = 1
  Basis Set: 6-31G*
  Basis Set:
  @DF-RHF Final Energy:  -248.12275272157567
    Total Energy =                       -248.1227527215755799
    Molecular point group: c1
  Basis Set: 6-31G*
  Basis Set:
  Basis Set: 6-31G*
  Basis Set:
  @DF-RHF Final Energy:  -248.12286396562138
    Total Energy =                       -248.1228639656214909
  Basis Set: 6-31G*
  Basis Set:
  Basis Set: 6-31G*
  Basis Set:
  @DF-RHF Final Energy:  -248.12288717053889
    Total Energy =                       -248.1228871705389452
  Basis Set: 6-31G*
  Basis Set:
  Charge       = 0
  Multiplicity = 1
  Basis Set: 6-31G*
  Basis Set:

    Orbital Energies (a.u.)
    -----------------------

    Doubly Occupied:

       1A    -20.555851     2A    -15.527842     3A    -11.267507
       4A    -11.265725     5A    -11.240593     6A     -1.379332
       7A     -1.173008     8A     -0.998814     9A     -0.909322
      10A     -0.814110    11A     -0.681131    12A     -0.675767
      13A     -0.643849    14A     -0.610673    15A     -0.605151
      16A     -0.540928    17A     -0.532584    18A     -0.497507
      19A     -0.472211    20A     -0.415124    21A     -0.378976

  @DF-RHF Final Energy:  -248.12288779578634

   => Energetics <=

    Nuclear Repulsion Energy =            194.3272996691765400
    One-Electron Energy =                -722.5283691403803914
    Two-Electron Energy =                 280.0781816754175679
    DFT Exchange-Correlation Energy =       0.0000000000000000
    Empirical Dispersion Energy =           0.0000000000000000
    PCM Polarization Energy =               0.0000000000000000
    EFP Energy =                            0.0000000000000000
    Total Energy =                       -248.1228877957862551
    Molecular point group: c1
  Basis Set: 6-31G*
  Basis Set:

  -Total Gradient:
     Atom            X                  Y                   Z
    ------   -----------------  -----------------  -----------------
       1        0.000008708791     0.000004737662    -0.000003305390
       2       -0.000004000620    -0.000036947975    -0.000011564339
       3        0.000392994424     0.001418750493    -0.001708265175
       4       -0.000004045153     0.000000615863    -0.000003853097
       5       -0.000803952668    -0.001469380454     0.001320797931
       6        0.000037042980    -0.000015123027     0.000034411147
       7       -0.000013151099     0.000005443196     0.000005312986
       8        0.001060941412    -0.000774543036     0.002770804843
       9        0.000002394927     0.000022550385    -0.000007396665
      10       -0.000027993324    -0.000007160267    -0.000037737348
      11       -0.000611016961     0.000854925422    -0.002374715038
      12        0.000013724679    -0.000003090508    -0.000000057260
      13       -0.000025297609     0.000000878901     0.000018560690
      14       -0.000026349778    -0.000001656654    -0.000002993286

  **** Optimization is complete! (in 4 steps) ****
    Final optimized geometry and variables:
    Molecular point group: c1

    Geometry (in Angstrom), charge = 0, multiplicity = 1:

    H           -2.791346806908    -0.955678695653     0.040479065731
    N           -1.861369834253    -0.801946214210     0.378678115789
    C           -1.350149127990     0.477463201602    -0.080532961004
    H           -1.287629383243    -1.541000355678     0.020816335756
    C            0.077447616552     0.668679792265     0.389588847253
    H           -1.368510052620     0.593310810402    -1.165261237190
    H           -1.963668204417     1.267060256854     0.343118660194
    O            0.879230304140    -0.319146422879    -0.199815352610
    H            0.421782333970     1.658363089722     0.094459434333
    H            0.133007835761     0.596095470221     1.472188619560
    C            2.203095914461     0.045942235981    -0.427553751649
    H            2.700686266524    -0.798736462646    -0.884350694242
    H            2.268805638512     0.899270289776    -1.099427878711
    H            2.717327094976     0.294967915371     0.498639745893

  Mulliken Charges: (a.u.)
   Center  Symbol    Alpha    Beta     Spin     Total
       1     H     0.33303  0.33303  0.00000  0.33395
       2     N     3.92527  3.92527  0.00000 -0.85054
       3     C     3.06616  3.06616  0.00000 -0.13232
       4     H     0.32303  0.32303  0.00000  0.35394
       5     C     2.99024  2.99024  0.00000  0.01953
       6     H     0.42949  0.42949  0.00000  0.14101
       7     H     0.42153  0.42153  0.00000  0.15695
       8     O     4.31123  4.31123  0.00000 -0.62247
       9     H     0.43183  0.43183  0.00000  0.13634
      10     H     0.41876  0.41876  0.00000  0.16247
      11     C     3.07846  3.07846  0.00000 -0.15692
      12     H     0.41282  0.41282  0.00000  0.17437
      13     H     0.42959  0.42959  0.00000  0.14083
      14     H     0.42856  0.42856  0.00000  0.14288

   Total alpha = 21.00000, Total beta = 21.00000, Total charge = -0.00000
