                              Psi4 1.0.54 Driver

  ==> Input File <==

--------------------------------------------------------------------------
set {
	reference rhf
	basis cc-pvtz
}

set_num_threads( 4 )
memory 2 gb

molecule MOL {
0 1

O	 -2.440701	 -0.934798	 -0.415053
C	 -1.922978	 0.063265	 -0.045005
C	 -2.632749	 1.372204	 0.158357
O	 -0.637375	 0.157174	 0.243149
H	 -2.187724	 2.129143	 -0.474664
H	 -3.677681	 1.257276	 -0.079438
H	 -2.516788	 1.693160	 1.185542
C	 0.162530	 -1.009518	 0.097799
C	 1.587210	 -0.664190	 0.477086
H	 0.096803	 -1.356267	 -0.924704
H	 -0.233803	 -1.785900	 0.736810
C	 2.256770	 0.342732	 -0.454344
H	 2.154716	 -1.590834	 0.479041
H	 1.598751	 -0.289614	 1.496104
C	 3.213622	 -0.315965	 -1.442356
H	 1.490827	 0.886249	 -1.001172
H	 2.793577	 1.076623	 0.135643
H	 3.671279	 0.419862	 -2.093121
H	 2.697967	 -1.036255	 -2.068992
H	 4.010171	 -0.840147	 -0.924900

	symmetry c1
}
set optking {
	frozen_dihedral = ("
		16 12 9 8
	")
}

ee,wfn = optimize('scf', return_wfn=True)
oeprop( wfn, 'DIPOLE', 'QUADRUPOLE', 'MULLIKEN_CHARGES')
f=open( 'psi4out.xyz', 'w' )
f.write( "20  " )
f.write( str(ee) + "\n" )
f.write( MOL.save_string_xyz() )
f.close()
--------------------------------------------------------------------------

    Molecular point group: c1
  Charge       = 0
  Multiplicity = 1
  Basis Set: CC-PVTZ
  Basis Set:
  @DF-RHF Final Energy:  -384.08295331263525
    Total Energy =                       -384.0829533126351407
    Molecular point group: c1
  Basis Set: CC-PVTZ
  Basis Set:
  Basis Set: CC-PVTZ
  Basis Set:
  @DF-RHF Final Energy:  -384.08316840257913
    Total Energy =                       -384.0831684025790764
  Basis Set: CC-PVTZ
  Basis Set:
  Basis Set: CC-PVTZ
  Basis Set:
  @DF-RHF Final Energy:  -384.08304324697821
    Total Energy =                       -384.0830432469787183
  Basis Set: CC-PVTZ
  Basis Set:
  Basis Set: CC-PVTZ
  Basis Set:
  @DF-RHF Final Energy:  -384.08323478623169
    Total Energy =                       -384.0832347862318557
  Basis Set: CC-PVTZ
  Basis Set:
  Basis Set: CC-PVTZ
  Basis Set:
  @DF-RHF Final Energy:  -384.08323628543161
    Total Energy =                       -384.0832362854316671
  Basis Set: CC-PVTZ
  Basis Set:
  Charge       = 0
  Multiplicity = 1
  Basis Set: CC-PVTZ
  Basis Set:

    Orbital Energies (a.u.)
    -----------------------

    Doubly Occupied:

       1A    -20.594554     2A    -20.532848     3A    -11.366859
       4A    -11.280470     5A    -11.231753     6A    -11.223188
       7A    -11.219020     8A    -11.211864     9A     -1.471306
      10A     -1.365471    11A     -1.085743    12A     -1.028517
      13A     -0.981074    14A     -0.884100    15A     -0.812227
      16A     -0.774172    17A     -0.693090    18A     -0.690641
      19A     -0.669289    20A     -0.625293    21A     -0.609700
      22A     -0.586011    23A     -0.574842    24A     -0.561477
      25A     -0.541673    26A     -0.529666    27A     -0.516444
      28A     -0.484202    29A     -0.475987    30A     -0.469446
      31A     -0.451255    32A     -0.442057

  @DF-RHF Final Energy:  -384.08323655727855

   => Energetics <=

    Nuclear Repulsion Energy =            387.4597077111944259
    One-Electron Energy =               -1291.1174201662679479
    Two-Electron Energy =                 519.5744758977948550
    DFT Exchange-Correlation Energy =       0.0000000000000000
    Empirical Dispersion Energy =           0.0000000000000000
    PCM Polarization Energy =               0.0000000000000000
    EFP Energy =                            0.0000000000000000
    Total Energy =                       -384.0832365572787239
    Molecular point group: c1
  Basis Set: CC-PVTZ
  Basis Set:

  -Total Gradient:
     Atom            X                  Y                   Z
    ------   -----------------  -----------------  -----------------
       1       -0.000030181734    -0.000031327438    -0.000008893564
       2        0.000028268153     0.000005305944     0.000026375798
       3        0.000021060766     0.000011685722    -0.000002219012
       4       -0.000005524848    -0.000017913241     0.000039268259
       5        0.000000937609     0.000009161475    -0.000001860956
       6       -0.000015814820    -0.000006284904    -0.000006783457
       7        0.000001400856     0.000002217166     0.000004618096
       8       -0.000725757473     0.001674472114     0.001043136638
       9        0.001071799151    -0.002789181137    -0.002089539162
      10       -0.000008250244    -0.000014225332     0.000026561442
      11       -0.000016713297    -0.000002119533     0.000019708521
      12       -0.000453314426     0.003222001676     0.003019863401
      13        0.000005670023     0.000044111006    -0.000003430195
      14        0.000000477289     0.000007211562    -0.000012355023
      15        0.000020338770    -0.000020906898    -0.000004631032
      16        0.000115767501    -0.002068631769    -0.002067424298
      17        0.000005238935    -0.000032289924     0.000006943874
      18       -0.000016216711    -0.000008507096     0.000015491511
      19        0.000012934629     0.000014393075     0.000012781579
      20       -0.000012120132     0.000000827531    -0.000017612420

  **** Optimization is complete! (in 6 steps) ****
    Final optimized geometry and variables:
    Molecular point group: c1

    Geometry (in Angstrom), charge = 0, multiplicity = 1:

    O           -2.371500132481    -0.801589251874    -0.271868251067
    C           -1.860790714444     0.186761707681     0.132316774590
    C           -2.575087425389     1.488969429989     0.359709680986
    O           -0.579345205231     0.274443748677     0.440660399351
    H           -2.121937429669     2.262614326222    -0.246743092892
    H           -3.616423511714     1.379304403640     0.104158267576
    H           -2.473894695321     1.782742113591     1.396480638096
    C            0.224226511441    -0.886866004675     0.277246143252
    C            1.645455479871    -0.534477557962     0.666432560160
    H            0.157966868440    -1.219008398923    -0.750252159163
    H           -0.168850122564    -1.674303215137     0.904761613454
    C            2.326115014450     0.470575990839    -0.279774306849
    H            2.216877856404    -1.456089243528     0.705594343388
    H            1.622956196153    -0.143628328660     1.677368940274
    C            3.280540503512    -0.194473117017    -1.269691067362
    H            1.568813911664     1.005904379678    -0.840374214952
    H            2.869019120559     1.209962446094     0.296454941081
    H            3.712726753561     0.533506932513    -1.946544345314
    H            2.767912461722    -0.938505663623    -1.871013645779
    H            4.094660644270    -0.692776968900    -0.754221774814

  Mulliken Charges: (a.u.)
   Center  Symbol    Alpha    Beta     Spin     Total
       1     O     4.19711  4.19711  0.00000 -0.39422
       2     C     2.80918  2.80918  0.00000  0.38165
       3     C     3.13799  3.13799  0.00000 -0.27597
       4     O     4.15315  4.15315  0.00000 -0.30630
       5     H     0.44619  0.44619  0.00000  0.10763
       6     H     0.43799  0.43799  0.00000  0.12403
       7     H     0.44565  0.44565  0.00000  0.10870
       8     C     2.99371  2.99371  0.00000  0.01258
       9     C     3.09047  3.09047  0.00000 -0.18094
      10     H     0.45085  0.45085  0.00000  0.09831
      11     H     0.44429  0.44429  0.00000  0.11141
      12     C     3.09160  3.09160  0.00000 -0.18320
      13     H     0.45137  0.45137  0.00000  0.09725
      14     H     0.44657  0.44657  0.00000  0.10686
      15     C     3.14790  3.14790  0.00000 -0.29579
      16     H     0.45019  0.45019  0.00000  0.09962
      17     H     0.44767  0.44767  0.00000  0.10465
      18     H     0.44819  0.44819  0.00000  0.10362
      19     H     0.45495  0.45495  0.00000  0.09011
      20     H     0.45499  0.45499  0.00000  0.09001

   Total alpha = 32.00000, Total beta = 32.00000, Total charge =  0.00000

*** Psi4 exiting successfully. Buy a developer a beer!
