  ==> Input File <==

--------------------------------------------------------------------------
set {
	reference rhf
	basis 6-31G*
}

set_num_threads( 4 )
memory 2 gb

molecule MOL {
0 1

H	 -2.714249	 -1.277223	 -0.338011
N	 -1.793370	 -1.149343	 0.034285
C	 -1.410736	 0.250969	 -0.008425
H	 -1.165005	 -1.684899	 -0.532677
C	 -0.002532	 0.418568	 0.522618
H	 -1.455972	 0.688112	 -1.006854
H	 -2.088229	 0.815237	 0.625125
O	 0.874168	 -0.245412	 -0.342030
H	 0.255665	 1.475870	 0.578164
H	 0.063455	 -0.002580	 1.523375
C	 2.202317	 -0.244239	 0.074611
H	 2.711377	 -1.041390	 -0.449894
H	 2.692099	 0.699270	 -0.159667
H	 2.283185	 -0.418429	 1.145558

	symmetry c1
}
set optking {
	frozen_dihedral = ("
		5 8 11 13
	")
}

ee = optimize('scf')
oeprop('DIPOLE', 'QUADRUPOLE', 'MULLIKEN_CHARGES')
f=open( 'psi4out.xyz', 'w' )
f.write( "14  " )
f.write( str(ee) + "\n" )
f.write( MOL.save_string_xyz() )
f.close()
--------------------------------------------------------------------------

    Molecular point group: c1
  Charge       = 0
  Multiplicity = 1
  Basis Set: 6-31G*
  Basis Set:
  @DF-RHF Final Energy:  -248.12432250484824
    Total Energy =                       -248.1243225048480099
    Molecular point group: c1
  Basis Set: 6-31G*
  Basis Set:
  Basis Set: 6-31G*
  Basis Set:
  @DF-RHF Final Energy:  -248.12436924361410
    Total Energy =                       -248.1243692436140122
  Basis Set: 6-31G*
  Basis Set:
  Basis Set: 6-31G*
  Basis Set:
  @DF-RHF Final Energy:  -248.12437606727983
    Total Energy =                       -248.1243760672798544
  Basis Set: 6-31G*
  Basis Set:
  Charge       = 0
  Multiplicity = 1
  Basis Set: 6-31G*
  Basis Set:

    Orbital Energies (a.u.)
    -----------------------

    Doubly Occupied:

       1A    -20.556766     2A    -15.528273     3A    -11.266064
       4A    -11.265781     5A    -11.240655     6A     -1.380327
       7A     -1.173434     8A     -0.999158     9A     -0.907270
      10A     -0.814996    11A     -0.683079    12A     -0.673691
      13A     -0.645038    14A     -0.609684    15A     -0.605572
      16A     -0.540119    17A     -0.531426    18A     -0.496681
      19A     -0.472295    20A     -0.416543    21A     -0.379937

  @DF-RHF Final Energy:  -248.12437624408020

   => Energetics <=

    Nuclear Repulsion Energy =            194.6089316610343474
    One-Electron Energy =                -723.0930390600544797
    Two-Electron Energy =                 280.3597311549399365
    DFT Exchange-Correlation Energy =       0.0000000000000000
    Empirical Dispersion Energy =           0.0000000000000000
    PCM Polarization Energy =               0.0000000000000000
    EFP Energy =                            0.0000000000000000
    Total Energy =                       -248.1243762440801675
    Molecular point group: c1
  Basis Set: 6-31G*
  Basis Set:

  -Total Gradient:
     Atom            X                  Y                   Z
    ------   -----------------  -----------------  -----------------
       1        0.000007571174    -0.000008931489    -0.000004930562
       2       -0.000003713440    -0.000003486323    -0.000016259589
       3       -0.000010084458    -0.000003480024     0.000064088060
       4       -0.000003776102    -0.000005843293    -0.000012599599
       5       -0.000318787402    -0.001659316566     0.000972131083
       6        0.000026494407    -0.000010558595     0.000020179132
       7       -0.000017484908     0.000007740700     0.000003454934
       8        0.000688388779     0.002147978296    -0.002063515353
       9        0.000003359992     0.000002988736     0.000005922863
      10       -0.000010783767    -0.000000667622    -0.000019282458
      11       -0.001037919746     0.000494433414     0.003328190892
      12        0.000013629093    -0.000010075143    -0.000007279231
      13        0.000684951549    -0.000943932493    -0.002260263147
      14       -0.000021845169    -0.000006849598    -0.000009837026

  **** Optimization is complete! (in 4 steps) ****
    Final optimized geometry and variables:
    Molecular point group: c1

    Geometry (in Angstrom), charge = 0, multiplicity = 1:

    H           -2.695086556483    -1.073232002292    -0.391012557176
    N           -1.776237728502    -0.941743861517    -0.015071185230
    C           -1.397981289089     0.459825478800    -0.057808877777
    H           -1.143778015847    -1.475803794041    -0.578817922457
    C            0.008202386013     0.632854116291     0.476990474919
    H           -1.442193799820     0.896005828304    -1.056641274893
    H           -2.078843312261     1.022538915004     0.573507416941
    O            0.887558749745    -0.036071820345    -0.381530055904
    H            0.261981067754     1.691541126618     0.529553899484
    H            0.072274398310     0.215472429744     1.478944818629
    C            2.218979656182    -0.039665712647     0.028837940714
    H            2.725391109204    -0.831271048170    -0.508046585151
    H            2.709225030074     0.901199773998    -0.212840196494
    H            2.311346483115    -0.227102088466     1.095423700193

  Mulliken Charges: (a.u.)
   Center  Symbol    Alpha    Beta     Spin     Total
       1     H     0.33286  0.33286  0.00000  0.33427
       2     N     3.92531  3.92531  0.00000 -0.85063
       3     C     3.06901  3.06901  0.00000 -0.13802
       4     H     0.32366  0.32366  0.00000  0.35268
       5     C     2.98998  2.98998  0.00000  0.02003
       6     H     0.42664  0.42664  0.00000  0.14672
       7     H     0.42049  0.42049  0.00000  0.15902
       8     O     4.31088  4.31088  0.00000 -0.62176
       9     H     0.43134  0.43134  0.00000  0.13733
      10     H     0.42207  0.42207  0.00000  0.15585
      11     C     3.07791  3.07791  0.00000 -0.15583
      12     H     0.41369  0.41369  0.00000  0.17261
      13     H     0.42784  0.42784  0.00000  0.14433
      14     H     0.42831  0.42831  0.00000  0.14338

   Total alpha = 21.00000, Total beta = 21.00000, Total charge =  0.00000
