  ==> Input File <==

--------------------------------------------------------------------------
set {
	reference rhf
	basis cc-pvtz
}

set_num_threads( 4 )
memory 2 gb

molecule MOL {
0 1

H	 4.505896	 0.128141	 -1.211581
C	 3.672331	 -0.468711	 -0.860801
C	 2.377480	 0.336177	 -0.873766
H	 3.598021	 -1.340257	 -1.502615
H	 3.912325	 -0.814966	 0.138962
C	 1.179013	 -0.464872	 -0.386974
H	 2.171268	 0.694654	 -1.876131
H	 2.495646	 1.217924	 -0.248357
N	 -0.036754	 0.318386	 -0.433375
H	 1.044708	 -1.332676	 -1.025760
H	 1.383929	 -0.849777	 0.616490
C	 -1.215959	 -0.382435	 0.027143
H	 0.083219	 1.158368	 0.093271
C	 -2.451944	 0.502410	 -0.038737
H	 -1.361934	 -1.249839	 -0.609629
H	 -1.097701	 -0.764364	 1.045584
C	 -3.752217	 -0.292550	 0.005776
H	 -2.407325	 1.093801	 -0.946480
H	 -2.431979	 1.206234	 0.790023
H	 -3.817783	 -0.982946	 -0.828547
H	 -4.612613	 0.364348	 -0.042306
H	 -3.830160	 -0.871666	 0.919868

	symmetry c1
}
set optking {
	frozen_dihedral = ("
		15 12 14 18
	")
}

ee = optimize('scf')
oeprop('DIPOLE', 'QUADRUPOLE', 'MULLIKEN_CHARGES')
f=open( 'psi4out.xyz', 'w' )
f.write( "22  " )
f.write( str(ee) + "\n" )
f.write( MOL.save_string_xyz() )
f.close()
--------------------------------------------------------------------------

    Molecular point group: c1
  Charge       = 0
  Multiplicity = 1
  Basis Set: CC-PVTZ
  Basis Set:
  @DF-RHF Final Energy:  -290.48895942102519
    Total Energy =                       -290.4889594210256405
    Molecular point group: c1
  Basis Set: CC-PVTZ
  Basis Set:
  Basis Set: CC-PVTZ
  Basis Set:
  @DF-RHF Final Energy:  -290.48909964115774
    Total Energy =                       -290.4890996411576793
  Basis Set: CC-PVTZ
  Basis Set:
  Basis Set: CC-PVTZ
  Basis Set:
  @DF-RHF Final Energy:  -290.48912402005817
    Total Energy =                       -290.4891240200578295
  Basis Set: CC-PVTZ
  Basis Set:
  Charge       = 0
  Multiplicity = 1
  Basis Set: CC-PVTZ
  Basis Set:

    Orbital Energies (a.u.)
    -----------------------

    Doubly Occupied:

       1A    -15.528648     2A    -11.236296     3A    -11.236092
       4A    -11.211850     5A    -11.211659     6A    -11.207815
       7A    -11.207587     8A     -1.207695     9A     -1.060241
      10A     -1.027118    11A     -0.928834    12A     -0.869084
      13A     -0.812516    14A     -0.794248    15A     -0.668092
      16A     -0.627220    17A     -0.617335    18A     -0.614814
      19A     -0.573761    20A     -0.563411    21A     -0.530717
      22A     -0.528555    23A     -0.517090    24A     -0.486405
      25A     -0.481539    26A     -0.474421    27A     -0.465053
      28A     -0.451964    29A     -0.361449

  @DF-RHF Final Energy:  -290.48912476791298

   => Energetics <=

    Nuclear Repulsion Energy =            313.6292390458443720
    One-Electron Energy =               -1013.2337086977913714
    Two-Electron Energy =                 409.1153448840342435
    DFT Exchange-Correlation Energy =       0.0000000000000000
    Empirical Dispersion Energy =           0.0000000000000000
    PCM Polarization Energy =               0.0000000000000000
    EFP Energy =                            0.0000000000000000
    Total Energy =                       -290.4891247679128128
    Molecular point group: c1
  Basis Set: CC-PVTZ
  Basis Set:

  -Total Gradient:
     Atom            X                  Y                   Z
    ------   -----------------  -----------------  -----------------
       1        0.000004752091    -0.000003547154    -0.000002387861
       2        0.000008068044     0.000002766153    -0.000019399735
       3        0.000018597860    -0.000007455889    -0.000000447175
       4        0.000003255324    -0.000003124699     0.000001308032
       5       -0.000004286247     0.000005113536    -0.000000800736
       6        0.000030092535     0.000004309644     0.000044916634
       7        0.000010674539     0.000005320426    -0.000002540687
       8       -0.000006967819    -0.000005638307     0.000003012631
       9       -0.000016034164     0.000011110426    -0.000045543146
      10       -0.000007955347     0.000019112356    -0.000002977801
      11       -0.000005210476    -0.000007834399     0.000000065954
      12        0.001847082049     0.002542112857    -0.002749541215
      13        0.000022994226     0.000006863248     0.000019328127
      14       -0.002309756900    -0.003250793654    -0.001355532378
      15       -0.001239985212    -0.001650683930     0.002516351901
      16        0.000007752696     0.000004226786     0.000001014805
      17       -0.000014549672    -0.000001814506    -0.000014567219
      18        0.001623144886     0.002305379741     0.001591739551
      19        0.000004733345     0.000005722112     0.000003352385
      20        0.000011075970     0.000006161851     0.000011465890
      21       -0.000003309714     0.000003632603     0.000000497493
      22        0.000015831987     0.000009060798     0.000000684548

  **** Optimization is complete! (in 4 steps) ****
    Final optimized geometry and variables:
    Molecular point group: c1

    Geometry (in Angstrom), charge = 0, multiplicity = 1:

    H            4.548357093198     0.206066767201    -0.813748972431
    C            3.712763810350    -0.390522299625    -0.467327942726
    C            2.414535018424     0.407928567024    -0.507944593213
    H            3.651382254874    -1.270111630384    -1.099466535899
    H            3.940353599377    -0.723454414712     0.539834353752
    C            1.212838858374    -0.393576120663    -0.029924309367
    H            2.221417306311     0.754468176643    -1.517060144810
    H            2.519283052145     1.296913258219     0.109560672435
    N           -0.006132312583     0.382655099748    -0.104013520822
    H            1.092013808616    -1.269141259847    -0.660791824528
    H            1.404108394867    -0.766113001610     0.980777609471
    C           -1.188573156348    -0.322131691343     0.339176527704
    H            0.099282841290     1.226014249998     0.420877387249
    C           -2.424334176656     0.569150670392     0.310700771184
    H           -1.346039272069    -1.183794458143    -0.302816509403
    H           -1.069528750975    -0.729146339458     1.348331649644
    C           -3.728700378704    -0.212156385263     0.405824527585
    H           -2.397731775446     1.171108334679    -0.590962647310
    H           -2.368901810504     1.273774789705     1.137736973579
    H           -3.849949197821    -0.874950548292    -0.444009037038
    H           -4.582610045969     0.454432521395     0.430539347143
    H           -3.758729668316    -0.818923366151     1.305043810652

  Mulliken Charges: (a.u.)
   Center  Symbol    Alpha    Beta     Spin     Total
       1     H     0.44769  0.44769  0.00000  0.10461
       2     C     3.15361  3.15361  0.00000 -0.30722
       3     C     3.08009  3.08009  0.00000 -0.16018
       4     H     0.45474  0.45474  0.00000  0.09053
       5     H     0.45614  0.45614  0.00000  0.08772
       6     C     3.02264  3.02264  0.00000 -0.04528
       7     H     0.44915  0.44915  0.00000  0.10171
       8     H     0.45971  0.45971  0.00000  0.08058
       9     N     3.63715  3.63715  0.00000 -0.27430
      10     H     0.45904  0.45904  0.00000  0.08192
      11     H     0.47433  0.47433  0.00000  0.05134
      12     C     3.02164  3.02164  0.00000 -0.04328
      13     H     0.44572  0.44572  0.00000  0.10855
      14     C     3.08435  3.08435  0.00000 -0.16870
      15     H     0.46111  0.46111  0.00000  0.07777
      16     H     0.47511  0.47511  0.00000  0.04979
      17     C     3.15217  3.15217  0.00000 -0.30434
      18     H     0.44955  0.44955  0.00000  0.10090
      19     H     0.45806  0.45806  0.00000  0.08388
      20     H     0.45397  0.45397  0.00000  0.09206
      21     H     0.44807  0.44807  0.00000  0.10386
      22     H     0.45596  0.45596  0.00000  0.08807

   Total alpha = 29.00000, Total beta = 29.00000, Total charge = -0.00000
