  ==> Input File <==

--------------------------------------------------------------------------
set {
	reference rhf
	basis 6-31G*
}

set_num_threads( 4 )
memory 2 gb

molecule MOL {
0 1

O	 -1.276010	 1.052711	 -0.768302
C	 -1.204840	 0.067374	 -0.106123
C	 -2.388195	 -0.672128	 0.458071
O	 -0.067104	 -0.527208	 0.221609
H	 -2.388023	 -1.694060	 0.097175
H	 -3.300579	 -0.174919	 0.164318
H	 -2.315377	 -0.706351	 1.539059
C	 -0.056350	 -1.947396	 0.423795
C	 1.108255	 -2.226829	 1.357175
C	 0.070624	 -2.656075	 -0.915719
H	 -0.988111	 -2.222364	 0.895727
H	 0.986756	 -1.691419	 2.291960
H	 1.166291	 -3.288195	 1.575043
H	 2.044617	 -1.917591	 0.905233
H	 0.102516	 -3.730826	 -0.767698
H	 -0.774668	 -2.427935	 -1.552436
H	 0.982803	 -2.353220	 -1.419916

	symmetry c1
}
set optking {
	frozen_dihedral = ("
		8 4 2 1
	")
}

ee = optimize('scf')
oeprop('DIPOLE', 'QUADRUPOLE', 'MULLIKEN_CHARGES')
f=open( 'psi4out.xyz', 'w' )
f.write( "17  " )
f.write( str(ee) + "\n" )
f.write( MOL.save_string_xyz() )
f.close()
--------------------------------------------------------------------------

    Molecular point group: c1
  Charge       = 0
  Multiplicity = 1
  Basis Set: 6-31G*
  Basis Set:
  @DF-RHF Final Energy:  -344.88615484387827
    Total Energy =                       -344.8861548438781597
    Molecular point group: c1
  Basis Set: 6-31G*
  Basis Set:
  Basis Set: 6-31G*
  Basis Set:
  @DF-RHF Final Energy:  -344.89413217621910
    Total Energy =                       -344.8941321762191592
  Basis Set: 6-31G*
  Basis Set:
  Basis Set: 6-31G*
  Basis Set:
  @DF-RHF Final Energy:  -344.89679026896511
    Total Energy =                       -344.8967902689656739
  Basis Set: 6-31G*
  Basis Set:
  Basis Set: 6-31G*
  Basis Set:
  @DF-RHF Final Energy:  -344.89799338059208
    Total Energy =                       -344.8979933805921405
  Basis Set: 6-31G*
  Basis Set:
  Basis Set: 6-31G*
  Basis Set:
  @DF-RHF Final Energy:  -344.89842083883093
    Total Energy =                       -344.8984208388307593
  Basis Set: 6-31G*
  Basis Set:
  Basis Set: 6-31G*
  Basis Set:
  @DF-RHF Final Energy:  -344.89846867369624
    Total Energy =                       -344.8984686736964704
  Basis Set: 6-31G*
  Basis Set:
  Basis Set: 6-31G*
  Basis Set:
  @DF-RHF Final Energy:  -344.89847156654247
    Total Energy =                       -344.8984715665422982
  Basis Set: 6-31G*
  Basis Set:
  Charge       = 0
  Multiplicity = 1
  Basis Set: 6-31G*
  Basis Set:

    Orbital Energies (a.u.)
    -----------------------

    Doubly Occupied:

       1A    -20.593476     2A    -20.540467     3A    -11.375148
       4A    -11.304703     5A    -11.240948     6A    -11.228768
       7A    -11.225262     8A     -1.459094     9A     -1.363695
      10A     -1.077543    11A     -1.016057    12A     -0.957560
      13A     -0.859696    14A     -0.771742    15A     -0.697675
      16A     -0.668782    17A     -0.661150    18A     -0.624789
      19A     -0.594589    20A     -0.584466    21A     -0.562415
      22A     -0.556082    23A     -0.545067    24A     -0.530791
      25A     -0.508233    26A     -0.488035    27A     -0.442722
      28A     -0.431438

  @DF-RHF Final Energy:  -344.89847179807725

   => Energetics <=

    Nuclear Repulsion Energy =            322.6932403832216778
    One-Electron Energy =               -1109.3626358025298941
    Two-Electron Energy =                 441.7709236212310770
    DFT Exchange-Correlation Energy =       0.0000000000000000
    Empirical Dispersion Energy =           0.0000000000000000
    PCM Polarization Energy =               0.0000000000000000
    EFP Energy =                            0.0000000000000000
    Total Energy =                       -344.8984717980771393
    Molecular point group: c1
  Basis Set: 6-31G*
  Basis Set:

  -Total Gradient:
     Atom            X                  Y                   Z
    ------   -----------------  -----------------  -----------------
       1       -0.000004863453    -0.001192574256    -0.001877586283
       2        0.000278967338     0.001599296814     0.001623212194
       3        0.000018694134    -0.000020536520    -0.000016726925
       4       -0.000754820219    -0.000219955595     0.002122453833
       5       -0.000008193293    -0.000006290378     0.000008696735
       6        0.000004041402     0.000002826290     0.000000962835
       7        0.000000605327     0.000000715800    -0.000000498756
       8        0.000470628588    -0.000173001928    -0.001855457803
       9        0.000008563063     0.000010552444    -0.000006776441
      10        0.000003548988     0.000000468886     0.000016655040
      11       -0.000013412687    -0.000000391493     0.000006652424
      12       -0.000004403458     0.000001087538    -0.000002120704
      13       -0.000007505326     0.000003683311    -0.000006327099
      14        0.000007795124     0.000000488194     0.000004387095
      15        0.000002955809    -0.000004711582    -0.000010276540
      16       -0.000003154235     0.000003124071     0.000000233955
      17        0.000000552894    -0.000004781598    -0.000007483558

  **** Optimization is complete! (in 8 steps) ****
    Final optimized geometry and variables:
    Molecular point group: c1

    Geometry (in Angstrom), charge = 0, multiplicity = 1:

    O           -0.641297749946     2.027702449184    -0.827622241924
    C           -0.698807352642     1.029203417699    -0.194493434600
    C           -2.012534360386     0.434142430936     0.262534210743
    O            0.427722269081     0.414579528174     0.177767116352
    H           -2.218650727627    -0.503349080709    -0.241681716259
    H           -2.796958721328     1.136673550746     0.025494350079
    H           -2.001332013206     0.245305495486     1.330009135481
    C            0.531726013106    -0.993519047197     0.365449990786
    C            1.767413084354    -1.209650272729     1.221864581658
    C            0.627054211251    -1.688093524930    -0.986032560353
    H           -0.336740589921    -1.353314868517     0.904126045507
    H            1.667643146103    -0.691328402056     2.168250945789
    H            1.910045339728    -2.266959468671     1.419163582135
    H            2.647119034763    -0.828890704212     0.715758205365
    H            0.730756796569    -2.760153539259    -0.853538853819
    H           -0.257382876518    -1.509482416771    -1.589070438882
    H            1.486897338460    -1.320496134844    -1.534350597932

  Mulliken Charges: (a.u.)
   Center  Symbol    Alpha    Beta     Spin     Total
       1     O     4.26240  4.26240  0.00000 -0.52480
       2     C     2.61482  2.61482  0.00000  0.77036
       3     C     3.30813  3.30813  0.00000 -0.61627
       4     O     4.31057  4.31057  0.00000 -0.62115
       5     H     0.40360  0.40360  0.00000  0.19280
       6     H     0.38844  0.38844  0.00000  0.22312
       7     H     0.40264  0.40264  0.00000  0.19472
       8     C     2.92984  2.92984  0.00000  0.14032
       9     C     3.24012  3.24012  0.00000 -0.48023
      10     C     3.24636  3.24636  0.00000 -0.49272
      11     H     0.41807  0.41807  0.00000  0.16386
      12     H     0.40983  0.40983  0.00000  0.18034
      13     H     0.41869  0.41869  0.00000  0.16262
      14     H     0.40805  0.40805  0.00000  0.18391
      15     H     0.41658  0.41658  0.00000  0.16684
      16     H     0.41630  0.41630  0.00000  0.16740
      17     H     0.40557  0.40557  0.00000  0.18886

   Total alpha = 28.00000, Total beta = 28.00000, Total charge =  0.00000
