                              Psi4 1.0.54 Driver

  ==> Input File <==

--------------------------------------------------------------------------
set {
	reference rhf
	basis cc-pvtz
}

set_num_threads( 4 )
memory 2 gb

molecule MOL {
0 1

H	 2.867672	 -0.456275	 0.875795
C	 2.403497	 -0.020426	 0.000000
N	 0.989899	 -0.304564	 0.000000
H	 2.867672	 -0.456275	 -0.875795
H	 2.620366	 1.051270	 0.000000
C	 0.493171	 -0.641469	 -1.318076
C	 0.209742	 0.768603	 0.580719
H	 0.636155	 0.184083	 -2.022180
H	 1.041639	 -1.495490	 -1.698285
C	 -0.982759	 -0.983111	 -1.246287
H	 0.550249	 0.949198	 1.593718
H	 0.331408	 1.700214	 0.019433
C	 -1.258906	 0.390731	 0.603720
H	 -1.382983	 -1.146204	 -2.237170
H	 -1.117415	 -1.893506	 -0.665644
O	 -1.714977	 0.059969	 -0.674459
H	 -1.858740	 1.220702	 0.950093
H	 -1.407852	 -0.448573	 1.280096

	symmetry c1
}
set optking {
	frozen_dihedral = ("
		6 3 2 5
	")
}

ee,wfn = optimize('scf', return_wfn=True)
oeprop( wfn, 'DIPOLE', 'QUADRUPOLE', 'MULLIKEN_CHARGES')
f=open( 'psi4out.xyz', 'w' )
f.write( "18  " )
f.write( str(ee) + "\n" )
f.write( MOL.save_string_xyz() )
f.close()
--------------------------------------------------------------------------

    Molecular point group: c1
  Charge       = 0
  Multiplicity = 1
  Basis Set: CC-PVTZ
  Basis Set:
  @DF-RHF Final Energy:  -325.14135877354897
    Total Energy =                       -325.1413587735493707
    Molecular point group: c1
  Basis Set: CC-PVTZ
  Basis Set:
  Basis Set: CC-PVTZ
  Basis Set:
  @DF-RHF Final Energy:  -325.14185439832698
    Total Energy =                       -325.1418543983270411
  Basis Set: CC-PVTZ
  Basis Set:
  Basis Set: CC-PVTZ
  Basis Set:
  @DF-RHF Final Energy:  -325.14195078747747
    Total Energy =                       -325.1419507874770716
  Basis Set: CC-PVTZ
  Basis Set:
  Charge       = 0
  Multiplicity = 1
  Basis Set: CC-PVTZ
  Basis Set:

    Orbital Energies (a.u.)
    -----------------------

    Doubly Occupied:

       1A    -20.547213     2A    -15.541001     3A    -11.263916
       4A    -11.263751     5A    -11.242590     6A    -11.242496
       7A    -11.239063     8A     -1.386032     9A     -1.230535
      10A     -1.039223    11A     -0.981494    12A     -0.884233
      13A     -0.870053    14A     -0.773158    15A     -0.684617
      16A     -0.646381    17A     -0.644896    18A     -0.634031
      19A     -0.627961    20A     -0.572787    21A     -0.558680
      22A     -0.543745    23A     -0.528141    24A     -0.500380
      25A     -0.486990    26A     -0.453743    27A     -0.410253
      28A     -0.347951

  @DF-RHF Final Energy:  -325.14195653087654

   => Energetics <=

    Nuclear Repulsion Energy =            341.4984787641658386
    One-Electron Energy =               -1118.9902397849543831
    Two-Electron Energy =                 452.3498044899121169
    DFT Exchange-Correlation Energy =       0.0000000000000000
    Empirical Dispersion Energy =           0.0000000000000000
    PCM Polarization Energy =               0.0000000000000000
    EFP Energy =                            0.0000000000000000
    Total Energy =                       -325.1419565308764277
    Molecular point group: c1
  Basis Set: CC-PVTZ
  Basis Set:

  -Total Gradient:
     Atom            X                  Y                   Z
    ------   -----------------  -----------------  -----------------
       1       -0.000059516877    -0.000013445099     0.000011313854
       2        0.000695224258    -0.001347478701    -0.005571272386
       3       -0.000824583517     0.004621693266     0.000384792914
       4       -0.000048621489    -0.000035081366    -0.000002805592
       5       -0.000179243490     0.000051231431     0.004538543118
       6        0.000545450480    -0.003310020726     0.000596339320
       7       -0.000064565838     0.000088855272    -0.000034544175
       8       -0.000008300254    -0.000041105965     0.000068874655
       9        0.000000493255     0.000018081221     0.000056907328
      10       -0.000017777633     0.000023122735    -0.000055167892
      11        0.000009839839    -0.000046567002    -0.000036448984
      12        0.000007881402    -0.000043640356     0.000016235785
      13       -0.000018548583     0.000036339938     0.000028325723
      14       -0.000065535246    -0.000025262358    -0.000035619421
      15        0.000023246901     0.000044373812    -0.000000534445
      16        0.000063973233    -0.000046028383     0.000047182912
      17       -0.000068182124     0.000012052662     0.000009577022
      18        0.000008765683     0.000012879618    -0.000021699738

  **** Optimization is complete! (in 4 steps) ****
    Final optimized geometry and variables:
    Molecular point group: c1

    Geometry (in Angstrom), charge = 0, multiplicity = 1:

    H            2.826201794290    -0.306026596890     1.214399361954
    C            2.397847997737     0.089955905003     0.299167621333
    N            0.974291133325    -0.166961003418     0.258701012314
    H            2.897124675997    -0.387121118671    -0.532894998710
    H            2.629479814607     1.154915802597     0.281238762204
    C            0.464483863498    -0.529582751065    -1.045531133328
    C            0.185341132418     0.872036361495     0.879171998887
    H            0.575683414017     0.283797969518    -1.769798408154
    H            1.018035716002    -1.381859429467    -1.420564969252
    C           -1.003540798259    -0.897389675988    -0.938779905381
    H            0.541756857144     1.035663824372     1.890186818175
    H            0.277701774917     1.820171635435     0.340137532890
    C           -1.274697582624     0.463363754550     0.922030221644
    H           -1.424023291911    -1.071483968542    -1.919543726803
    H           -1.106742307643    -1.808190285139    -0.352160105857
    O           -1.742273761505     0.132687143461    -0.351903380323
    H           -1.886908689918     1.277688448059     1.284053473753
    H           -1.395829212792    -0.384336604669     1.593533509248

  Mulliken Charges: (a.u.)
   Center  Symbol    Alpha    Beta     Spin     Total
       1     H     0.44997  0.44997  0.00000  0.10005
       2     C     3.09255  3.09255  0.00000 -0.18511
       3     N     3.61845  3.61845  0.00000 -0.23690
       4     H     0.45472  0.45472  0.00000  0.09057
       5     H     0.46561  0.46561  0.00000  0.06877
       6     C     3.03931  3.03931  0.00000 -0.07862
       7     C     3.04086  3.04086  0.00000 -0.08171
       8     H     0.46996  0.46996  0.00000  0.06007
       9     H     0.45426  0.45426  0.00000  0.09147
      10     C     2.98407  2.98407  0.00000  0.03187
      11     H     0.45422  0.45422  0.00000  0.09156
      12     H     0.46879  0.46879  0.00000  0.06242
      13     C     2.98394  2.98394  0.00000  0.03212
      14     H     0.45003  0.45003  0.00000  0.09995
      15     H     0.46842  0.46842  0.00000  0.06317
      16     O     4.18647  4.18647  0.00000 -0.37294
      17     H     0.45011  0.45011  0.00000  0.09978
      18     H     0.46825  0.46825  0.00000  0.06349

   Total alpha = 28.00000, Total beta = 28.00000, Total charge =  0.00000

*** Psi4 exiting successfully. Buy a developer a beer!
