  ==> Input File <==

--------------------------------------------------------------------------
set {
	reference rhf
	basis 6-31G*
}

set_num_threads( 4 )
memory 2 gb

molecule MOL {
0 1

H	 2.762751	 1.921259	 -1.173584
N	 2.000309	 1.273642	 -1.226681
C	 1.865559	 0.531981	 0.018834
H	 2.201831	 0.651008	 -1.985988
C	 0.645745	 -0.382037	 -0.029944
H	 1.740934	 1.253718	 0.820347
H	 2.751575	 -0.058782	 0.264545
C	 -0.679275	 0.379305	 0.025956
H	 0.698998	 -0.976915	 -0.937203
H	 0.693479	 -1.083846	 0.802235
C	 -1.903357	 -0.536963	 -0.023547
H	 -0.726309	 1.082987	 -0.803784
H	 -0.717680	 0.977832	 0.934877
C	 -3.225172	 0.228290	 0.028445
H	 -1.867824	 -1.134999	 -0.931459
H	 -1.860449	 -1.239604	 0.805977
H	 -3.313397	 0.915643	 -0.808262
H	 -4.073500	 -0.448134	 -0.008893
H	 -3.306061	 0.809945	 0.942516

	symmetry c1
}
set optking {
	frozen_dihedral = ("
		6 3 5 9
	")
}

ee = optimize('scf')
oeprop('DIPOLE', 'QUADRUPOLE', 'MULLIKEN_CHARGES')
f=open( 'psi4out.xyz', 'w' )
f.write( "19  " )
f.write( str(ee) + "\n" )
f.write( MOL.save_string_xyz() )
f.close()
--------------------------------------------------------------------------

    Molecular point group: c1
  Charge       = 0
  Multiplicity = 1
  Basis Set: 6-31G*
  Basis Set:
  @DF-RHF Final Energy:  -251.35108044696540
    Total Energy =                       -251.3510804469654545
    Molecular point group: c1
  Basis Set: 6-31G*
  Basis Set:
  Basis Set: 6-31G*
  Basis Set:
  @DF-RHF Final Energy:  -251.35122041447005
    Total Energy =                       -251.3512204144699922
  Basis Set: 6-31G*
  Basis Set:
  Basis Set: 6-31G*
  Basis Set:
  @DF-RHF Final Energy:  -251.35125902933396
    Total Energy =                       -251.3512590293339599
  Basis Set: 6-31G*
  Basis Set:
  Charge       = 0
  Multiplicity = 1
  Basis Set: 6-31G*
  Basis Set:

    Orbital Energies (a.u.)
    -----------------------

    Doubly Occupied:

       1A    -15.533434     2A    -11.240598     3A    -11.210103
       4A    -11.208789     5A    -11.203037     6A    -11.202622
       7A     -1.177359     8A     -1.066339     9A     -0.994818
      10A     -0.900346    11A     -0.811097    12A     -0.781534
      13A     -0.665065    14A     -0.636535    15A     -0.616813
      16A     -0.584895    17A     -0.560053    18A     -0.545377
      19A     -0.531293    20A     -0.489986    21A     -0.481834
      22A     -0.459334    23A     -0.456575    24A     -0.448623
      25A     -0.379319

  @DF-RHF Final Energy:  -251.35125876919614

   => Energetics <=

    Nuclear Repulsion Energy =            248.9129742692041987
    One-Electron Energy =                -832.1569084782720438
    Two-Electron Energy =                 331.8926754398715957
    DFT Exchange-Correlation Energy =       0.0000000000000000
    Empirical Dispersion Energy =           0.0000000000000000
    PCM Polarization Energy =               0.0000000000000000
    EFP Energy =                            0.0000000000000000
    Total Energy =                       -251.3512587691963063
    Molecular point group: c1
  Basis Set: 6-31G*
  Basis Set:

  -Total Gradient:
     Atom            X                  Y                   Z
    ------   -----------------  -----------------  -----------------
       1       -0.000013770733    -0.000006382419     0.000010503450
       2       -0.000015108642     0.000056414330    -0.000058071184
       3        0.000779098535    -0.001002079405     0.001026772407
       4        0.000000343872    -0.000006747978     0.000001904851
       5        0.000858441842    -0.001058535073     0.000765002929
       6       -0.000762568681     0.000938474079    -0.000969043537
       7       -0.000072452153    -0.000036419909    -0.000002455889
       8       -0.000126081986     0.000123415701     0.000005280693
       9       -0.000751715678     0.000960975233    -0.000867605191
      10        0.000024850839     0.000085709833    -0.000043164895
      11        0.000079773405     0.000007054607     0.000002653749
      12       -0.000002455253    -0.000093681768     0.000110548057
      13       -0.000009320600     0.000020395555     0.000075499334
      14        0.000002023950     0.000025202401    -0.000062796294
      15        0.000020731521    -0.000054079551    -0.000000306733
      16       -0.000001929853     0.000036372573     0.000024041814
      17       -0.000012183876     0.000018235207     0.000003360663
      18       -0.000005864301     0.000001263639    -0.000016874466
      19        0.000008187794    -0.000015587056    -0.000005249759

  **** Optimization is complete! (in 4 steps) ****
    Final optimized geometry and variables:
    Molecular point group: c1

    Geometry (in Angstrom), charge = 0, multiplicity = 1:

    H            2.915014508773     1.672345373679    -0.981134582303
    N            2.176311693795     0.997448549415    -1.027172756903
    C            2.064906412045     0.264995124967     0.228104961248
    H            2.399625741537     0.372675280478    -1.778650587484
    C            0.837632283649    -0.645237152364     0.219351961340
    H            1.961954182210     0.999384945060     1.021242318201
    H            2.953353180158    -0.327763986043     0.453740961560
    C           -0.488285689578     0.116305832139     0.268139821116
    H            0.862962282782    -1.258363382625    -0.681209204912
    H            0.899036572648    -1.329662714349     1.062764419953
    C           -1.710010750047    -0.800369905167     0.186068466327
    H           -0.513722629039     0.835261069885    -0.544040989957
    H           -0.534573285418     0.691530885285     1.192164791441
    C           -3.032613564256    -0.035832482452     0.233792930013
    H           -1.663639432825    -1.380772507058    -0.733305438086
    H           -1.680435386715    -1.520171925873     1.001936948154
    H           -3.105990259386     0.670157883623    -0.588538027792
    H           -3.881204456429    -0.710145069743     0.168217247017
    H           -3.127299706333     0.525786262111     1.159004663699

  Mulliken Charges: (a.u.)
   Center  Symbol    Alpha    Beta     Spin     Total
       1     H     0.33190  0.33190  0.00000  0.33620
       2     N     3.92073  3.92073  0.00000 -0.84146
       3     C     3.06628  3.06628  0.00000 -0.13255
       4     H     0.33521  0.33521  0.00000  0.32958
       5     C     3.15288  3.15288  0.00000 -0.30575
       6     H     0.42061  0.42061  0.00000  0.15877
       7     H     0.43124  0.43124  0.00000  0.13752
       8     C     3.15099  3.15099  0.00000 -0.30199
       9     H     0.42689  0.42689  0.00000  0.14622
      10     H     0.42363  0.42363  0.00000  0.15275
      11     C     3.15151  3.15151  0.00000 -0.30301
      12     H     0.40727  0.40727  0.00000  0.18546
      13     H     0.42752  0.42752  0.00000  0.14497
      14     C     3.23870  3.23870  0.00000 -0.47740
      15     H     0.42439  0.42439  0.00000  0.15122
      16     H     0.42555  0.42555  0.00000  0.14890
      17     H     0.42116  0.42116  0.00000  0.15768
      18     H     0.42097  0.42097  0.00000  0.15807
      19     H     0.42258  0.42258  0.00000  0.15483

   Total alpha = 25.00000, Total beta = 25.00000, Total charge =  0.00000
