  ==> Input File <==

--------------------------------------------------------------------------
set {
	reference rhf
	basis 6-31G*
}

set_num_threads( 1 )
memory 2 gb

molecule MOL {
0 1

O	 3.507595	 0.297354	 -0.982102
C	 2.843464	 0.164689	 -0.000222
C	 1.546494	 -0.624492	 -0.000609
C	 3.256232	 0.781003	 1.320738
C	 0.291004	 0.242674	 0.000989
H	 1.557904	 -1.283758	 -0.867573
H	 1.558622	 -1.285963	 0.864672
C	 -0.994322	 -0.586602	 0.000262
H	 0.309117	 0.896430	 -0.865270
H	 0.309661	 0.894078	 0.869017
C	 -2.259874	 0.272531	 0.000494
H	 -1.004862	 -1.240012	 -0.870939
H	 -1.005220	 -1.241071	 0.870675
C	 -3.549786	 -0.549746	 -0.000374
H	 -2.250389	 0.926680	 -0.869574
H	 -2.250838	 0.925513	 0.871430
C	 -4.809590	 0.315458	 -0.000369
H	 -3.560515	 -1.202009	 -0.871156
H	 -3.561123	 -1.202955	 0.869711
H	 -4.844746	 0.956611	 -0.876632
H	 -5.706986	 -0.295590	 -0.001609
H	 -4.845960	 0.954827	 0.877144
H	 3.373560	 0.011223	 2.077898
H	 4.189502	 1.313063	 1.199270
H	 2.491522	 1.466555	 1.674111

	symmetry c1
}
set optking {
	frozen_dihedral = ("
		9 5 8 12,
		15 11 8 12,
		15 11 14 18,
		9 5 3 6
	")
}

ee = energy('scf')
oeprop('DIPOLE', 'QUADRUPOLE', 'MULLIKEN_CHARGES')
f=open( 'psi4out.xyz', 'w' )
f.write( "25  " )
f.write( str(ee) + "\n" )
f.write( MOL.save_string_xyz() )
f.close()
--------------------------------------------------------------------------

    Molecular point group: c1

    Geometry (in Angstrom), charge = 0, multiplicity = 1:

       Center              X                  Y                   Z               Mass
    ------------   -----------------  -----------------  -----------------  -----------------
           O          3.533920794485     0.254108652092    -1.022159632325    15.994914619560
           C          2.869789794485     0.121443652092    -0.040279632325    12.000000000000
           C          1.572819794485    -0.667737347908    -0.040666632325    12.000000000000
           C          3.282557794485     0.737757652092     1.280680367675    12.000000000000
           C          0.317329794485     0.199428652092    -0.039068632325    12.000000000000
           H          1.584229794485    -1.327003347908    -0.907630632325     1.007825032070
           H          1.584947794485    -1.329208347908     0.824614367675     1.007825032070
           C         -0.967996205515    -0.629847347908    -0.039795632325    12.000000000000
           H          0.335442794485     0.853184652092    -0.905327632325     1.007825032070
           H          0.335986794485     0.850832652092     0.828959367675     1.007825032070
           C         -2.233548205515     0.229285652092    -0.039563632325    12.000000000000
           H         -0.978536205515    -1.283257347908    -0.910996632325     1.007825032070
           H         -0.978894205515    -1.284316347908     0.830617367675     1.007825032070
           C         -3.523460205515    -0.592991347908    -0.040431632325    12.000000000000
           H         -2.224063205515     0.883434652092    -0.909631632325     1.007825032070
           H         -2.224512205515     0.882267652092     0.831372367675     1.007825032070
           C         -4.783264205515     0.272212652092    -0.040426632325    12.000000000000
           H         -3.534189205515    -1.245254347908    -0.911213632325     1.007825032070
           H         -3.534797205515    -1.246200347908     0.829653367675     1.007825032070
           H         -4.818420205515     0.913365652092    -0.916689632325     1.007825032070
           H         -5.680660205515    -0.338835347908    -0.041666632325     1.007825032070
           H         -4.819634205515     0.911581652092     0.837086367675     1.007825032070
           H          3.399885794485    -0.032022347908     2.037840367675     1.007825032070
           H          4.215827794485     1.269817652092     1.159212367675     1.007825032070
           H          2.517847794485     1.423309652092     1.634053367675     1.007825032070

  Charge       = 0
  Multiplicity = 1
  Basis Set: 6-31G*
  Basis Set:

    Orbital Energies (a.u.)
    -----------------------

    Doubly Occupied:

       1A    -20.548730     2A    -11.324357     3A    -11.232164
       4A    -11.229151     5A    -11.226902     6A    -11.224389
       7A    -11.220072     8A    -11.219477     9A    -11.212091
      10A     -1.393497    11A     -1.101699    12A     -1.061509
      13A     -1.012398    14A     -0.970682    15A     -0.896058
      16A     -0.821634    17A     -0.797264    18A     -0.732602
      19A     -0.667703    20A     -0.647488    21A     -0.638208
      22A     -0.611689    23A     -0.606550    24A     -0.588128
      25A     -0.566936    26A     -0.557742    27A     -0.544887
      28A     -0.538971    29A     -0.506786    30A     -0.503504
      31A     -0.488781    32A     -0.478518    33A     -0.469752
      34A     -0.468219    35A     -0.456623    36A     -0.395756

  @DF-RHF Final Energy:  -387.13358806158658

   => Energetics <=

    Nuclear Repulsion Energy =            438.7739626832006934
    One-Electron Energy =               -1393.8932754917495913
    Two-Electron Energy =                 567.9857247469635695
    DFT Exchange-Correlation Energy =       0.0000000000000000
    Empirical Dispersion Energy =           0.0000000000000000
    PCM Polarization Energy =               0.0000000000000000
    EFP Energy =                            0.0000000000000000
    Total Energy =                       -387.1335880615853284

  Mulliken Charges: (a.u.)
   Center  Symbol    Alpha    Beta     Spin     Total
       1     O     4.25928  4.25928  0.00000 -0.51857
       2     C     2.73621  2.73621  0.00000  0.52758
       3     C     3.20264  3.20264  0.00000 -0.40529
       4     C     3.29012  3.29012  0.00000 -0.58025
       5     C     3.16206  3.16206  0.00000 -0.32413
       6     H     0.40103  0.40103  0.00000  0.19794
       7     H     0.41666  0.41666  0.00000  0.16669
       8     C     3.15241  3.15241  0.00000 -0.30482
       9     H     0.41010  0.41010  0.00000  0.17979
      10     H     0.41989  0.41989  0.00000  0.16022
      11     C     3.15167  3.15167  0.00000 -0.30333
      12     H     0.41909  0.41909  0.00000  0.16183
      13     H     0.42221  0.42221  0.00000  0.15558
      14     C     3.15205  3.15205  0.00000 -0.30409
      15     H     0.42181  0.42181  0.00000  0.15637
      16     H     0.42371  0.42371  0.00000  0.15258
      17     C     3.23957  3.23957  0.00000 -0.47914
      18     H     0.42195  0.42195  0.00000  0.15609
      19     H     0.42289  0.42289  0.00000  0.15422
      20     H     0.42097  0.42097  0.00000  0.15807
      21     H     0.41847  0.41847  0.00000  0.16306
      22     H     0.42164  0.42164  0.00000  0.15671
      23     H     0.40884  0.40884  0.00000  0.18232
      24     H     0.39676  0.39676  0.00000  0.20647
      25     H     0.40795  0.40795  0.00000  0.18410

   Total alpha = 36.00000, Total beta = 36.00000, Total charge =  0.00000
