                              Psi4 1.0.54 Driver

  ==> Input File <==

--------------------------------------------------------------------------
set {
	reference rhf
	basis cc-pvtz
}

set_num_threads( 4 )
memory 2 gb

molecule MOL {
0 1

H	 -1.526586	 -0.271439	 -1.029504
N	 -1.173824	 -0.310545	 -0.096857
C	 -0.022588	 0.563366	 0.065815
H	 -1.917235	 -0.036940	 0.511494
C	 1.270420	 -0.230572	 -0.014245
H	 -0.045354	 1.293678	 -0.735129
H	 -0.043155	 1.123061	 1.001180
H	 1.336273	 -0.754933	 -0.959364
H	 2.130728	 0.422015	 0.082222
H	 1.323344	 -0.967006	 0.781773

	symmetry c1
}
set optking {
	frozen_dihedral = ("
		1 2 3 6
	")
}

ee,wfn = optimize('scf', return_wfn=True)
oeprop( wfn, 'DIPOLE', 'QUADRUPOLE', 'MULLIKEN_CHARGES')
f=open( 'psi4out.xyz', 'w' )
f.write( "10  " )
f.write( str(ee) + "\n" )
f.write( MOL.save_string_xyz() )
f.close()
--------------------------------------------------------------------------

    Molecular point group: c1
  Charge       = 0
  Multiplicity = 1
  Basis Set: CC-PVTZ
  Basis Set:
  @DF-RHF Final Energy:  -134.30113500922118
    Total Energy =                       -134.3011350092211842
    Molecular point group: c1
  Basis Set: CC-PVTZ
  Basis Set:
  Basis Set: CC-PVTZ
  Basis Set:
  @DF-RHF Final Energy:  -134.29688903594305
    Total Energy =                       -134.2968890359431100
  Basis Set: CC-PVTZ
  Basis Set:
  Basis Set: CC-PVTZ
  Basis Set:
  @DF-RHF Final Energy:  -134.30225810296295
    Total Energy =                       -134.3022581029630373
  Basis Set: CC-PVTZ
  Basis Set:
  Basis Set: CC-PVTZ
  Basis Set:
  @DF-RHF Final Energy:  -134.30234954475284
    Total Energy =                       -134.3023495447529285
  Basis Set: CC-PVTZ
  Basis Set:
  Basis Set: CC-PVTZ
  Basis Set:
  @DF-RHF Final Energy:  -134.30235311973431
    Total Energy =                       -134.3023531197343061
  Basis Set: CC-PVTZ
  Basis Set:
  Charge       = 0
  Multiplicity = 1
  Basis Set: CC-PVTZ
  Basis Set:

    Orbital Energies (a.u.)
    -----------------------

    Doubly Occupied:

       1A    -15.526664     2A    -11.241735     3A    -11.199520
       4A     -1.175822     5A     -0.987341     6A     -0.820881
       7A     -0.671969     8A     -0.625460     9A     -0.571545
      10A     -0.523449    11A     -0.511087    12A     -0.479171
      13A     -0.384837

  @DF-RHF Final Energy:  -134.30235342782117

   => Energetics <=

    Nuclear Repulsion Energy =             83.1731535882575912
    One-Electron Energy =                -345.5120542342908720
    Two-Electron Energy =                 128.0365472182120925
    DFT Exchange-Correlation Energy =       0.0000000000000000
    Empirical Dispersion Energy =           0.0000000000000000
    PCM Polarization Energy =               0.0000000000000000
    EFP Energy =                            0.0000000000000000
    Total Energy =                       -134.3023534278211741
    Molecular point group: c1
  Basis Set: CC-PVTZ
  Basis Set:

  -Total Gradient:
     Atom            X                  Y                   Z
    ------   -----------------  -----------------  -----------------
       1       -0.000966576404     0.002106216535     0.000703369275
       2        0.001394451288    -0.003076551946    -0.001247165729
       3       -0.001111503870     0.002590823246     0.001869416938
       4        0.000001943523    -0.000002540514     0.000003429781
       5       -0.000012539115     0.000019346573    -0.000004197763
       6        0.000698420056    -0.001643066314    -0.001332336851
       7        0.000002803458    -0.000000455505    -0.000000238455
       8       -0.000001444728     0.000005751541     0.000006532232
       9       -0.000003014881    -0.000004346012     0.000001488623
      10       -0.000002539328     0.000004822397    -0.000000298051

  **** Optimization is complete! (in 6 steps) ****
    Final optimized geometry and variables:
    Molecular point group: c1

    Geometry (in Angstrom), charge = 0, multiplicity = 1:

    H           -1.708494478158    -0.031444826163    -0.743041366698
    N           -1.213535304555    -0.090067872941     0.120576125244
    C            0.097443275288     0.548970298655     0.028095204927
    H           -1.784136017743     0.358379578073     0.803797337652
    C            1.203889527206    -0.482523962743    -0.138521540612
    H            0.144715797895     1.246965800735    -0.804287465171
    H            0.275311482961     1.122393848174     0.930238012514
    H            1.049454939356    -1.066418182850    -1.039241595251
    H            2.175230796106    -0.003209159117    -0.209188342568
    H            1.214455324295    -1.166397622640     0.701223962561

  Mulliken Charges: (a.u.)
   Center  Symbol    Alpha    Beta     Spin     Total
       1     H     0.42940  0.42940  0.00000  0.14120
       2     N     3.69227  3.69227  0.00000 -0.38454
       3     C     3.03320  3.03320  0.00000 -0.06640
       4     H     0.42682  0.42682  0.00000  0.14637
       5     C     3.12366  3.12366  0.00000 -0.24733
       6     H     0.46277  0.46277  0.00000  0.07446
       7     H     0.45742  0.45742  0.00000  0.08515
       8     H     0.45885  0.45885  0.00000  0.08230
       9     H     0.46101  0.46101  0.00000  0.07799
      10     H     0.45460  0.45460  0.00000  0.09080

   Total alpha = 13.00000, Total beta = 13.00000, Total charge =  0.00000

*** Psi4 exiting successfully. Buy a developer a beer!
