  ==> Input File <==

--------------------------------------------------------------------------
set {
	reference rhf
	basis 6-31G*
}

set_num_threads( 4 )
memory 2 gb

molecule MOL {
0 1

O	 2.862325	 1.357334	 0.000267
C	 2.843464	 0.164689	 -0.000222
C	 1.546494	 -0.624492	 -0.000609
C	 4.124123	 -0.644674	 -0.000428
C	 0.291004	 0.242674	 0.000989
H	 1.557904	 -1.283758	 -0.867573
H	 1.558622	 -1.285963	 0.864672
C	 -0.994322	 -0.586602	 0.000262
H	 0.309117	 0.896430	 -0.865270
H	 0.309661	 0.894078	 0.869017
C	 -2.259874	 0.272531	 0.000494
H	 -1.004862	 -1.240012	 -0.870939
H	 -1.005220	 -1.241071	 0.870675
C	 -1.995852	 1.739381	 -0.343972
H	 -2.734492	 0.213070	 0.978360
H	 -2.974510	 -0.140070	 -0.709473
C	 -3.264751	 2.591187	 -0.341491
H	 -1.282537	 2.153249	 0.365759
H	 -1.522798	 1.800206	 -1.321918
H	 -3.743527	 2.578362	 0.633578
H	 -3.045305	 3.625377	 -0.588460
H	 -3.985037	 2.223541	 -1.066866
H	 4.165367	 -1.288615	 -0.874074
H	 4.976217	 0.020734	 -0.001915
H	 4.166763	 -1.286207	 0.874930

	symmetry c1
}
set optking {
	frozen_dihedral = ("
		15 11 8 12
	")
}

ee = optimize('scf')
oeprop('DIPOLE', 'QUADRUPOLE', 'MULLIKEN_CHARGES')
f=open( 'psi4out.xyz', 'w' )
f.write( "25  " )
f.write( str(ee) + "\n" )
f.write( MOL.save_string_xyz() )
f.close()
--------------------------------------------------------------------------

    Molecular point group: c1
  Charge       = 0
  Multiplicity = 1
  Basis Set: 6-31G*
  Basis Set:
  @DF-RHF Final Energy:  -387.12366360701412
    Total Energy =                       -387.1236636070141230
    Molecular point group: c1
  Basis Set: 6-31G*
  Basis Set:
  Basis Set: 6-31G*
  Basis Set:
  @DF-RHF Final Energy:  -387.12424606211550
    Total Energy =                       -387.1242460621151622
  Basis Set: 6-31G*
  Basis Set:
  Basis Set: 6-31G*
  Basis Set:
  @DF-RHF Final Energy:  -387.12757000190413
    Total Energy =                       -387.1275700019032229
  Basis Set: 6-31G*
  Basis Set:
  Basis Set: 6-31G*
  Basis Set:
  @DF-RHF Final Energy:  -387.12804177571763
    Total Energy =                       -387.1280417757174064
  Basis Set: 6-31G*
  Basis Set:
  @DF-RHF Final Energy:  -387.12809850860356
    Total Energy =                       -387.1280985086040118
  @DF-RHF Final Energy:  -387.12796018762674
    Total Energy =                       -387.1279601876260585
  @DF-RHF Final Energy:  -387.12810862811153
    Total Energy =                       -387.1281086281110220
  Basis Set: 6-31G*
  Basis Set:
  @DF-RHF Final Energy:  -387.12811262919047
    Total Energy =                       -387.1281126291910368
  Basis Set: 6-31G*
  Basis Set:
  Basis Set: 6-31G*
  Basis Set:
  @DF-RHF Final Energy:  -387.12811158540080
    Total Energy =                       -387.1281115854010295
  Basis Set: 6-31G*
  Basis Set:
  Basis Set: 6-31G*
  Basis Set:
  @DF-RHF Final Energy:  -387.12811334191684
    Total Energy =                       -387.1281133419165599
  Basis Set: 6-31G*
  Basis Set:
  Charge       = 0
  Multiplicity = 1
  Basis Set: 6-31G*
  Basis Set:

    Orbital Energies (a.u.)
    -----------------------

    Doubly Occupied:

       1A    -20.550491     2A    -11.326335     3A    -11.231809
       4A    -11.228361     5A    -11.217421     6A    -11.216538
       7A    -11.214032     8A    -11.212838     9A    -11.206695
      10A     -1.395791    11A     -1.091331    12A     -1.053800
      13A     -1.012776    14A     -0.967594    15A     -0.889242
      16A     -0.834989    17A     -0.768531    18A     -0.730992
      19A     -0.658150    20A     -0.651011    21A     -0.630241
      22A     -0.624023    23A     -0.595175    24A     -0.580496
      25A     -0.569990    26A     -0.560285    27A     -0.552041
      28A     -0.513904    29A     -0.505354    30A     -0.497050
      31A     -0.488854    32A     -0.483342    33A     -0.459562
      34A     -0.449257    35A     -0.444887    36A     -0.399970

  @DF-RHF Final Energy:  -387.12811322852400

   => Energetics <=

    Nuclear Repulsion Energy =            445.7542390609153813
    One-Electron Energy =               -1408.1383931540078720
    Two-Electron Energy =                 575.2560408645682628
    DFT Exchange-Correlation Energy =       0.0000000000000000
    Empirical Dispersion Energy =           0.0000000000000000
    PCM Polarization Energy =               0.0000000000000000
    EFP Energy =                            0.0000000000000000
    Total Energy =                       -387.1281132285242848
    Molecular point group: c1
  Basis Set: 6-31G*
  Basis Set:

  -Total Gradient:
     Atom            X                  Y                   Z
    ------   -----------------  -----------------  -----------------
       1       -0.000001703212     0.000000723152    -0.000000723374
       2        0.000002195061     0.000000501743     0.000005488955
       3        0.000002816062     0.000006440402    -0.000013119636
       4       -0.000000537348    -0.000000717299    -0.000006833351
       5        0.000004444865    -0.000004364406     0.000016158809
       6       -0.000001784694    -0.000002309203    -0.000001482406
       7       -0.000001811461     0.000005216809    -0.000000431065
       8        0.002195451457     0.003706395180    -0.003892637098
       9       -0.000005071958     0.000012374965    -0.000004746556
      10        0.000010989272    -0.000013436109    -0.000002115143
      11        0.002896042089     0.004329709327     0.002559336022
      12       -0.002309230931    -0.003806296018     0.002883319940
      13       -0.000009129242    -0.000008097147    -0.000003127474
      14        0.000005853966     0.000011783926     0.000027499407
      15       -0.002770360380    -0.004238456259    -0.001564512158
      16       -0.000014125437    -0.000003959016     0.000012114061
      17        0.000002243694     0.000001345867    -0.000012267827
      18       -0.000016929730     0.000008989132    -0.000004315935
      19        0.000009915791    -0.000003498268     0.000002029974
      20        0.000005020243    -0.000000285734    -0.000000348368
      21       -0.000002558132     0.000000641414    -0.000003268043
      22       -0.000001203143    -0.000001644361     0.000000452985
      23        0.000001174339    -0.000002305171     0.000000686076
      24       -0.000001378336     0.000000223185     0.000001132211
      25       -0.000000322839     0.000001023889     0.000001709995

  **** Optimization is complete! (in 11 steps) ****
    Final optimized geometry and variables:
    Molecular point group: c1

    Geometry (in Angstrom), charge = 0, multiplicity = 1:

    O            2.654756784573     0.757734379328     0.150129481799
    C            2.568379354574    -0.431139285419     0.105772979706
    C            1.229109893249    -1.144841502942     0.060933465311
    C            3.801108624566    -1.311683329925     0.091708778963
    C            0.025185870088    -0.206973276956     0.076595088226
    H            1.215879617718    -1.773193390298    -0.828713166652
    H            1.191502452253    -1.835612276005     0.902207222742
    C           -1.294269597117    -0.981123737817     0.031476288583
    H            0.101607746278     0.474593816670    -0.762286219010
    H            0.069530569495     0.406967400329     0.970033796569
    C           -2.598773365099    -0.145715903972     0.087198793789
    H           -1.317955961442    -1.627361884081    -0.843180021871
    H           -1.307413237276    -1.671950929804     0.872565875737
    C           -2.506287406528     1.326255582621    -0.322436959375
    H           -3.035336602963    -0.225193109913     1.079938083388
    H           -3.327627124000    -0.625289217199    -0.563103901141
    C           -3.866667943302     2.021844644170    -0.273120746535
    H           -1.813098312763     1.855399791344     0.324313164955
    H           -2.103940132373     1.401536978287    -1.329843490657
    H           -4.285954331470     1.992198444773     0.728756768866
    H           -3.784930302667     3.063889743960    -0.566276215524
    H           -4.577440403306     1.544475466403    -0.941934059456
    H            3.818619234063    -1.924874615447    -0.804563252889
    H            4.689387535607    -0.696344073329     0.125462713741
    H            3.794648797556    -1.985888564089     0.943208184749

  Mulliken Charges: (a.u.)
   Center  Symbol    Alpha    Beta     Spin     Total
       1     O     4.26134  4.26134  0.00000 -0.52268
       2     C     2.73547  2.73547  0.00000  0.52905
       3     C     3.21075  3.21075  0.00000 -0.42150
       4     C     3.28671  3.28671  0.00000 -0.57342
       5     C     3.15077  3.15077  0.00000 -0.30154
       6     H     0.40998  0.40998  0.00000  0.18004
       7     H     0.41008  0.41008  0.00000  0.17984
       8     C     3.15778  3.15778  0.00000 -0.31557
       9     H     0.40973  0.40973  0.00000  0.18053
      10     H     0.41176  0.41176  0.00000  0.17648
      11     C     3.15376  3.15376  0.00000 -0.30752
      12     H     0.42304  0.42304  0.00000  0.15393
      13     H     0.42335  0.42335  0.00000  0.15330
      14     C     3.15527  3.15527  0.00000 -0.31054
      15     H     0.42180  0.42180  0.00000  0.15639
      16     H     0.42238  0.42238  0.00000  0.15524
      17     C     3.23955  3.23955  0.00000 -0.47909
      18     H     0.41752  0.41752  0.00000  0.16497
      19     H     0.42207  0.42207  0.00000  0.15586
      20     H     0.42200  0.42200  0.00000  0.15600
      21     H     0.41849  0.41849  0.00000  0.16302
      22     H     0.42251  0.42251  0.00000  0.15497
      23     H     0.40872  0.40872  0.00000  0.18256
      24     H     0.39648  0.39648  0.00000  0.20704
      25     H     0.40869  0.40869  0.00000  0.18263

   Total alpha = 36.00000, Total beta = 36.00000, Total charge = -0.00000
