                              Psi4 1.0.54 Driver

  ==> Input File <==

--------------------------------------------------------------------------
set {
	reference rhf
	basis cc-pvtz
}

set_num_threads( 4 )
memory 2 gb

molecule MOL {
0 1

H	 2.614283	 2.028610	 0.296620
O	 3.358864	 1.662087	 -0.142800
C	 3.565468	 0.338079	 0.273842
C	 2.533667	 -0.637565	 -0.272227
H	 4.548038	 0.064914	 -0.086598
H	 3.593945	 0.282242	 1.360360
C	 1.114816	 -0.402372	 0.240993
H	 2.544552	 -0.580764	 -1.356576
H	 2.850574	 -1.642962	 -0.005497
C	 0.113298	 -1.420414	 -0.302504
H	 0.796373	 0.598427	 -0.031033
H	 1.113377	 -0.446476	 1.328807
C	 0.728528	 -2.563983	 -1.111204
H	 -0.459997	 -1.833337	 0.523968
H	 -0.600551	 -0.898802	 -0.934018
C	 1.600191	 -3.527875	 -0.308174
H	 -0.077893	 -3.128830	 -1.570725
H	 1.311328	 -2.150168	 -1.931117
C	 2.108870	 -4.704812	 -1.136712
H	 1.029898	 -3.906212	 0.537459
H	 2.452042	 -3.000766	 0.110764
C	 2.982576	 -5.667156	 -0.338949
H	 1.261689	 -5.245821	 -1.549230
H	 2.671727	 -4.328290	 -1.986703
H	 2.437673	 -6.086130	 0.500563
H	 3.324036	 -6.490989	 -0.955237
H	 3.859406	 -5.164609	 0.055978

	symmetry c1
}
set optking {
	frozen_dihedral = ("
		14 10 7 4
	")
}

ee,wfn = optimize('scf', return_wfn=True)
oeprop( wfn, 'DIPOLE', 'QUADRUPOLE', 'MULLIKEN_CHARGES')
f=open( 'psi4out.xyz', 'w' )
f.write( "27  " )
f.write( str(ee) + "\n" )
f.write( MOL.save_string_xyz() )
f.close()
--------------------------------------------------------------------------

    Molecular point group: c1
  Charge       = 0
  Multiplicity = 1
  Basis Set: CC-PVTZ
  Basis Set:
  @DF-RHF Final Energy:  -388.39951995012052
    Total Energy =                       -388.3995199501202933
    Molecular point group: c1
  Basis Set: CC-PVTZ
  Basis Set:
  Basis Set: CC-PVTZ
  Basis Set:
  @DF-RHF Final Energy:  -388.41268012842568
    Total Energy =                       -388.4126801284257908
  Basis Set: CC-PVTZ
  Basis Set:
  Basis Set: CC-PVTZ
  Basis Set:
  @DF-RHF Final Energy:  -388.41529710062554
    Total Energy =                       -388.4152971006259349
  Basis Set: CC-PVTZ
  Basis Set:
  Basis Set: CC-PVTZ
  Basis Set:
  @DF-RHF Final Energy:  -388.41613941342217
    Total Energy =                       -388.4161394134223428
  Basis Set: CC-PVTZ
  Basis Set:
  @DF-RHF Final Energy:  -388.41616300408486
    Total Energy =                       -388.4161630040844102
  @DF-RHF Final Energy:  -388.41644702089314
    Total Energy =                       -388.4164470208932016
  Basis Set: CC-PVTZ
  Basis Set:
  @DF-RHF Final Energy:  -388.41648263780360
    Total Energy =                       -388.4164826378038242
  Basis Set: CC-PVTZ
  Basis Set:
  Basis Set: CC-PVTZ
  Basis Set:
  @DF-RHF Final Energy:  -388.41648736384940
    Total Energy =                       -388.4164873638497966
  Basis Set: CC-PVTZ
  Basis Set:
  Basis Set: CC-PVTZ
  Basis Set:
  @DF-RHF Final Energy:  -388.41648903856645
    Total Energy =                       -388.4164890385659419
  Basis Set: CC-PVTZ
  Basis Set:
  Charge       = 0
  Multiplicity = 1
  Basis Set: CC-PVTZ
  Basis Set:

    Orbital Energies (a.u.)
    -----------------------

    Doubly Occupied:

       1A    -20.545367     2A    -11.265164     3A    -11.218100
       4A    -11.215366     5A    -11.213552     6A    -11.213057
       7A    -11.212049     8A    -11.211407     9A    -11.207270
      10A     -1.363358    11A     -1.093378    12A     -1.059505
      13A     -1.010270    14A     -0.951232    15A     -0.887844
      16A     -0.834434    17A     -0.797469    18A     -0.765144
      19A     -0.698031    20A     -0.654975    21A     -0.637456
      22A     -0.615822    23A     -0.603488    24A     -0.585808
      25A     -0.569980    26A     -0.555162    27A     -0.549882
      28A     -0.522352    29A     -0.517112    30A     -0.493634
      31A     -0.485248    32A     -0.476990    33A     -0.467983
      34A     -0.455630    35A     -0.446787    36A     -0.436611
      37A     -0.427946

  @DF-RHF Final Energy:  -388.41648938436487

   => Energetics <=

    Nuclear Repulsion Energy =            468.5045863688408758
    One-Electron Energy =               -1455.3124307585321731
    Two-Electron Energy =                 598.3913550053271138
    DFT Exchange-Correlation Energy =       0.0000000000000000
    Empirical Dispersion Energy =           0.0000000000000000
    PCM Polarization Energy =               0.0000000000000000
    EFP Energy =                            0.0000000000000000
    Total Energy =                       -388.4164893843642403
    Molecular point group: c1
  Basis Set: CC-PVTZ
  Basis Set:

  -Total Gradient:
     Atom            X                  Y                   Z
    ------   -----------------  -----------------  -----------------
       1       -0.000003349044     0.000004125592     0.000000659066
       2       -0.000007697133     0.000012186886     0.000008950426
       3        0.000013412976    -0.000000927634    -0.000024567578
       4        0.001085754649    -0.002208213065     0.002884982598
       5        0.000000997177    -0.000000830917    -0.000002558515
       6       -0.000005464568    -0.000002665055    -0.000003434037
       7       -0.000821766137     0.002430357078    -0.004181155442
       8        0.000004827967     0.000019386344     0.000026888465
       9        0.000018144342    -0.000030126248     0.000009851114
      10       -0.003797690865     0.003225433262     0.001074130089
      11       -0.000016586907     0.000014443154    -0.000000553376
      12       -0.000006469794     0.000000312285    -0.000019703525
      13        0.000016279664     0.000032066717     0.000015253186
      14        0.003538258199    -0.003466213071     0.000222841431
      15       -0.000008672488    -0.000000859381    -0.000006039065
      16        0.000007361054    -0.000005638331     0.000002995012
      17       -0.000009471124    -0.000009438450     0.000011764258
      18        0.000005443516    -0.000002636822    -0.000004355654
      19       -0.000022744541     0.000002449885     0.000004307464
      20       -0.000015171294    -0.000010528310    -0.000011609584
      21        0.000008756132     0.000000325708    -0.000008363649
      22        0.000011067811     0.000000797385    -0.000001563149
      23       -0.000001591184    -0.000002545349    -0.000002988437
      24        0.000005905516     0.000002883029     0.000001741583
      25       -0.000005152541     0.000002240145     0.000002127404
      26        0.000004958633    -0.000005998465    -0.000004113053
      27        0.000000659984    -0.000000386368     0.000004512964

  **** Optimization is complete! (in 10 steps) ****
    Final optimized geometry and variables:
    Molecular point group: c1

    Geometry (in Angstrom), charge = 0, multiplicity = 1:

    H            0.491374017385     4.049430204102     0.577224307273
    O            1.247227158403     3.774963799795     0.092670077516
    C            1.621603506204     2.476295333736     0.469239830428
    C            0.691993863718     1.394054292419    -0.062841089139
    H            2.614161241017     2.326847578436     0.065994515328
    H            1.699425338059     2.402809010788     1.552257074937
    C           -0.717510751873     1.473548129163     0.525552400919
    H            0.658682033929     1.481766229851    -1.143709362526
    H            1.144529396967     0.435940951777     0.164244613147
    C           -1.751688481594     0.394807034392     0.096872861995
    H           -1.135619050589     2.445833132610     0.289863399655
    H           -0.619973111585     1.448054875147     1.607706492847
    C           -1.252179643189    -0.807799290502    -0.718227054433
    H           -2.209127745209    -0.013740831504     0.991793850143
    H           -2.540666094923     0.878867997867    -0.465507721532
    C           -0.594978210521    -1.907031331328     0.116712271465
    H           -2.108496527703    -1.242806610127    -1.225655789755
    H           -0.577130352692    -0.486265135838    -1.503448168690
    C           -0.065219232064    -3.066042472662    -0.722944140773
    H           -1.324051884735    -2.286774113408     0.828922300990
    H            0.217082803696    -1.499186465934     0.710912997756
    C            0.552941043889    -4.181152827120     0.113950518683
    H           -0.874613432226    -3.472886664288    -1.323117829730
    H            0.674330334998    -2.691323205650    -1.425379494630
    H           -0.172745022068    -4.602641554511     0.801643779950
    H            0.920094292910    -4.985792347712    -0.512754364301
    H            1.387640457732    -3.813186784312     0.701553055431

  Mulliken Charges: (a.u.)
   Center  Symbol    Alpha    Beta     Spin     Total
       1     H     0.39251  0.39251  0.00000  0.21499
       2     O     4.20580  4.20580  0.00000 -0.41160
       3     C     2.97802  2.97802  0.00000  0.04396
       4     C     3.09609  3.09609  0.00000 -0.19219
       5     H     0.44836  0.44836  0.00000  0.10328
       6     H     0.46959  0.46959  0.00000  0.06082
       7     C     3.11062  3.11062  0.00000 -0.22124
       8     H     0.44929  0.44929  0.00000  0.10142
       9     H     0.45209  0.45209  0.00000  0.09582
      10     C     3.10339  3.10339  0.00000 -0.20678
      11     H     0.45197  0.45197  0.00000  0.09607
      12     H     0.45022  0.45022  0.00000  0.09955
      13     C     3.10928  3.10928  0.00000 -0.21856
      14     H     0.45156  0.45156  0.00000  0.09688
      15     H     0.44331  0.44331  0.00000  0.11338
      16     C     3.08939  3.08939  0.00000 -0.17877
      17     H     0.44291  0.44291  0.00000  0.11418
      18     H     0.44813  0.44813  0.00000  0.10374
      19     C     3.08464  3.08464  0.00000 -0.16929
      20     H     0.45151  0.45151  0.00000  0.09698
      21     H     0.45474  0.45474  0.00000  0.09051
      22     C     3.14991  3.14991  0.00000 -0.29982
      23     H     0.45400  0.45400  0.00000  0.09200
      24     H     0.45391  0.45391  0.00000  0.09218
      25     H     0.45508  0.45508  0.00000  0.08984
      26     H     0.44814  0.44814  0.00000  0.10372
      27     H     0.45553  0.45553  0.00000  0.08894

   Total alpha = 37.00000, Total beta = 37.00000, Total charge = -0.00000

*** Psi4 exiting successfully. Buy a developer a beer!
