  ==> Input File <==

--------------------------------------------------------------------------
set {
	reference rhf
	basis 6-31G*
}

set_num_threads( 4 )
memory 2 gb

molecule MOL {
0 1

O	 1.846825	 1.296220	 0.000415
C	 1.705091	 0.115954	 0.001797
C	 0.381791	 -0.609817	 0.001258
O	 2.721346	 -0.737485	 -0.000216
C	 -0.823008	 0.326187	 0.001381
H	 0.371250	 -1.265087	 -0.865474
H	 0.370908	 -1.265746	 0.867490
C	 -2.147999	 -0.433271	 0.083143
H	 -0.802076	 0.936072	 -0.896278
H	 -0.740468	 1.015244	 0.836065
C	 -3.367339	 0.490347	 0.083458
H	 -2.223151	 -1.125114	 -0.754534
H	 -2.161860	 -1.044760	 0.984125
C	 -4.690885	 -0.268994	 0.166397
H	 -3.356348	 1.100093	 -0.817225
H	 -3.294161	 1.181480	 0.920188
H	 -4.809394	 -0.944149	 -0.676417
H	 -5.535749	 0.412661	 0.164929
H	 -4.746508	 -0.862518	 1.074662
C	 4.024888	 -0.184556	 -0.001949
H	 4.179030	 0.422472	 -0.882452
H	 4.701782	 -1.024608	 -0.003642
H	 4.181981	 0.421185	 0.878906

	symmetry c1
}
set optking {
	frozen_dihedral = ("
		9 5 3 6
	")
}

ee = optimize('scf')
oeprop('DIPOLE', 'QUADRUPOLE', 'MULLIKEN_CHARGES')
f=open( 'psi4out.xyz', 'w' )
f.write( "23  " )
f.write( str(ee) + "\n" )
f.write( MOL.save_string_xyz() )
f.close()
--------------------------------------------------------------------------

    Molecular point group: c1
  Charge       = 0
  Multiplicity = 1
  Basis Set: 6-31G*
  Basis Set:
  @DF-RHF Final Energy:  -422.97627490121749
    Total Energy =                       -422.9762749012173799
    Molecular point group: c1
  Basis Set: 6-31G*
  Basis Set:
  Basis Set: 6-31G*
  Basis Set:
  @DF-RHF Final Energy:  -422.97622544019265
    Total Energy =                       -422.9762254401930477
  Basis Set: 6-31G*
  Basis Set:
  Basis Set: 6-31G*
  Basis Set:
  @DF-RHF Final Energy:  -422.97627250082570
    Total Energy =                       -422.9762725008257576
  Basis Set: 6-31G*
  Basis Set:
  Basis Set: 6-31G*
  Basis Set:
  @DF-RHF Final Energy:  -422.97628087036287
    Total Energy =                       -422.9762808703629844
  Basis Set: 6-31G*
  Basis Set:
  Charge       = 0
  Multiplicity = 1
  Basis Set: 6-31G*
  Basis Set:

    Orbital Energies (a.u.)
    -----------------------

    Doubly Occupied:

       1A    -20.603610     2A    -20.545423     3A    -11.372228
       4A    -11.280837     5A    -11.235574     6A    -11.219286
       7A    -11.217862     8A    -11.216456     9A    -11.209639
      10A     -1.469301    11A     -1.362747    12A     -1.093198
      13A     -1.043645    14A     -0.987023    15A     -0.932075
      16A     -0.843544    17A     -0.795033    18A     -0.767240
      19A     -0.696749    20A     -0.683893    21A     -0.671476
      22A     -0.651818    23A     -0.609397    24A     -0.599344
      25A     -0.572709    26A     -0.558004    27A     -0.557326
      28A     -0.523785    29A     -0.521204    30A     -0.507654
      31A     -0.484592    32A     -0.469676    33A     -0.466310
      34A     -0.461267    35A     -0.455632    36A     -0.435398

  @DF-RHF Final Energy:  -422.97628053288827

   => Energetics <=

    Nuclear Repulsion Energy =            452.1276285724866284
    One-Electron Energy =               -1471.9659047187296892
    Two-Electron Energy =                 596.8619956133545656
    DFT Exchange-Correlation Energy =       0.0000000000000000
    Empirical Dispersion Energy =           0.0000000000000000
    PCM Polarization Energy =               0.0000000000000000
    EFP Energy =                            0.0000000000000000
    Total Energy =                       -422.9762805328884951
    Molecular point group: c1
  Basis Set: 6-31G*
  Basis Set:

  -Total Gradient:
     Atom            X                  Y                   Z
    ------   -----------------  -----------------  -----------------
       1        0.000016909115     0.000022676073    -0.000025376635
       2        0.000003633962     0.000008228039     0.000111445630
       3       -0.000398450150    -0.000505840697     0.000233866613
       4        0.000009304180     0.000003819223    -0.000018745433
       5        0.000411152718     0.000505089437     0.000046602320
       6        0.000248454634     0.000336131847    -0.000274192279
       7       -0.000021997838     0.000004112684    -0.000033739040
       8       -0.000011432463    -0.000012767963     0.000157953016
       9       -0.000239223827    -0.000342092570    -0.000214510286
      10        0.000000141067    -0.000013961948    -0.000004575588
      11       -0.000005335780    -0.000006179098     0.000004135422
      12        0.000028713127     0.000017895707     0.000019633055
      13       -0.000039182527    -0.000021597518     0.000020238689
      14        0.000001350455    -0.000003468775    -0.000028114604
      15        0.000008040759     0.000017781712     0.000000922933
      16       -0.000009674976    -0.000011736484     0.000008652450
      17       -0.000004269005    -0.000003443480     0.000001625240
      18       -0.000001862997     0.000002349995    -0.000008158650
      19        0.000006775041     0.000005411488    -0.000000542156
      20        0.000002612601    -0.000006130214     0.000006145943
      21       -0.000002426317     0.000000789903    -0.000000516808
      22       -0.000003008578     0.000003447399    -0.000000378921
      23       -0.000000223211    -0.000000514762    -0.000002370909

  **** Optimization is complete! (in 5 steps) ****
    Final optimized geometry and variables:
    Molecular point group: c1

    Geometry (in Angstrom), charge = 0, multiplicity = 1:

    O            1.846658562196     1.295409885682    -0.035523414226
    C            1.704531776658     0.115204609437    -0.035179559707
    C            0.380920973435    -0.610547319413    -0.028007481124
    O            2.720518495503    -0.738573505908    -0.042174130002
    C           -0.823244354951     0.326342616717    -0.023934429150
    H            0.367481728094    -1.264396132811    -0.895725406874
    H            0.374444126830    -1.265782095495     0.838671793190
    C           -2.148502002705    -0.433584597520     0.053844040828
    H           -0.803313007906     0.937198792961    -0.921187114953
    H           -0.741229187978     1.012467732625     0.812826714744
    C           -3.368207753054     0.489474260155     0.044622729163
    H           -2.219184167232    -1.128378779733    -0.781765609037
    H           -2.166684181779    -1.041941464386     0.956915129047
    C           -4.692042037537    -0.270411893628     0.117617302149
    H           -3.350690908918     1.098954457005    -0.856128838319
    H           -3.301716460616     1.180893070649     0.881648862133
    H           -4.803521327464    -0.946380155663    -0.725549550344
    H           -5.537198292559     0.410795331681     0.108834801700
    H           -4.754655905275    -0.863196755595     1.025894329803
    C            4.024231522762    -0.186049344544    -0.049714055468
    H            4.174638973650     0.420957527119    -0.930871409743
    H            4.700862026562    -1.026349192897    -0.054535695105
    H            4.185476588189     0.419552514760     0.830489535472

  Mulliken Charges: (a.u.)
   Center  Symbol    Alpha    Beta     Spin     Total
       1     O     4.28606  4.28606  0.00000 -0.57212
       2     C     2.60505  2.60505  0.00000  0.78990
       3     C     3.20812  3.20812  0.00000 -0.41623
       4     O     4.30740  4.30740  0.00000 -0.61480
       5     C     3.15241  3.15241  0.00000 -0.30482
       6     H     0.40055  0.40055  0.00000  0.19890
       7     H     0.40066  0.40066  0.00000  0.19868
       8     C     3.15338  3.15338  0.00000 -0.30675
       9     H     0.41260  0.41260  0.00000  0.17479
      10     H     0.41074  0.41074  0.00000  0.17853
      11     C     3.15154  3.15154  0.00000 -0.30309
      12     H     0.42414  0.42414  0.00000  0.15171
      13     H     0.42393  0.42393  0.00000  0.15215
      14     C     3.23957  3.23957  0.00000 -0.47915
      15     H     0.42144  0.42144  0.00000  0.15712
      16     H     0.42125  0.42125  0.00000  0.15750
      17     H     0.42184  0.42184  0.00000  0.15632
      18     H     0.41848  0.41848  0.00000  0.16304
      19     H     0.42181  0.42181  0.00000  0.15639
      20     C     3.09244  3.09244  0.00000 -0.18487
      21     H     0.40907  0.40907  0.00000  0.18185
      22     H     0.40844  0.40844  0.00000  0.18313
      23     H     0.40909  0.40909  0.00000  0.18182

   Total alpha = 36.00000, Total beta = 36.00000, Total charge = -0.00000
