  ==> Input File <==

--------------------------------------------------------------------------
set {
	reference rhf
	basis 6-31G*
}

set_num_threads( 1 )
memory 2 gb

molecule MOL {
0 1

H	 -2.798360	 -0.862255	 -0.071053
N	 -1.863561	 -0.715187	 0.256814
C	 -1.344686	 0.554728	 -0.219830
H	 -1.300452	 -1.461917	 -0.101532
C	 -0.349617	 1.113085	 0.775765
H	 -0.858009	 0.492172	 -1.194116
H	 -2.170062	 1.253990	 -0.312403
O	 0.747549	 0.246971	 0.831980
H	 -0.026351	 2.107255	 0.467929
H	 -0.817424	 1.193416	 1.754508
C	 1.707598	 0.596933	 1.777180
H	 2.499823	 -0.137657	 1.727610
H	 2.127197	 1.580406	 1.572977
H	 1.292429	 0.600928	 2.782878

	symmetry c1
}
set optking {
	frozen_dihedral = ("
		8 5 3 6,
		5 8 11 13,
		11 8 5 3
	")
}

ee = energy('scf')
oeprop('DIPOLE', 'QUADRUPOLE', 'MULLIKEN_CHARGES')
f=open( 'psi4out.xyz', 'w' )
f.write( "14  " )
f.write( str(ee) + "\n" )
f.write( MOL.save_string_xyz() )
f.close()
--------------------------------------------------------------------------

    Molecular point group: c1

    Geometry (in Angstrom), charge = 0, multiplicity = 1:

       Center              X                  Y                   Z               Mass
    ------------   -----------------  -----------------  -----------------  -----------------
           H         -2.584604052508    -1.207487421562    -0.758155134319     1.007825032070
           N         -1.649805052508    -1.060419421562    -0.430288134319    14.003074004780
           C         -1.130930052508     0.209495578438    -0.906932134319    12.000000000000
           H         -1.086696052508    -1.807149421562    -0.788634134319     1.007825032070
           C         -0.135861052508     0.767852578438     0.088662865681    12.000000000000
           H         -0.644253052508     0.146939578438    -1.881218134319     1.007825032070
           H         -1.956306052508     0.908757578438    -0.999505134319     1.007825032070
           O          0.961304947492    -0.098261421562     0.144877865681    15.994914619560
           H          0.187404947492     1.762022578438    -0.219173134319     1.007825032070
           H         -0.603668052508     0.848183578438     1.067405865681     1.007825032070
           C          1.921353947492     0.251700578438     1.090077865681    12.000000000000
           H          2.713578947492    -0.482889421562     1.040507865681     1.007825032070
           H          2.340952947492     1.235173578438     0.885874865681     1.007825032070
           H          1.506184947492     0.255695578438     2.095775865681     1.007825032070

  Charge       = 0
  Multiplicity = 1
  Basis Set: 6-31G*
  Basis Set:

    Orbital Energies (a.u.)
    -----------------------

    Doubly Occupied:

       1A    -20.550396     2A    -15.530547     3A    -11.261209
       4A    -11.259610     5A    -11.241660     6A     -1.374295
       7A     -1.174962     8A     -0.996427     9A     -0.903045
      10A     -0.811949    11A     -0.680996    12A     -0.672201
      13A     -0.637048    14A     -0.619144    15A     -0.601908
      16A     -0.531280    17A     -0.522899    18A     -0.499610
      19A     -0.469312    20A     -0.411364    21A     -0.381385

  @DF-RHF Final Energy:  -248.12224288442604

   => Energetics <=

    Nuclear Repulsion Energy =            194.2446631823258372
    One-Electron Energy =                -722.4712422676020651
    Two-Electron Energy =                 280.1043362008500139
    DFT Exchange-Correlation Energy =       0.0000000000000000
    Empirical Dispersion Energy =           0.0000000000000000
    PCM Polarization Energy =               0.0000000000000000
    EFP Energy =                            0.0000000000000000
    Total Energy =                       -248.1222428844261572

  Mulliken Charges: (a.u.)
   Center  Symbol    Alpha    Beta     Spin     Total
       1     H     0.33259  0.33259  0.00000  0.33481
       2     N     3.91847  3.91847  0.00000 -0.83694
       3     C     3.07898  3.07898  0.00000 -0.15796
       4     H     0.32688  0.32688  0.00000  0.34624
       5     C     2.97766  2.97766  0.00000  0.04469
       6     H     0.42286  0.42286  0.00000  0.15428
       7     H     0.42235  0.42235  0.00000  0.15530
       8     O     4.30796  4.30796  0.00000 -0.61592
       9     H     0.43556  0.43556  0.00000  0.12888
      10     H     0.42576  0.42576  0.00000  0.14848
      11     C     3.07769  3.07769  0.00000 -0.15537
      12     H     0.41346  0.41346  0.00000  0.17307
      13     H     0.43171  0.43171  0.00000  0.13659
      14     H     0.42807  0.42807  0.00000  0.14385

   Total alpha = 21.00000, Total beta = 21.00000, Total charge =  0.00000
