  ==> Input File <==

--------------------------------------------------------------------------
set {
	reference rhf
	basis 6-31G*
}

set_num_threads( 4 )
memory 2 gb

molecule MOL {
0 1

H	 2.823232	 0.788747	 1.309317
N	 1.948820	 0.300139	 1.295947
C	 1.267428	 0.496480	 0.024474
H	 1.399689	 0.668855	 2.049218
C	 -0.016086	 -0.325158	 -0.029487
H	 1.937785	 0.166278	 -0.763322
H	 1.035476	 1.544553	 -0.180759
C	 -1.282277	 0.529072	 0.046735
H	 -0.012495	 -0.908639	 -0.945788
H	 -0.015903	 -1.041248	 0.791956
C	 -2.563920	 -0.301775	 -0.006060
H	 -1.284084	 1.244622	 -0.773004
H	 -1.271387	 1.115393	 0.963286
H	 -2.621848	 -0.873522	 -0.927727
H	 -3.445135	 0.329952	 0.047812
H	 -2.609542	 -1.004582	 0.821105

	symmetry c1
}
set optking {
	frozen_dihedral = ("
		6 3 5 9
	")
}

ee = optimize('scf')
oeprop('DIPOLE', 'QUADRUPOLE', 'MULLIKEN_CHARGES')
f=open( 'psi4out.xyz', 'w' )
f.write( "16  " )
f.write( str(ee) + "\n" )
f.write( MOL.save_string_xyz() )
f.close()
--------------------------------------------------------------------------

    Molecular point group: c1
  Charge       = 0
  Multiplicity = 1
  Basis Set: 6-31G*
  Basis Set:
  @DF-RHF Final Energy:  -212.31100918289769
    Total Energy =                       -212.3110091828979193
    Molecular point group: c1
  Basis Set: 6-31G*
  Basis Set:
  Basis Set: 6-31G*
  Basis Set:
  @DF-RHF Final Energy:  -212.31143863736199
    Total Energy =                       -212.3114386373620164
  Basis Set: 6-31G*
  Basis Set:
  Basis Set: 6-31G*
  Basis Set:
  @DF-RHF Final Energy:  -212.31156290985697
    Total Energy =                       -212.3115629098568888
  Basis Set: 6-31G*
  Basis Set:
  Basis Set: 6-31G*
  Basis Set:
  @DF-RHF Final Energy:  -212.31156565556239
    Total Energy =                       -212.3115656555623900
  Basis Set: 6-31G*
  Basis Set:
  Charge       = 0
  Multiplicity = 1
  Basis Set: 6-31G*
  Basis Set:

    Orbital Energies (a.u.)
    -----------------------

    Doubly Occupied:

       1A    -15.532951     2A    -11.239967     3A    -11.216503
       4A    -11.209480     5A    -11.208515     6A     -1.175965
       7A     -1.058468     8A     -0.957761     9A     -0.847937
      10A     -0.789642    11A     -0.666264    12A     -0.631159
      13A     -0.607294    14A     -0.580240    15A     -0.554218
      16A     -0.526367    17A     -0.510713    18A     -0.472485
      19A     -0.465020    20A     -0.453772    21A     -0.379960

  @DF-RHF Final Energy:  -212.31156584630801

   => Energetics <=

    Nuclear Repulsion Energy =            187.1221916655958637
    One-Electron Energy =                -656.6981562118206739
    Two-Electron Energy =                 257.2643986999169101
    DFT Exchange-Correlation Energy =       0.0000000000000000
    Empirical Dispersion Energy =           0.0000000000000000
    PCM Polarization Energy =               0.0000000000000000
    EFP Energy =                            0.0000000000000000
    Total Energy =                       -212.3115658463078717
    Molecular point group: c1
  Basis Set: 6-31G*
  Basis Set:

  -Total Gradient:
     Atom            X                  Y                   Z
    ------   -----------------  -----------------  -----------------
       1        0.000039798686     0.000007162664     0.000034657339
       2        0.000007170910     0.000007296460    -0.000050364845
       3        0.001593642695    -0.002998216628     0.002530554423
       4       -0.000011139519     0.000009587202    -0.000006790679
       5       -0.001837445166     0.003214698485    -0.002117403393
       6       -0.001081072540     0.001959499069    -0.001780157160
       7        0.000014160353     0.000021918254     0.000011608716
       8        0.000038740229    -0.000033855075     0.000007752855
       9        0.001260412325    -0.002174423150     0.001362052633
      10       -0.000008917592    -0.000011575688     0.000018441286
      11       -0.000017370947     0.000008982275    -0.000004283157
      12        0.000015872443    -0.000002199260     0.000005022678
      13       -0.000000391680    -0.000011312081    -0.000003517824
      14       -0.000000993818     0.000002670963     0.000001675217
      15       -0.000021470317    -0.000007886666    -0.000000182158
      16        0.000009003941     0.000007653175    -0.000009065933

  **** Optimization is complete! (in 5 steps) ****
    Final optimized geometry and variables:
    Molecular point group: c1

    Geometry (in Angstrom), charge = 0, multiplicity = 1:

    H            2.907756026980     0.673880866255     1.062517350594
    N            2.053521568914     0.151025093345     1.025705983506
    C            1.396456136142     0.335494262793    -0.262182512566
    H            1.473208441024     0.498363179739     1.766168426226
    C            0.088429058058    -0.471978227293    -0.346057137221
    H            2.083236047176     0.014203815536    -1.037319449684
    H            1.181987419259     1.385450770047    -0.476389696473
    C           -1.178638531283     0.380581560881    -0.252513107567
    H            0.070717937482    -1.056177145492    -1.262584157657
    H            0.096337356934    -1.201606484528     0.459139192595
    C           -2.459385495555    -0.452084402380    -0.273822155334
    H           -1.197042984348     1.092605802825    -1.074743829421
    H           -1.149507724091     0.973321815018     0.660571773023
    H           -2.532727336427    -1.032629572205    -1.189183471990
    H           -3.341013829584     0.178315477474    -0.210502967032
    H           -2.488244104045    -1.147660803404     0.559997736844

  Mulliken Charges: (a.u.)
   Center  Symbol    Alpha    Beta     Spin     Total
       1     H     0.33340  0.33340  0.00000  0.33321
       2     N     3.91994  3.91994  0.00000 -0.83988
       3     C     3.06440  3.06440  0.00000 -0.12880
       4     H     0.33565  0.33565  0.00000  0.32870
       5     C     3.16118  3.16118  0.00000 -0.32235
       6     H     0.41805  0.41805  0.00000  0.16390
       7     H     0.43284  0.43284  0.00000  0.13432
       8     C     3.15377  3.15377  0.00000 -0.30753
       9     H     0.41994  0.41994  0.00000  0.16012
      10     H     0.41059  0.41059  0.00000  0.17881
      11     C     3.23963  3.23963  0.00000 -0.47926
      12     H     0.42269  0.42269  0.00000  0.15461
      13     H     0.42640  0.42640  0.00000  0.14720
      14     H     0.42120  0.42120  0.00000  0.15760
      15     H     0.41959  0.41959  0.00000  0.16082
      16     H     0.42074  0.42074  0.00000  0.15852

   Total alpha = 21.00000, Total beta = 21.00000, Total charge =  0.00000
