                              Psi4 1.0.54 Driver

  ==> Input File <==

--------------------------------------------------------------------------
set {
	reference rhf
	basis cc-pvtz
}

set_num_threads( 4 )
memory 2 gb

molecule MOL {
0 1

O	 -2.011231	 0.158902	 0.862040
C	 -1.081510	 0.147522	 0.122720
C	 0.327029	 -0.064006	 0.641890
C	 -1.248096	 0.360520	 -1.362928
C	 1.349460	 -0.017068	 -0.500215
H	 0.399029	 -1.014606	 1.159950
H	 0.538021	 0.726928	 1.350471
C	 2.779782	 -0.209014	 -0.009215
H	 1.115007	 -0.782959	 -1.233891
H	 1.259071	 0.936707	 -1.006644
H	 3.481860	 -0.160270	 -0.833072
H	 2.903471	 -1.171535	 0.475559
H	 3.052569	 0.559584	 0.705428
H	 -0.563331	 1.121893	 -1.719529
H	 -2.265210	 0.643549	 -1.586246
H	 -1.004643	 -0.559219	 -1.885100

	symmetry c1
}
set optking {
	frozen_dihedral = ("
		4 2 3 5
	")
}

ee,wfn = optimize('scf', return_wfn=True)
oeprop( wfn, 'DIPOLE', 'QUADRUPOLE', 'MULLIKEN_CHARGES')
f=open( 'psi4out.xyz', 'w' )
f.write( "16  " )
f.write( str(ee) + "\n" )
f.write( MOL.save_string_xyz() )
f.close()
--------------------------------------------------------------------------

    Molecular point group: c1
  Charge       = 0
  Multiplicity = 1
  Basis Set: CC-PVTZ
  Basis Set:
  @DF-RHF Final Energy:  -270.12100934505497
    Total Energy =                       -270.1210093450548015
    Molecular point group: c1
  Basis Set: CC-PVTZ
  Basis Set:
  Basis Set: CC-PVTZ
  Basis Set:
  @DF-RHF Final Energy:  -269.93396235259934
    Total Energy =                       -269.9339623525992238
  Basis Set: CC-PVTZ
  Basis Set:
  Basis Set: CC-PVTZ
  Basis Set:
  @DF-RHF Final Energy:  -270.06109785671481
    Total Energy =                       -270.0610978567148095
  Basis Set: CC-PVTZ
  Basis Set:
  Basis Set: CC-PVTZ
  Basis Set:
  @DF-RHF Final Energy:  -270.12012301761467
    Total Energy =                       -270.1201230176146169
  Basis Set: CC-PVTZ
  Basis Set:
  @DF-RHF Final Energy:  -270.12570211479272
    Total Energy =                       -270.1257021147923183
  @DF-RHF Final Energy:  -270.12652925611917
    Total Energy =                       -270.1265292561191700
  @DF-RHF Final Energy:  -270.12655893464955
    Total Energy =                       -270.1265589346492675
  @DF-RHF Final Energy:  -270.12652257826801
    Total Energy =                       -270.1265225782678954
  @DF-RHF Final Energy:  -270.12666538406108
    Total Energy =                       -270.1266653840613117
  Basis Set: CC-PVTZ
  Basis Set:
  @DF-RHF Final Energy:  -270.12667014986391
    Total Energy =                       -270.1266701498640259
  Basis Set: CC-PVTZ
  Basis Set:
  Basis Set: CC-PVTZ
  Basis Set:
  @DF-RHF Final Energy:  -270.12667029515723
    Total Energy =                       -270.1266702951573961
  Basis Set: CC-PVTZ
  Basis Set:
  Basis Set: CC-PVTZ
  Basis Set:
  @DF-RHF Final Energy:  -270.12667294319948
    Total Energy =                       -270.1266729431995373
  Basis Set: CC-PVTZ
  Basis Set:
  Charge       = 0
  Multiplicity = 1
  Basis Set: CC-PVTZ
  Basis Set:

    Orbital Energies (a.u.)
    -----------------------

    Doubly Occupied:

       1A    -20.534809     2A    -11.321424     3A    -11.231487
       4A    -11.229780     5A    -11.226923     6A    -11.219242
       7A     -1.396623     8A     -1.085695     9A     -1.010012
      10A     -0.953321    11A     -0.835428    12A     -0.734320
      13A     -0.657047    14A     -0.655168    15A     -0.627484
      16A     -0.599035    17A     -0.577918    18A     -0.554383
      19A     -0.540394    20A     -0.522144    21A     -0.506119
      22A     -0.490774    23A     -0.470543    24A     -0.400210

  @DF-RHF Final Energy:  -270.12667299079669

   => Energetics <=

    Nuclear Repulsion Energy =            237.0384078616868635
    One-Electron Energy =                -835.5695874812984130
    Two-Electron Energy =                 328.4045066288151133
    DFT Exchange-Correlation Energy =       0.0000000000000000
    Empirical Dispersion Energy =           0.0000000000000000
    PCM Polarization Energy =               0.0000000000000000
    EFP Energy =                            0.0000000000000000
    Total Energy =                       -270.1266729907964077
    Molecular point group: c1
  Basis Set: CC-PVTZ
  Basis Set:

  -Total Gradient:
     Atom            X                  Y                   Z
    ------   -----------------  -----------------  -----------------
       1        0.000011636307    -0.000002936533    -0.000003404951
       2       -0.000012774516     0.000005911920    -0.000001526700
       3        0.000003176376     0.000001772888     0.000003253982
       4       -0.000002605420    -0.000000283005     0.000000142083
       5       -0.000002693269    -0.000007205577     0.000000050550
       6        0.000002579087     0.000001195892    -0.000002623931
       7       -0.000000698268     0.000000458219    -0.000001157274
       8        0.000005261738     0.000002655328     0.000001020872
       9        0.000000719081    -0.000000025719    -0.000000370317
      10       -0.000001674970    -0.000001103355     0.000002004042
      11       -0.000003063576     0.000001068188     0.000001106697
      12       -0.000000397660     0.000000561595    -0.000001993149
      13       -0.000001154483    -0.000001366320    -0.000000705238
      14        0.000000852166    -0.000000713263     0.000000228902
      15        0.000001170379    -0.000000173338     0.000002261914
      16       -0.000000332971     0.000000183081     0.000001712518

  **** Optimization is complete! (in 13 steps) ****
    Final optimized geometry and variables:
    Molecular point group: c1

    Geometry (in Angstrom), charge = 0, multiplicity = 1:

    O           -2.198623118262     0.214234399722    -0.078985517131
    C           -1.056337172623     0.154970503113    -0.400327253288
    C            0.003520123413    -0.095805991437     0.665284693706
    C           -0.649482817880     0.324747119971    -1.844906213983
    C            1.465742016614    -0.168989014138     0.234840154777
    H           -0.286849646681    -1.017253239337     1.159548077363
    H           -0.129493059587     0.687702355049     1.404273585451
    C            2.394071354294    -0.424495509306     1.418116287082
    H            1.600069145455    -0.958252334097    -0.497497210735
    H            1.758243113591     0.755819458554    -0.251436310732
    H            3.428018358341    -0.473789743834     1.098276472084
    H            2.153298696756    -1.361221648517     1.908884020525
    H            2.312339464180     0.365289268901     2.156925301460
    H            0.029697491434     1.162593395800    -1.952138547922
    H           -1.531231060489     0.492238608618    -2.443486176049
    H           -0.129491787400    -0.557832991432    -2.199081535166

  Mulliken Charges: (a.u.)
   Center  Symbol    Alpha    Beta     Spin     Total
       1     O     4.17705  4.17705  0.00000 -0.35411
       2     C     2.86119  2.86119  0.00000  0.27761
       3     C     3.09636  3.09636  0.00000 -0.19272
       4     C     3.16190  3.16190  0.00000 -0.32381
       5     C     3.09480  3.09480  0.00000 -0.18961
       6     H     0.43854  0.43854  0.00000  0.12292
       7     H     0.43854  0.43854  0.00000  0.12292
       8     C     3.14998  3.14998  0.00000 -0.29996
       9     H     0.45052  0.45052  0.00000  0.09895
      10     H     0.45053  0.45053  0.00000  0.09895
      11     H     0.44605  0.44605  0.00000  0.10790
      12     H     0.45293  0.45293  0.00000  0.09414
      13     H     0.45293  0.45293  0.00000  0.09413
      14     H     0.44832  0.44832  0.00000  0.10335
      15     H     0.43201  0.43201  0.00000  0.13598
      16     H     0.44832  0.44832  0.00000  0.10335

   Total alpha = 24.00000, Total beta = 24.00000, Total charge =  0.00000

*** Psi4 exiting successfully. Buy a developer a beer!
