                              Psi4 1.0.54 Driver

  ==> Input File <==

--------------------------------------------------------------------------
set {
	reference rhf
	basis cc-pvtz
}

set_num_threads( 4 )
memory 2 gb

molecule MOL {
0 1

H	 2.194984	 -0.895416	 -0.559596
O	 2.063695	 -0.083403	 -0.105237
C	 0.742924	 0.005675	 0.350750
H	 0.731380	 0.039219	 1.440080
C	 -0.064076	 -1.193495	 -0.124425
C	 -0.047832	 1.190568	 -0.194462
H	 0.194729	 -1.376165	 -1.161308
H	 0.163013	 -2.094508	 0.429933
C	 -1.533112	 -0.752002	 0.006102
H	 0.148003	 1.266545	 -1.259275
H	 0.226235	 2.136493	 0.259722
C	 -1.506634	 0.799189	 0.067162
H	 -2.124360	 -1.110499	 -0.826089
H	 -1.983103	 -1.158030	 0.903403
H	 -2.183808	 1.252169	 -0.644677
H	 -1.813926	 1.138698	 1.049457

	symmetry c1
}
set optking {
	frozen_dihedral = ("
		1 2 3 6
	")
}

ee,wfn = optimize('scf', return_wfn=True)
oeprop( wfn, 'DIPOLE', 'QUADRUPOLE', 'MULLIKEN_CHARGES')
f=open( 'psi4out.xyz', 'w' )
f.write( "16  " )
f.write( str(ee) + "\n" )
f.write( MOL.save_string_xyz() )
f.close()
--------------------------------------------------------------------------

    Molecular point group: c1
  Charge       = 0
  Multiplicity = 1
  Basis Set: CC-PVTZ
  Basis Set:
  @DF-RHF Final Energy:  -270.11319427700448
    Total Energy =                       -270.1131942770045953
    Molecular point group: c1
  Basis Set: CC-PVTZ
  Basis Set:
  Basis Set: CC-PVTZ
  Basis Set:
  @DF-RHF Final Energy:  -270.11331457622919
    Total Energy =                       -270.1133145762292997
  Basis Set: CC-PVTZ
  Basis Set:
  Basis Set: CC-PVTZ
  Basis Set:
  @DF-RHF Final Energy:  -270.11467926640489
    Total Energy =                       -270.1146792664048348
  Basis Set: CC-PVTZ
  Basis Set:
  Basis Set: CC-PVTZ
  Basis Set:
  @DF-RHF Final Energy:  -270.11470717451004
    Total Energy =                       -270.1147071745102721
  Basis Set: CC-PVTZ
  Basis Set:
  Basis Set: CC-PVTZ
  Basis Set:
  @DF-RHF Final Energy:  -270.11470981175182
    Total Energy =                       -270.1147098117519363
  Basis Set: CC-PVTZ
  Basis Set:
  Charge       = 0
  Multiplicity = 1
  Basis Set: CC-PVTZ
  Basis Set:

    Orbital Energies (a.u.)
    -----------------------

    Doubly Occupied:

       1A    -20.543349     2A    -11.267299     3A    -11.218746
       4A    -11.218142     5A    -11.214996     6A    -11.206976
       7A     -1.363878     8A     -1.117227     9A     -0.970001
      10A     -0.950075    11A     -0.800571    12A     -0.782881
      13A     -0.683405    14A     -0.667121    15A     -0.610818
      16A     -0.602559    17A     -0.577115    18A     -0.533715
      19A     -0.503321    20A     -0.485020    21A     -0.473509
      22A     -0.459297    23A     -0.449131    24A     -0.421628

  @DF-RHF Final Energy:  -270.11471001063921

   => Energetics <=

    Nuclear Repulsion Energy =            255.5775749205875798
    One-Electron Energy =                -873.1430100945735830
    Two-Electron Energy =                 347.4507251633469878
    DFT Exchange-Correlation Energy =       0.0000000000000000
    Empirical Dispersion Energy =           0.0000000000000000
    PCM Polarization Energy =               0.0000000000000000
    EFP Energy =                            0.0000000000000000
    Total Energy =                       -270.1147100106389871
    Molecular point group: c1
  Basis Set: CC-PVTZ
  Basis Set:

  -Total Gradient:
     Atom            X                  Y                   Z
    ------   -----------------  -----------------  -----------------
       1       -0.000030538154     0.000043041557    -0.000074025291
       2        0.000004695998    -0.000068535161     0.000078683879
       3        0.000020063130     0.000052056903     0.000039367719
       4        0.000009130965    -0.000001470764     0.000003079689
       5        0.000016238717    -0.000003125557    -0.000006088221
       6       -0.000014327019    -0.000029376735    -0.000033801168
       7        0.000002785803    -0.000007847430    -0.000000199445
       8        0.000005515612    -0.000000626265     0.000004141136
       9        0.000005175076     0.000006328882     0.000021778247
      10       -0.000000664014     0.000001110214    -0.000007977714
      11        0.000001609289     0.000005060333     0.000004284588
      12       -0.000001764681     0.000001508320    -0.000030194834
      13       -0.000001932130     0.000004489847    -0.000013351193
      14       -0.000014537083    -0.000002601429    -0.000003431326
      15       -0.000009999675    -0.000002562122     0.000004108892
      16        0.000008548163     0.000002549409     0.000013625042

  **** Optimization is complete! (in 6 steps) ****
    Final optimized geometry and variables:
    Molecular point group: c1

    Geometry (in Angstrom), charge = 0, multiplicity = 1:

    H            2.328943833600    -0.640326322739    -0.539438952273
    O            2.086847014578     0.058645506533     0.037923161218
    C            0.728324222954    -0.027093722982     0.373926467537
    H            0.663327812363    -0.140386215934     1.453608416089
    C           -0.034101249718    -1.168195965882    -0.292836648975
    C           -0.068692483546     1.202108255395    -0.041306721184
    H            0.247370180973    -1.202437332954    -1.342662418206
    H            0.192591350302    -2.136032967746     0.137846735068
    C           -1.516551890288    -0.776761438102    -0.152650642981
    H            0.160151559959     1.423546025253    -1.079160115127
    H            0.176178459095     2.080130546711     0.542242222136
    C           -1.525390141104     0.752689404412     0.115471422273
    H           -2.073731074970    -1.033133615648    -1.043955966312
    H           -1.980420822288    -1.309911960372     0.667392902933
    H           -2.191464491249     1.282867619827    -0.552056369239
    H           -1.870925060334     0.950371554585     1.123311542819

  Mulliken Charges: (a.u.)
   Center  Symbol    Alpha    Beta     Spin     Total
       1     H     0.39109  0.39109  0.00000  0.21782
       2     O     4.20857  4.20857  0.00000 -0.41713
       3     C     2.92423  2.92423  0.00000  0.15154
       4     H     0.45699  0.45699  0.00000  0.08602
       5     C     3.11858  3.11858  0.00000 -0.23715
       6     C     3.08989  3.08989  0.00000 -0.17979
       7     H     0.45818  0.45818  0.00000  0.08363
       8     H     0.44102  0.44102  0.00000  0.11796
       9     C     3.10925  3.10925  0.00000 -0.21850
      10     H     0.45865  0.45865  0.00000  0.08269
      11     H     0.44423  0.44423  0.00000  0.11154
      12     C     3.11470  3.11470  0.00000 -0.22940
      13     H     0.44504  0.44504  0.00000  0.10992
      14     H     0.44670  0.44670  0.00000  0.10659
      15     H     0.44333  0.44333  0.00000  0.11333
      16     H     0.44953  0.44953  0.00000  0.10093

   Total alpha = 24.00000, Total beta = 24.00000, Total charge = -0.00000

*** Psi4 exiting successfully. Buy a developer a beer!
