  ==> Input File <==

--------------------------------------------------------------------------
set {
	reference rhf
	basis 6-31G*
}

set_num_threads( 4 )
memory 2 gb

molecule MOL {
0 1

H	 -3.301617	 0.570527	 0.000000
C	 -2.250981	 0.344174	 0.000000
C	 -1.813665	 -0.976045	 0.000000
C	 -1.315303	 1.358057	 0.000000
H	 -2.528860	 -1.779366	 0.000000
C	 -0.467298	 -1.270142	 0.000000
H	 -1.635074	 2.385107	 0.000000
C	 0.047081	 1.078114	 0.000000
H	 -0.115948	 -2.285222	 0.000000
C	 0.472063	 -0.241155	 0.000000
H	 0.749976	 1.888426	 0.000000
O	 1.765256	 -0.628444	 0.000000
C	 2.369723	 -1.029492	 1.195346
H	 2.375240	 -0.227628	 1.926315
H	 3.387983	 -1.288697	 0.946809
H	 1.875167	 -1.897416	 1.618966

	symmetry c1
}
set optking {
	frozen_dihedral = ("
		13 12 10 8
	")
}

ee = optimize('scf')
oeprop('DIPOLE', 'QUADRUPOLE', 'MULLIKEN_CHARGES')
f=open( 'psi4out.xyz', 'w' )
f.write( "16  " )
f.write( str(ee) + "\n" )
f.write( MOL.save_string_xyz() )
f.close()
--------------------------------------------------------------------------

    Molecular point group: c1
  Charge       = 0
  Multiplicity = 1
  Basis Set: 6-31G*
  Basis Set:
  @DF-RHF Final Energy:  -344.57772333534513
    Total Energy =                       -344.5777233353451834
    Molecular point group: c1
  Basis Set: 6-31G*
  Basis Set:
  Basis Set: 6-31G*
  Basis Set:
  @DF-RHF Final Energy:  -344.58028879179818
    Total Energy =                       -344.5802887917978978
  Basis Set: 6-31G*
  Basis Set:
  Basis Set: 6-31G*
  Basis Set:
  @DF-RHF Final Energy:  -344.58050790602948
    Total Energy =                       -344.5805079060293110
  Basis Set: 6-31G*
  Basis Set:
  Basis Set: 6-31G*
  Basis Set:
  @DF-RHF Final Energy:  -344.58054165026863
    Total Energy =                       -344.5805416502687422
  Basis Set: 6-31G*
  Basis Set:
  Charge       = 0
  Multiplicity = 1
  Basis Set: 6-31G*
  Basis Set:

    Orbital Energies (a.u.)
    -----------------------

    Doubly Occupied:

       1A    -20.571594     2A    -11.285454     3A    -11.275095
       4A    -11.233553     5A    -11.233185     6A    -11.226468
       7A    -11.226096     8A    -11.225085     9A     -1.399970
      10A     -1.147702    11A     -1.017069    12A     -1.014903
      13A     -0.932877    14A     -0.834756    15A     -0.806368
      16A     -0.713662    17A     -0.666300    18A     -0.662783
      19A     -0.634553    20A     -0.611524    21A     -0.598318
      22A     -0.585503    23A     -0.530205    24A     -0.505321
      25A     -0.504497    26A     -0.483516    27A     -0.435850
      28A     -0.335225    29A     -0.321287

  @DF-RHF Final Energy:  -344.58054641011108

   => Energetics <=

    Nuclear Repulsion Energy =            348.0944833581720559
    One-Electron Energy =               -1157.3126217031244778
    Two-Electron Energy =                 464.6375919348417938
    DFT Exchange-Correlation Energy =       0.0000000000000000
    Empirical Dispersion Energy =           0.0000000000000000
    PCM Polarization Energy =               0.0000000000000000
    EFP Energy =                            0.0000000000000000
    Total Energy =                       -344.5805464101106281
    Molecular point group: c1
  Basis Set: 6-31G*
  Basis Set:

  -Total Gradient:
     Atom            X                  Y                   Z
    ------   -----------------  -----------------  -----------------
       1       -0.000034754238    -0.000091713940    -0.000002248621
       2        0.000100471715     0.000238404633    -0.000078990644
       3        0.000215735678    -0.000128602156     0.000064995855
       4       -0.000283710957    -0.000062964401     0.000080332541
       5       -0.000055777003     0.000027682184    -0.000011626623
       6       -0.000147878898    -0.000157360286    -0.000013901211
       7        0.000035059399    -0.000037600453    -0.000008998674
       8        0.000154798809    -0.000120362573    -0.000254691273
       9       -0.000039601841     0.000020467246    -0.000012363203
      10       -0.000238335071     0.000425846590     0.000379736991
      11        0.000042155075    -0.000050374508    -0.000019270000
      12        0.000250312197     0.000145899615    -0.000192953799
      13       -0.000005544095    -0.000201287115     0.000143287062
      14        0.000002722477    -0.000003170442    -0.000008283025
      15        0.000008877724    -0.000010487612    -0.000010038020
      16       -0.000004530982     0.000005623219    -0.000054987355

  **** Optimization is complete! (in 5 steps) ****
    Final optimized geometry and variables:
    Molecular point group: c1

    Geometry (in Angstrom), charge = 0, multiplicity = 1:

    H           -3.225688279835     0.805249918193    -0.149680377335
    C           -2.180262281985     0.554458375198    -0.154753397383
    C           -1.782813602627    -0.773724317795    -0.176982923618
    C           -1.222131943638     1.554953729209    -0.146764336626
    H           -2.521226487749    -1.555531242969    -0.192711975735
    C           -0.437772863397    -1.102347414385    -0.188014018068
    H           -1.521937082126     2.587682836490    -0.136834015159
    C            0.126176091449     1.233815788745    -0.154662862725
    H           -0.119778643124    -2.128636127233    -0.222559714311
    C            0.514880384049    -0.094989925557    -0.172769343462
    H            0.881014243229     1.998838278915    -0.158185141684
    O            1.842377579838    -0.403656146407    -0.213443697596
    C            2.421316422364    -0.761814917038     1.015853015332
    H            2.346092201591     0.049731204961     1.732816268348
    H            3.462790468782    -0.973773863357     0.821232713805
    H            1.947582733465    -1.644593620251     1.432596037105

  Mulliken Charges: (a.u.)
   Center  Symbol    Alpha    Beta     Spin     Total
       1     H     0.39985  0.39985  0.00000  0.20029
       2     C     3.10571  3.10571  0.00000 -0.21143
       3     C     3.09687  3.09687  0.00000 -0.19374
       4     C     3.09702  3.09702  0.00000 -0.19405
       5     H     0.39843  0.39843  0.00000  0.20314
       6     C     3.12062  3.12062  0.00000 -0.24125
       7     H     0.39831  0.39831  0.00000  0.20338
       8     C     3.12023  3.12023  0.00000 -0.24045
       9     H     0.39539  0.39539  0.00000  0.20922
      10     C     2.80249  2.80249  0.00000  0.39501
      11     H     0.39416  0.39416  0.00000  0.21167
      12     O     4.33214  4.33214  0.00000 -0.66428
      13     C     3.08221  3.08221  0.00000 -0.16443
      14     H     0.42261  0.42261  0.00000  0.15478
      15     H     0.41024  0.41024  0.00000  0.17952
      16     H     0.42369  0.42369  0.00000  0.15261

   Total alpha = 29.00000, Total beta = 29.00000, Total charge =  0.00000
