  ==> Input File <==

--------------------------------------------------------------------------
set {
	reference rhf
	basis 6-31G*
}

set_num_threads( 4 )
memory 2 gb

molecule MOL {
0 1

H	 -2.211281	 0.871627	 2.256625
C	 -1.621773	 0.445478	 3.065957
O	 -0.386688	 -0.006578	 2.612583
H	 -1.436936	 1.212179	 3.805651
H	 -2.197337	 -0.356178	 3.526937
C	 -0.464942	 -1.010795	 1.650983
C	 0.924820	 -1.340513	 1.158994
H	 -0.916621	 -1.907657	 2.076799
H	 -1.077478	 -0.693907	 0.809327
O	 1.392611	 -0.295398	 0.366430
H	 1.579018	 -1.501047	 2.013547
H	 0.890922	 -2.266049	 0.582863
C	 2.706965	 -0.449871	 -0.062409
H	 2.756559	 -0.644779	 -1.131878
H	 3.305899	 0.433456	 0.155466
H	 3.125548	 -1.294566	 0.467107

	symmetry c1
}
set optking {
	frozen_dihedral = ("
		7 10 13 14
	")
}

ee = optimize('scf')
oeprop('DIPOLE', 'QUADRUPOLE', 'MULLIKEN_CHARGES')
f=open( 'psi4out.xyz', 'w' )
f.write( "16  " )
f.write( str(ee) + "\n" )
f.write( MOL.save_string_xyz() )
f.close()
--------------------------------------------------------------------------

    Molecular point group: c1
  Charge       = 0
  Multiplicity = 1
  Basis Set: 6-31G*
  Basis Set:
  @DF-RHF Final Energy:  -306.97264515425599
    Total Energy =                       -306.9726451542559289
    Molecular point group: c1
  Basis Set: 6-31G*
  Basis Set:
  Basis Set: 6-31G*
  Basis Set:
  @DF-RHF Final Energy:  -306.97368045800766
    Total Energy =                       -306.9736804580074363
  Basis Set: 6-31G*
  Basis Set:
  Basis Set: 6-31G*
  Basis Set:
  @DF-RHF Final Energy:  -306.97404611658476
    Total Energy =                       -306.9740461165848160
  Basis Set: 6-31G*
  Basis Set:
  Basis Set: 6-31G*
  Basis Set:
  @DF-RHF Final Energy:  -306.97405026617616
    Total Energy =                       -306.9740502661761639
  Basis Set: 6-31G*
  Basis Set:
  Charge       = 0
  Multiplicity = 1
  Basis Set: 6-31G*
  Basis Set:

    Orbital Energies (a.u.)
    -----------------------

    Doubly Occupied:

       1A    -20.553130     2A    -20.549772     3A    -11.269287
       4A    -11.268028     5A    -11.263237     6A    -11.262915
       7A     -1.385911     8A     -1.367418     9A     -1.030483
      10A     -0.936204    11A     -0.891836    12A     -0.823493
      13A     -0.682369    14A     -0.678744    15A     -0.656120
      16A     -0.633967    17A     -0.627776    18A     -0.596199
      19A     -0.553888    20A     -0.537012    21A     -0.508346
      22A     -0.476871    23A     -0.461470    24A     -0.417428
      25A     -0.406775

  @DF-RHF Final Energy:  -306.97405057152588

   => Energetics <=

    Nuclear Repulsion Energy =            258.5647216018150516
    One-Electron Energy =                -931.4001867755758894
    Two-Electron Energy =                 365.8614146022351292
    DFT Exchange-Correlation Energy =       0.0000000000000000
    Empirical Dispersion Energy =           0.0000000000000000
    PCM Polarization Energy =               0.0000000000000000
    EFP Energy =                            0.0000000000000000
    Total Energy =                       -306.9740505715257655
    Molecular point group: c1
  Basis Set: 6-31G*
  Basis Set:

  -Total Gradient:
     Atom            X                  Y                   Z
    ------   -----------------  -----------------  -----------------
       1       -0.000000100019    -0.000000459666    -0.000000321505
       2        0.000001088835     0.000001458781     0.000002955483
       3        0.000002411638    -0.000006125509    -0.000003372318
       4       -0.000001950060     0.000000750780     0.000000328352
       5        0.000000180310    -0.000000133286    -0.000000792493
       6       -0.000004054232    -0.000004614180     0.000003374163
       7        0.000409422315     0.000631658280     0.001133241136
       8       -0.000003189951    -0.000001462464     0.000001588584
       9        0.000004151387    -0.000003309862    -0.000002871477
      10       -0.000587958752    -0.000458781557    -0.001685121462
      11        0.000001675158    -0.000002397193     0.000002221152
      12       -0.000000013726     0.000008112249    -0.000002571442
      13        0.000088312450    -0.001796015269     0.000826108071
      14        0.000072077409     0.001632706611    -0.000272055673
      15        0.000013075465    -0.000002820347    -0.000001590718
      16        0.000004871770     0.000001432631    -0.000001119853

  **** Optimization is complete! (in 5 steps) ****
    Final optimized geometry and variables:
    Molecular point group: c1

    Geometry (in Angstrom), charge = 0, multiplicity = 1:

    H           -2.619482091830     1.338889663914     0.781402291525
    C           -2.040034402833     0.902936233586     1.592782988493
    O           -0.811116479912     0.430139292866     1.143874667025
    H           -1.845253330608     1.666399588429     2.333288482181
    H           -2.630448316503     0.110816546979     2.051375167747
    C           -0.902800717035    -0.572864330644     0.182101306700
    C            0.482546041042    -0.925090561188    -0.306866086791
    H           -1.369346215784    -1.462583407178     0.607089060995
    H           -1.508696006158    -0.246632877911    -0.660658651081
    O            0.967723881253     0.118721472936    -1.092196940023
    H            1.129099610551    -1.098809283424     0.549818252259
    H            0.430842335563    -1.848781880912    -0.884112970984
    C            2.290638145367    -0.001880557047    -1.524008417139
    H            2.322544210363    -0.183236480543    -2.594311522093
    H            2.810857053725     0.926792022752    -1.320383003333
    H            2.814414244934    -0.806495845895    -1.017004312940

  Mulliken Charges: (a.u.)
   Center  Symbol    Alpha    Beta     Spin     Total
       1     H     0.42808  0.42808  0.00000  0.14383
       2     C     3.07941  3.07941  0.00000 -0.15883
       3     O     4.30086  4.30086  0.00000 -0.60173
       4     H     0.41142  0.41142  0.00000  0.17716
       5     H     0.43198  0.43198  0.00000  0.13603
       6     C     2.99358  2.99358  0.00000  0.01284
       7     C     2.99293  2.99293  0.00000  0.01415
       8     H     0.43249  0.43249  0.00000  0.13503
       9     H     0.42277  0.42277  0.00000  0.15446
      10     O     4.30569  4.30569  0.00000 -0.61137
      11     H     0.42224  0.42224  0.00000  0.15552
      12     H     0.43253  0.43253  0.00000  0.13495
      13     C     3.07591  3.07591  0.00000 -0.15181
      14     H     0.42384  0.42384  0.00000  0.15231
      15     H     0.41624  0.41624  0.00000  0.16752
      16     H     0.43003  0.43003  0.00000  0.13994

   Total alpha = 25.00000, Total beta = 25.00000, Total charge =  0.00000
