  ==> Input File <==

--------------------------------------------------------------------------
set {
	reference rhf
	basis 6-31G*
}

set_num_threads( 1 )
memory 2 gb

molecule MOL {
0 1

H	 -3.261111	 -0.295142	 1.469456
C	 -3.306842	 -0.277400	 0.373456
C	 -2.660244	 0.921717	 -0.272021
O	 -3.838538	 -1.161155	 -0.216482
C	 -1.220012	 1.144545	 0.209990
H	 -2.705793	 0.797307	 -1.347733
H	 -3.263782	 1.790044	 -0.010477
C	 -0.252658	 0.041456	 -0.226725
H	 -0.873521	 2.100229	 -0.171974
H	 -1.211708	 1.231594	 1.295398
C	 1.180775	 0.282413	 0.250794
H	 -0.266029	 -0.034465	 -1.312038
H	 -0.597733	 -0.921000	 0.146291
C	 2.148627	 -0.814315	 -0.201312
H	 1.516199	 1.249228	 -0.115937
H	 1.192670	 0.346017	 1.338083
C	 3.580890	 -0.659131	 0.322722
H	 2.166869	 -0.852443	 -1.289387
H	 1.762857	 -1.776509	 0.128956
C	 4.387242	 -1.958280	 0.363082
H	 3.535616	 -0.246472	 1.327516
H	 4.108355	 0.075197	 -0.282641
H	 3.875307	 -2.717215	 0.948921
H	 4.555084	 -2.363556	 -0.629165
H	 5.360456	 -1.793397	 0.815481

	symmetry c1
}
set optking {
	frozen_dihedral = ("
		6 3 5 8,
		6 3 2 4,
		3 5 8 12,
		12 8 11 14,
		8 11 14 18
	")
}

ee = energy('scf')
oeprop('DIPOLE', 'QUADRUPOLE', 'MULLIKEN_CHARGES')
f=open( 'psi4out.xyz', 'w' )
f.write( "25  " )
f.write( str(ee) + "\n" )
f.write( MOL.save_string_xyz() )
f.close()
--------------------------------------------------------------------------

    Molecular point group: c1

    Geometry (in Angstrom), charge = 0, multiplicity = 1:

       Center              X                  Y                   Z               Mass
    ------------   -----------------  -----------------  -----------------  -----------------
           H         -3.268247689028     0.000188565128     1.401503730544     1.007825032070
           C         -3.313978689028     0.017930565128     0.305503730544    12.000000000000
           C         -2.667380689028     1.217047565128    -0.339973269456    12.000000000000
           O         -3.845674689028    -0.865824434872    -0.284434269456    15.994914619560
           C         -1.227148689028     1.439875565128     0.142037730544    12.000000000000
           H         -2.712929689028     1.092637565128    -1.415685269456     1.007825032070
           H         -3.270918689028     2.085374565128    -0.078429269456     1.007825032070
           C         -0.259794689028     0.336786565128    -0.294677269456    12.000000000000
           H         -0.880657689028     2.395559565128    -0.239926269456     1.007825032070
           H         -1.218844689028     1.526924565128     1.227445730544     1.007825032070
           C          1.173638310972     0.577743565128     0.182841730544    12.000000000000
           H         -0.273165689028     0.260865565128    -1.379990269456     1.007825032070
           H         -0.604869689028    -0.625669434872     0.078338730544     1.007825032070
           C          2.141490310972    -0.518984434872    -0.269264269456    12.000000000000
           H          1.509062310972     1.544558565128    -0.183889269456     1.007825032070
           H          1.185533310972     0.641347565128     1.270130730544     1.007825032070
           C          3.573753310972    -0.363800434872     0.254769730544    12.000000000000
           H          2.159732310972    -0.557112434872    -1.357339269456     1.007825032070
           H          1.755720310972    -1.481178434872     0.061003730544     1.007825032070
           C          4.380105310972    -1.662949434872     0.295129730544    12.000000000000
           H          3.528479310972     0.048858565128     1.259563730544     1.007825032070
           H          4.101218310972     0.370527565128    -0.350593269456     1.007825032070
           H          3.868170310972    -2.421884434872     0.880968730544     1.007825032070
           H          4.547947310972    -2.068225434872    -0.697117269456     1.007825032070
           H          5.353319310972    -1.498066434872     0.747528730544     1.007825032070

  Charge       = 0
  Multiplicity = 1
  Basis Set: 6-31G*
  Basis Set:

    Orbital Energies (a.u.)
    -----------------------

    Doubly Occupied:

       1A    -20.562106     2A    -11.326222     3A    -11.235488
       4A    -11.234759     5A    -11.224082     6A    -11.220838
       7A    -11.217447     8A    -11.216489     9A    -11.210704
      10A     -1.402072    11A     -1.103834    12A     -1.069037
      13A     -1.015284    14A     -0.943712    15A     -0.869092
      16A     -0.815173    17A     -0.793332    18A     -0.786939
      19A     -0.665007    20A     -0.664125    21A     -0.638346
      22A     -0.616618    23A     -0.603673    24A     -0.593831
      25A     -0.567198    26A     -0.551001    27A     -0.541569
      28A     -0.521469    29A     -0.506575    30A     -0.499073
      31A     -0.488679    32A     -0.477342    33A     -0.463739
      34A     -0.463038    35A     -0.441861    36A     -0.409645

  @DF-RHF Final Energy:  -387.12145145599197

   => Energetics <=

    Nuclear Repulsion Energy =            435.3783976777585849
    One-Electron Energy =               -1387.0812494051654085
    Two-Electron Energy =                 564.5814002714140543
    DFT Exchange-Correlation Energy =       0.0000000000000000
    Empirical Dispersion Energy =           0.0000000000000000
    PCM Polarization Energy =               0.0000000000000000
    EFP Energy =                            0.0000000000000000
    Total Energy =                       -387.1214514559927693

  Mulliken Charges: (a.u.)
   Center  Symbol    Alpha    Beta     Spin     Total
       1     H     0.43259  0.43259  0.00000  0.13482
       2     C     2.83087  2.83087  0.00000  0.33825
       3     C     3.20809  3.20809  0.00000 -0.41619
       4     O     4.23772  4.23772  0.00000 -0.47544
       5     C     3.16666  3.16666  0.00000 -0.33331
       6     H     0.39967  0.39967  0.00000  0.20067
       7     H     0.40665  0.40665  0.00000  0.18671
       8     C     3.15548  3.15548  0.00000 -0.31096
       9     H     0.41276  0.41276  0.00000  0.17448
      10     H     0.41958  0.41958  0.00000  0.16083
      11     C     3.15305  3.15305  0.00000 -0.30610
      12     H     0.41788  0.41788  0.00000  0.16423
      13     H     0.41816  0.41816  0.00000  0.16369
      14     C     3.15225  3.15225  0.00000 -0.30450
      15     H     0.42243  0.42243  0.00000  0.15515
      16     H     0.42319  0.42319  0.00000  0.15362
      17     C     3.15248  3.15248  0.00000 -0.30495
      18     H     0.42167  0.42167  0.00000  0.15665
      19     H     0.42260  0.42260  0.00000  0.15479
      20     C     3.23961  3.23961  0.00000 -0.47923
      21     H     0.42346  0.42346  0.00000  0.15308
      22     H     0.42188  0.42188  0.00000  0.15623
      23     H     0.42136  0.42136  0.00000  0.15727
      24     H     0.42065  0.42065  0.00000  0.15871
      25     H     0.41925  0.41925  0.00000  0.16150

   Total alpha = 36.00000, Total beta = 36.00000, Total charge =  0.00000
