  ==> Input File <==

--------------------------------------------------------------------------
set {
	reference rhf
	basis 6-31G*
}

set_num_threads( 1 )
memory 2 gb

molecule MOL {
0 1

H	 -3.831552	 0.191734	 -1.481867
C	 -3.160696	 -0.476911	 -0.978352
C	 -2.076860	 -0.007332	 -0.404944
H	 -3.398559	 -1.523770	 -0.957910
O	 -1.180634	 -0.819263	 0.215062
H	 -1.824286	 1.038322	 -0.407933
C	 0.051604	 -1.018856	 -0.387932
C	 1.043764	 0.054862	 -0.001873
H	 -0.017620	 -1.041351	 -1.469781
H	 0.437898	 -1.966374	 -0.042284
F	 2.212596	 -0.199467	 -0.571921
F	 0.652529	 1.252447	 -0.405055
F	 1.230877	 0.110694	 1.300533

	symmetry c1
}
set optking {
	frozen_dihedral = ("
		11 8 7 9,
		3 5 7 9,
		6 3 2 1
	")
}

ee = energy('scf')
oeprop('DIPOLE', 'QUADRUPOLE', 'MULLIKEN_CHARGES')
f=open( 'psi4out.xyz', 'w' )
f.write( "13  " )
f.write( str(ee) + "\n" )
f.write( MOL.save_string_xyz() )
f.close()
--------------------------------------------------------------------------

    Molecular point group: c1

    Geometry (in Angstrom), charge = 0, multiplicity = 1:

       Center              X                  Y                   Z               Mass
    ------------   -----------------  -----------------  -----------------  -----------------
           H         -3.835721034725     0.284587133535    -1.354244739538     1.007825032070
           C         -3.164865034725    -0.384057866465    -0.850729739538    12.000000000000
           C         -2.081029034725     0.085521133535    -0.277321739538    12.000000000000
           H         -3.402728034725    -1.430916866465    -0.830287739538     1.007825032070
           O         -1.184803034725    -0.726409866465     0.342684260462    15.994914619560
           H         -1.828455034725     1.131175133535    -0.280310739538     1.007825032070
           C          0.047434965275    -0.926002866465    -0.260309739538    12.000000000000
           C          1.039594965275     0.147715133535     0.125749260462    12.000000000000
           H         -0.021789034725    -0.948497866465    -1.342158739538     1.007825032070
           H          0.433728965275    -1.873520866465     0.085338260462     1.007825032070
           F          2.208426965275    -0.106613866465    -0.444298739538    18.998403224000
           F          0.648359965275     1.345300133535    -0.277432739538    18.998403224000
           F          1.226707965275     0.203547133535     1.428155260462    18.998403224000

  Charge       = 0
  Multiplicity = 1
  Basis Set: 6-31G*
  Basis Set:

    Orbital Energies (a.u.)
    -----------------------

    Doubly Occupied:

       1A    -26.344935     2A    -26.343196     3A    -26.339992
       4A    -20.598089     5A    -11.501606     6A    -11.314224
       7A    -11.294084     8A    -11.226811     9A     -1.741532
      10A     -1.640008    11A     -1.637872    12A     -1.431494
      13A     -1.081205    14A     -1.017735    15A     -0.926072
      16A     -0.835502    17A     -0.830642    18A     -0.828218
      19A     -0.770004    20A     -0.722138    21A     -0.712944
      22A     -0.702645    23A     -0.675123    24A     -0.657862
      25A     -0.652704    26A     -0.643141    27A     -0.639750
      28A     -0.594464    29A     -0.567389    30A     -0.527643
      31A     -0.465383    32A     -0.373137

  @DF-RHF Final Energy:  -527.53323190501487

   => Energetics <=

    Nuclear Repulsion Energy =            413.3427002082033255
    One-Electron Energy =               -1550.4768410606407087
    Two-Electron Energy =                 609.6009089474223401
    DFT Exchange-Correlation Energy =       0.0000000000000000
    Empirical Dispersion Energy =           0.0000000000000000
    PCM Polarization Energy =               0.0000000000000000
    EFP Energy =                            0.0000000000000000
    Total Energy =                       -527.5332319050151000

  Mulliken Charges: (a.u.)
   Center  Symbol    Alpha    Beta     Spin     Total
       1     H     0.40587  0.40587  0.00000  0.18826
       2     C     3.21550  3.21550  0.00000 -0.43099
       3     C     2.91863  2.91863  0.00000  0.16275
       4     H     0.40240  0.40240  0.00000  0.19521
       5     O     4.30841  4.30841  0.00000 -0.61681
       6     H     0.39998  0.39998  0.00000  0.20003
       7     C     3.05376  3.05376  0.00000 -0.10753
       8     C     2.46009  2.46009  0.00000  1.07983
       9     H     0.40456  0.40456  0.00000  0.19088
      10     H     0.39256  0.39256  0.00000  0.21488
      11     F     4.68280  4.68280  0.00000 -0.36559
      12     F     4.68053  4.68053  0.00000 -0.36105
      13     F     4.67493  4.67493  0.00000 -0.34987

   Total alpha = 32.00000, Total beta = 32.00000, Total charge = -0.00000
