  ==> Input File <==

--------------------------------------------------------------------------
set {
	reference rhf
	basis 6-31G*
}

set_num_threads( 4 )
memory 2 gb

molecule MOL {
0 1

H	 2.019191	 -0.825744	 1.094065
C	 1.960014	 -0.228459	 0.176160
C	 0.698378	 0.580260	 0.017456
O	 2.852511	 -0.249603	 -0.608142
C	 -0.558097	 -0.297372	 0.091132
H	 0.753088	 1.114059	 -0.924110
H	 0.672175	 1.315682	 0.820760
C	 -1.850991	 0.512573	 -0.019058
H	 -0.526138	 -1.036733	 -0.705798
H	 -0.560342	 -0.852598	 1.027389
C	 -3.096943	 -0.368295	 -0.099594
H	 -1.800724	 1.150330	 -0.898172
H	 -1.931651	 1.177355	 0.838044
H	 -3.060452	 -1.020287	 -0.967456
H	 -3.996858	 0.233488	 -0.175704
H	 -3.191959	 -0.995686	 0.782074

	symmetry c1
}
set optking {
	frozen_dihedral = ("
		9 5 8 12
	")
}

ee = optimize('scf')
oeprop('DIPOLE', 'QUADRUPOLE', 'MULLIKEN_CHARGES')
f=open( 'psi4out.xyz', 'w' )
f.write( "16  " )
f.write( str(ee) + "\n" )
f.write( MOL.save_string_xyz() )
f.close()
--------------------------------------------------------------------------

    Molecular point group: c1
  Charge       = 0
  Multiplicity = 1
  Basis Set: 6-31G*
  Basis Set:
  @DF-RHF Final Energy:  -270.01978257772902
    Total Energy =                       -270.0197825777289609
    Molecular point group: c1
  Basis Set: 6-31G*
  Basis Set:
  Basis Set: 6-31G*
  Basis Set:
  @DF-RHF Final Energy:  -270.01963954296332
    Total Energy =                       -270.0196395429633185
  Basis Set: 6-31G*
  Basis Set:
  Basis Set: 6-31G*
  Basis Set:
  @DF-RHF Final Energy:  -270.01955555213630
    Total Energy =                       -270.0195555521364099
  Basis Set: 6-31G*
  Basis Set:
  Basis Set: 6-31G*
  Basis Set:
  @DF-RHF Final Energy:  -270.01979730454741
    Total Energy =                       -270.0197973045472963
  Basis Set: 6-31G*
  Basis Set:
  Basis Set: 6-31G*
  Basis Set:
  @DF-RHF Final Energy:  -270.01980420573835
    Total Energy =                       -270.0198042057384100
  Basis Set: 6-31G*
  Basis Set:
  Basis Set: 6-31G*
  Basis Set:
  @DF-RHF Final Energy:  -270.01980555479918
    Total Energy =                       -270.0198055547991771
  Basis Set: 6-31G*
  Basis Set:
  Basis Set: 6-31G*
  Basis Set:
  @DF-RHF Final Energy:  -270.01980905955617
    Total Energy =                       -270.0198090595561666
  Basis Set: 6-31G*
  Basis Set:
  Charge       = 0
  Multiplicity = 1
  Basis Set: 6-31G*
  Basis Set:

    Orbital Energies (a.u.)
    -----------------------

    Doubly Occupied:

       1A    -20.562522     2A    -11.326605     3A    -11.236628
       4A    -11.235372     5A    -11.229377     6A    -11.218548
       7A     -1.402328     8A     -1.096570     9A     -1.019017
      10A     -0.906090    11A     -0.812334    12A     -0.793799
      13A     -0.677362    14A     -0.648041    15A     -0.629968
      16A     -0.602340    17A     -0.582623    18A     -0.551096
      19A     -0.526714    20A     -0.509638    21A     -0.488063
      22A     -0.481562    23A     -0.478487    24A     -0.409138

  @DF-RHF Final Energy:  -270.01980907938503

   => Energetics <=

    Nuclear Repulsion Energy =            228.8274127623124912
    One-Electron Energy =                -818.8460023530401486
    Two-Electron Energy =                 319.9987805113426020
    DFT Exchange-Correlation Energy =       0.0000000000000000
    Empirical Dispersion Energy =           0.0000000000000000
    PCM Polarization Energy =               0.0000000000000000
    EFP Energy =                            0.0000000000000000
    Total Energy =                       -270.0198090793850270
    Molecular point group: c1
  Basis Set: 6-31G*
  Basis Set:

  -Total Gradient:
     Atom            X                  Y                   Z
    ------   -----------------  -----------------  -----------------
       1       -0.000002290913    -0.000006179167    -0.000003671861
       2        0.000008778600     0.000022759284     0.000013280473
       3        0.000012494257     0.000005648610     0.000017160954
       4       -0.000004701140    -0.000008546317    -0.000004553128
       5        0.000791750110     0.001171002508    -0.000746142213
       6       -0.000005459777    -0.000005134720     0.000002266394
       7        0.000007795647     0.000003874521     0.000001328840
       8       -0.000738054180    -0.001251511248    -0.000649300883
       9       -0.000550969321    -0.000797585520     0.000708739421
      10       -0.000001258356     0.000006005146    -0.000010947433
      11       -0.000008457906    -0.000003722153     0.000012306549
      12        0.000492343851     0.000866721800     0.000661850665
      13        0.000000934132    -0.000001151798    -0.000006645541
      14        0.000005114221     0.000001734049     0.000003447705
      15       -0.000000925420    -0.000000417296    -0.000001238812
      16       -0.000007093813    -0.000003497699     0.000002118871

  **** Optimization is complete! (in 8 steps) ****
    Final optimized geometry and variables:
    Molecular point group: c1

    Geometry (in Angstrom), charge = 0, multiplicity = 1:

    H            2.008861467613    -0.806876543493     1.185024854943
    C            1.961226885563    -0.210609268416     0.265935005336
    C            0.700654025463     0.595689666341     0.088823267655
    O            2.863228997458    -0.233003040477    -0.507378907873
    C           -0.555248962806    -0.282820775555     0.149034995764
    H            0.766465374645     1.126874268208    -0.853391242464
    H            0.663335342426     1.333386241529     0.889694758841
    C           -1.849760637005     0.526388637906     0.049492723892
    H           -0.523732801566    -1.019363369392    -0.650636590740
    H           -0.559743833783    -0.847375940366     1.079887840088
    C           -3.097201151647    -0.352752858764    -0.014637142446
    H           -1.807006012279     1.169420782435    -0.826282862185
    H           -1.918958535629     1.191673700611     0.907506066380
    H           -3.077048486941    -0.998829469446    -0.887338981159
    H           -3.997809656390     0.250216595435    -0.069846290554
    H           -3.176564026634    -0.986238207424     0.864254330588

  Mulliken Charges: (a.u.)
   Center  Symbol    Alpha    Beta     Spin     Total
       1     H     0.43202  0.43202  0.00000  0.13595
       2     C     2.82978  2.82978  0.00000  0.34045
       3     C     3.20801  3.20801  0.00000 -0.41602
       4     O     4.23712  4.23712  0.00000 -0.47423
       5     C     3.16450  3.16450  0.00000 -0.32900
       6     H     0.39917  0.39917  0.00000  0.20166
       7     H     0.40975  0.40975  0.00000  0.18051
       8     C     3.15159  3.15159  0.00000 -0.30318
       9     H     0.41285  0.41285  0.00000  0.17430
      10     H     0.41934  0.41934  0.00000  0.16132
      11     C     3.24050  3.24050  0.00000 -0.48101
      12     H     0.41856  0.41856  0.00000  0.16289
      13     H     0.42085  0.42085  0.00000  0.15829
      14     H     0.41910  0.41910  0.00000  0.16179
      15     H     0.41638  0.41638  0.00000  0.16724
      16     H     0.42047  0.42047  0.00000  0.15905

   Total alpha = 24.00000, Total beta = 24.00000, Total charge = -0.00000
