  ==> Input File <==

--------------------------------------------------------------------------
set {
	reference rhf
	basis 6-31G*
}

set_num_threads( 4 )
memory 2 gb

molecule MOL {
0 1

H	 -1.453691	 -0.333124	 -0.438706
N	 -0.626943	 -0.667432	 -0.000092
C	 -0.656325	 -1.980295	 0.603434
C	 0.469286	 0.129090	 0.000148
H	 -1.403361	 -2.030242	 1.388576
H	 0.313698	 -2.176658	 1.030312
H	 -0.876751	 -2.743260	 -0.135707
C	 1.788933	 -0.616240	 -0.000037
O	 0.411098	 1.327768	 -0.000049
H	 1.872803	 -1.245775	 -0.880381
H	 2.595421	 0.101576	 0.003713
H	 1.870096	 -1.252171	 0.875943

	symmetry c1
}
set optking {
	frozen_dihedral = ("
		3 2 4 9
	")
}

ee = optimize('scf')
oeprop('DIPOLE', 'QUADRUPOLE', 'MULLIKEN_CHARGES')
f=open( 'psi4out.xyz', 'w' )
f.write( "12  " )
f.write( str(ee) + "\n" )
f.write( MOL.save_string_xyz() )
f.close()
--------------------------------------------------------------------------

    Molecular point group: c1
  Charge       = 0
  Multiplicity = 1
  Basis Set: 6-31G*
  Basis Set:
  @DF-RHF Final Energy:  -246.98775317588078
    Total Energy =                       -246.9877531758808118
    Molecular point group: c1
  Basis Set: 6-31G*
  Basis Set:
  Basis Set: 6-31G*
  Basis Set:
  @DF-RHF Final Energy:  -246.99207193555699
    Total Energy =                       -246.9920719355567371
  Basis Set: 6-31G*
  Basis Set:
  Basis Set: 6-31G*
  Basis Set:
  @DF-RHF Final Energy:  -246.99502016369408
    Total Energy =                       -246.9950201636941642
  Basis Set: 6-31G*
  Basis Set:
  Basis Set: 6-31G*
  Basis Set:
  @DF-RHF Final Energy:  -246.99779474764856
    Total Energy =                       -246.9977947476486975
  Basis Set: 6-31G*
  Basis Set:
  @DF-RHF Final Energy:  -246.99879102508262
    Total Energy =                       -246.9987910250824825
  @DF-RHF Final Energy:  -246.99945011673347
    Total Energy =                       -246.9994501167334420
  @DF-RHF Final Energy:  -246.99962679707039
    Total Energy =                       -246.9996267970703343
  @DF-RHF Final Energy:  -246.99975771051263
    Total Energy =                       -246.9997577105127107
  @DF-RHF Final Energy:  -247.00009528561642
    Total Energy =                       -247.0000952856162826
  @DF-RHF Final Energy:  -247.00062054934065
    Total Energy =                       -247.0006205493406242
  Basis Set: 6-31G*
  Basis Set:
  @DF-RHF Final Energy:  -247.00071760660671
    Total Energy =                       -247.0007176066068268
  Basis Set: 6-31G*
  Basis Set:
  Basis Set: 6-31G*
  Basis Set:
  @DF-RHF Final Energy:  -247.00074760844512
    Total Energy =                       -247.0007476084452946
  Basis Set: 6-31G*
  Basis Set:
  Basis Set: 6-31G*
  Basis Set:
  @DF-RHF Final Energy:  -247.00075645351862
    Total Energy =                       -247.0007564535184770
  Basis Set: 6-31G*
  Basis Set:
  Charge       = 0
  Multiplicity = 1
  Basis Set: 6-31G*
  Basis Set:

    Orbital Energies (a.u.)
    -----------------------

    Doubly Occupied:

       1A    -20.522486     2A    -15.578030     3A    -11.344977
       4A    -11.270292     5A    -11.230362     6A     -1.389682
       7A     -1.228428     8A     -1.006399     9A     -0.954030
      10A     -0.778120    11A     -0.674057    12A     -0.667093
      13A     -0.638598    14A     -0.590066    15A     -0.577119
      16A     -0.562044    17A     -0.554098    18A     -0.513347
      19A     -0.417917    20A     -0.388207

  @DF-RHF Final Energy:  -247.00075732199645

   => Energetics <=

    Nuclear Repulsion Energy =            181.3231429618586503
    One-Electron Energy =                -694.8771016123203026
    Two-Electron Energy =                 266.5532013284652066
    DFT Exchange-Correlation Energy =       0.0000000000000000
    Empirical Dispersion Energy =           0.0000000000000000
    PCM Polarization Energy =               0.0000000000000000
    EFP Energy =                            0.0000000000000000
    Total Energy =                       -247.0007573219965025
    Molecular point group: c1
  Basis Set: 6-31G*
  Basis Set:

  -Total Gradient:
     Atom            X                  Y                   Z
    ------   -----------------  -----------------  -----------------
       1       -0.000014503039    -0.000013020840     0.000005470290
       2        0.001943125803    -0.001919559638    -0.001974445773
       3       -0.001340696374     0.001320853317     0.002181894015
       4       -0.000025813196     0.000274155662    -0.003478081771
       5        0.000005375758     0.000005171571     0.000002936622
       6        0.000007041434     0.000002781507    -0.000004363909
       7        0.000003227653     0.000004137450    -0.000005412898
       8        0.000002667208    -0.000012367716    -0.000048751780
       9       -0.000580976357     0.000332228702     0.003282328636
      10        0.000000044166     0.000008732597     0.000009043037
      11        0.000007116990    -0.000000666520     0.000005930954
      12       -0.000006610046    -0.000002446095     0.000023452577

  **** Optimization is complete! (in 14 steps) ****
    Final optimized geometry and variables:
    Molecular point group: c1

    Geometry (in Angstrom), charge = 0, multiplicity = 1:

    H           -1.708814602689     0.128460927347    -0.334262230768
    N           -0.848496628577    -0.370069477815    -0.245896031675
    C           -0.943005020850    -1.633380476193     0.458071612398
    C            0.206233635660     0.495610417578    -0.136512238159
    H           -0.981486883701    -1.517318019992     1.538659580221
    H           -0.107659466990    -2.274216862664     0.209661963769
    H           -1.845550484692    -2.135870733554     0.137359668680
    C            1.563731619356    -0.113957369550     0.136714231713
    O            0.056125650643     1.677355929301    -0.265823030847
    H            1.777689410804    -0.923984556698    -0.551412343339
    H            2.309606142812     0.659796977249     0.032807516353
    H            1.608296601894    -0.511744562674     1.145970524990

  Mulliken Charges: (a.u.)
   Center  Symbol    Alpha    Beta     Spin     Total
       1     H     0.31007  0.31007  0.00000  0.37986
       2     N     3.87705  3.87705  0.00000 -0.75409
       3     C     3.14764  3.14764  0.00000 -0.29527
       4     C     2.63937  2.63937  0.00000  0.72127
       5     H     0.41646  0.41646  0.00000  0.16708
       6     H     0.40907  0.40907  0.00000  0.18187
       7     H     0.40630  0.40630  0.00000  0.18739
       8     C     3.29780  3.29780  0.00000 -0.59559
       9     O     4.29321  4.29321  0.00000 -0.58642
      10     H     0.40511  0.40511  0.00000  0.18977
      11     H     0.39140  0.39140  0.00000  0.21720
      12     H     0.40654  0.40654  0.00000  0.18692

   Total alpha = 20.00000, Total beta = 20.00000, Total charge = -0.00000
