  ==> Input File <==

--------------------------------------------------------------------------
set {
	reference rhf
	basis 6-31G*
}

set_num_threads( 1 )
memory 2 gb

molecule MOL {
0 1

H	 2.591676	 2.013956	 0.335017
O	 3.341076	 1.666752	 -0.126416
C	 3.569581	 0.339145	 0.272707
C	 2.390321	 -0.585022	 -0.010113
H	 4.435359	 0.008555	 -0.286590
H	 3.832608	 0.298728	 1.329099
C	 1.122075	 -0.232533	 0.771021
H	 2.180905	 -0.560412	 -1.076371
H	 2.692067	 -1.603060	 0.230545
C	 -0.026288	 -1.210339	 0.506488
H	 0.809174	 0.774190	 0.508405
H	 1.344813	 -0.223505	 1.838095
C	 -1.293857	 -0.952711	 1.329432
H	 -0.275208	 -1.191983	 -0.553017
H	 0.322364	 -2.218997	 0.718031
C	 -2.020511	 0.354545	 1.001508
H	 -1.980549	 -1.781011	 1.167602
H	 -1.044125	 -0.970591	 2.389220
C	 -3.332966	 0.516339	 1.771392
H	 -2.225143	 0.393136	 -0.067485
H	 -1.378482	 1.204544	 1.219690
C	 -4.057146	 1.823392	 1.450708
H	 -3.987671	 -0.323001	 1.546989
H	 -3.131749	 0.468301	 2.839610
H	 -4.301636	 1.887104	 0.394114
H	 -4.983832	 1.907580	 2.009994
H	 -3.442141	 2.683944	 1.698868

	symmetry c1
}
set optking {
	frozen_dihedral = ("
		14 10 7 4,
		14 10 13 16,
		10 7 4 8,
		8 4 3 2,
		10 13 16 20,
		20 16 19 22
	")
}

ee = energy('scf')
oeprop('DIPOLE', 'QUADRUPOLE', 'MULLIKEN_CHARGES')
f=open( 'psi4out.xyz', 'w' )
f.write( "27  " )
f.write( str(ee) + "\n" )
f.write( MOL.save_string_xyz() )
f.close()
--------------------------------------------------------------------------

    Molecular point group: c1

    Geometry (in Angstrom), charge = 0, multiplicity = 1:

       Center              X                  Y                   Z               Mass
    ------------   -----------------  -----------------  -----------------  -----------------
           H          2.583635740685     1.782793709675    -0.429297187219     1.007825032070
           O          3.333035740685     1.435589709675    -0.890730187219    15.994914619560
           C          3.561540740685     0.107982709675    -0.491607187219    12.000000000000
           C          2.382280740685    -0.816184290325    -0.774427187219    12.000000000000
           H          4.427318740685    -0.222607290325    -1.050904187219     1.007825032070
           H          3.824567740685     0.067565709675     0.564784812781     1.007825032070
           C          1.114034740685    -0.463695290325     0.006706812781    12.000000000000
           H          2.172864740685    -0.791574290325    -1.840685187219     1.007825032070
           H          2.684026740685    -1.834222290325    -0.533769187219     1.007825032070
           C         -0.034328259315    -1.441501290325    -0.257826187219    12.000000000000
           H          0.801133740685     0.543027709675    -0.255909187219     1.007825032070
           H          1.336772740685    -0.454667290325     1.073780812781     1.007825032070
           C         -1.301897259315    -1.183873290325     0.565117812781    12.000000000000
           H         -0.283248259315    -1.423145290325    -1.317331187219     1.007825032070
           H          0.314323740685    -2.450159290325    -0.046283187219     1.007825032070
           C         -2.028551259315     0.123382709675     0.237193812781    12.000000000000
           H         -1.988589259315    -2.012173290325     0.403287812781     1.007825032070
           H         -1.052165259315    -1.201753290325     1.624905812781     1.007825032070
           C         -3.341006259315     0.285176709675     1.007077812781    12.000000000000
           H         -2.233183259315     0.161973709675    -0.831799187219     1.007825032070
           H         -1.386522259315     0.973381709675     0.455375812781     1.007825032070
           C         -4.065186259315     1.592229709675     0.686393812781    12.000000000000
           H         -3.995711259315    -0.554163290325     0.782674812781     1.007825032070
           H         -3.139789259315     0.237138709675     2.075295812781     1.007825032070
           H         -4.309676259315     1.655941709675    -0.370200187219     1.007825032070
           H         -4.991872259315     1.676417709675     1.245679812781     1.007825032070
           H         -3.450181259315     2.452781709675     0.934553812781     1.007825032070

  Charge       = 0
  Multiplicity = 1
  Basis Set: 6-31G*
  Basis Set:

    Orbital Energies (a.u.)
    -----------------------

    Doubly Occupied:

       1A    -20.551468     2A    -11.266687     3A    -11.222452
       4A    -11.219006     5A    -11.217120     6A    -11.216958
       7A    -11.216845     8A    -11.215437     9A    -11.210037
      10A     -1.358506    11A     -1.096735    12A     -1.062816
      13A     -1.012428    14A     -0.949463    15A     -0.889553
      16A     -0.821592    17A     -0.803096    18A     -0.779728
      19A     -0.688672    20A     -0.654063    21A     -0.641182
      22A     -0.613929    23A     -0.604022    24A     -0.583691
      25A     -0.580321    26A     -0.555592    27A     -0.541470
      28A     -0.532062    29A     -0.505257    30A     -0.496022
      31A     -0.487010    32A     -0.476186    33A     -0.469235
      34A     -0.462239    35A     -0.452085    36A     -0.441050
      37A     -0.425214

  @DF-RHF Final Energy:  -388.28149001170448

   => Energetics <=

    Nuclear Repulsion Energy =            459.9344741826787413
    One-Electron Energy =               -1437.7934468219416431
    Two-Electron Energy =                 589.5774826275568330
    DFT Exchange-Correlation Energy =       0.0000000000000000
    Empirical Dispersion Energy =           0.0000000000000000
    PCM Polarization Energy =               0.0000000000000000
    EFP Energy =                            0.0000000000000000
    Total Energy =                       -388.2814900117060688

  Mulliken Charges: (a.u.)
   Center  Symbol    Alpha    Beta     Spin     Total
       1     H     0.27916  0.27916  0.00000  0.44168
       2     O     4.37269  4.37269  0.00000 -0.74538
       3     C     2.99355  2.99355  0.00000  0.01290
       4     C     3.16509  3.16509  0.00000 -0.33017
       5     H     0.41458  0.41458  0.00000  0.17084
       6     H     0.43198  0.43198  0.00000  0.13603
       7     C     3.16364  3.16364  0.00000 -0.32728
       8     H     0.41482  0.41482  0.00000  0.17036
       9     H     0.42303  0.42303  0.00000  0.15394
      10     C     3.15199  3.15199  0.00000 -0.30397
      11     H     0.42615  0.42615  0.00000  0.14770
      12     H     0.42333  0.42333  0.00000  0.15334
      13     C     3.15368  3.15368  0.00000 -0.30735
      14     H     0.42150  0.42150  0.00000  0.15700
      15     H     0.42090  0.42090  0.00000  0.15820
      16     C     3.15246  3.15246  0.00000 -0.30492
      17     H     0.42093  0.42093  0.00000  0.15815
      18     H     0.42393  0.42393  0.00000  0.15215
      19     C     3.15127  3.15127  0.00000 -0.30254
      20     H     0.42361  0.42361  0.00000  0.15277
      21     H     0.42402  0.42402  0.00000  0.15195
      22     C     3.23923  3.23923  0.00000 -0.47847
      23     H     0.42272  0.42272  0.00000  0.15456
      24     H     0.42310  0.42310  0.00000  0.15380
      25     H     0.42144  0.42144  0.00000  0.15713
      26     H     0.41902  0.41902  0.00000  0.16195
      27     H     0.42219  0.42219  0.00000  0.15561

   Total alpha = 37.00000, Total beta = 37.00000, Total charge =  0.00000
