                              Psi4 1.0.54 Driver

  ==> Input File <==

--------------------------------------------------------------------------
set {
	reference rhf
	basis cc-pvtz
}

set_num_threads( 4 )
memory 2 gb

molecule MOL {
0 1

H	 2.462485	 -2.216993	 0.000000
O	 2.777472	 -1.330706	 0.000000
C	 1.763288	 -0.447523	 0.000000
C	 1.420919	 0.134074	 1.212291
C	 1.072145	 -0.113371	 -1.144998
H	 1.971304	 -0.139891	 2.090457
C	 0.391335	 1.044900	 1.273161
H	 1.314782	 -0.546353	 -2.093129
C	 0.044867	 0.804151	 -1.046901
H	 0.133790	 1.489257	 2.214417
C	 -0.317661	 1.396590	 0.136683
N	 -0.686376	 1.155060	 -2.269582
H	 -1.119022	 2.101937	 0.168742
O	 -0.352736	 0.628545	 -3.278809
O	 -1.565835	 1.942782	 -2.176083

	symmetry c1
}
set optking {
	frozen_dihedral = ("
		4 3 2 1
	")
}

ee,wfn = optimize('scf', return_wfn=True)
oeprop( wfn, 'DIPOLE', 'QUADRUPOLE', 'MULLIKEN_CHARGES')
f=open( 'psi4out.xyz', 'w' )
f.write( "15  " )
f.write( str(ee) + "\n" )
f.write( MOL.save_string_xyz() )
f.close()
--------------------------------------------------------------------------

    Molecular point group: c1
  Charge       = 0
  Multiplicity = 1
  Basis Set: CC-PVTZ
  Basis Set:
  @DF-RHF Final Energy:  -509.21398285616652
    Total Energy =                       -509.2139828561665809
    Molecular point group: c1
  Basis Set: CC-PVTZ
  Basis Set:
  Basis Set: CC-PVTZ
  Basis Set:
  @DF-RHF Final Energy:  -509.21456383319395
    Total Energy =                       -509.2145638331940063
  Basis Set: CC-PVTZ
  Basis Set:
  Basis Set: CC-PVTZ
  Basis Set:
  @DF-RHF Final Energy:  -509.15874105196940
    Total Energy =                       -509.1587410519691730
  Basis Set: CC-PVTZ
  Basis Set:
  Basis Set: CC-PVTZ
  Basis Set:
  @DF-RHF Final Energy:  -509.20552598024403
    Total Energy =                       -509.2055259802438059
  Basis Set: CC-PVTZ
  Basis Set:
  @DF-RHF Final Energy:  -509.21428831069846
    Total Energy =                       -509.2142883106985209
  Basis Set: CC-PVTZ
  Basis Set:
  @DF-RHF Final Energy:  -509.21468138200635
    Total Energy =                       -509.2146813820060061
  Basis Set: CC-PVTZ
  Basis Set:
  Basis Set: CC-PVTZ
  Basis Set:
  @DF-RHF Final Energy:  -509.21477569286060
    Total Energy =                       -509.2147756928605986
  Basis Set: CC-PVTZ
  Basis Set:
  Basis Set: CC-PVTZ
  Basis Set:
  @DF-RHF Final Energy:  -509.21479476982438
    Total Energy =                       -509.2147947698239250
  Basis Set: CC-PVTZ
  Basis Set:
  Charge       = 0
  Multiplicity = 1
  Basis Set: CC-PVTZ
  Basis Set:

    Orbital Energies (a.u.)
    -----------------------

    Doubly Occupied:

       1A    -20.594462     2A    -20.593956     3A    -20.593889
       4A    -15.850009     5A    -11.319024     6A    -11.307351
       7A    -11.264738     8A    -11.264128     9A    -11.262743
      10A    -11.260858    11A     -1.643510    12A     -1.425964
      13A     -1.423388    14A     -1.203106    15A     -1.095319
      16A     -1.048501    17A     -0.965137    18A     -0.871236
      19A     -0.835666    20A     -0.796876    21A     -0.743537
      22A     -0.742073    23A     -0.725986    24A     -0.711477
      25A     -0.684352    26A     -0.644891    27A     -0.628390
      28A     -0.570197    29A     -0.557178    30A     -0.534164
      31A     -0.515963    32A     -0.494239    33A     -0.488007
      34A     -0.459550    35A     -0.380163    36A     -0.361304

  @DF-RHF Final Energy:  -509.21479571186433

   => Energetics <=

    Nuclear Repulsion Energy =            504.0286606870272408
    One-Electron Energy =               -1694.7642453285816373
    Two-Electron Energy =                 681.5207889296899566
    DFT Exchange-Correlation Energy =       0.0000000000000000
    Empirical Dispersion Energy =           0.0000000000000000
    PCM Polarization Energy =               0.0000000000000000
    EFP Energy =                            0.0000000000000000
    Total Energy =                       -509.2147957118644399
    Molecular point group: c1
  Basis Set: CC-PVTZ
  Basis Set:

  -Total Gradient:
     Atom            X                  Y                   Z
    ------   -----------------  -----------------  -----------------
       1        0.000326872749    -0.000023072469     0.000816199826
       2       -0.000565740011    -0.000252525903    -0.000901646538
       3        0.000501465440     0.000836676419    -0.000289149006
       4       -0.000389815949    -0.000411818881     0.000337099023
       5        0.000082064711    -0.000076461077     0.000055863068
       6        0.000045903434    -0.000008702400     0.000039554816
       7        0.000051184829    -0.000105891360     0.000026322068
       8       -0.000018454758    -0.000016059757    -0.000057901195
       9       -0.000029107900     0.000053221177     0.000085847088
      10        0.000010278429     0.000014166391     0.000040074566
      11        0.000051299353    -0.000006137018    -0.000126893964
      12        0.000059346312    -0.000169341299    -0.000041416015
      13       -0.000029933418     0.000024150826     0.000018468765
      14        0.000003394734     0.000000815268    -0.000058264778
      15       -0.000098757951     0.000140980083     0.000055842271

  **** Optimization is complete! (in 9 steps) ****
    Final optimized geometry and variables:
    Molecular point group: c1

    Geometry (in Angstrom), charge = 0, multiplicity = 1:

    H            2.134824576416    -2.763011752196    -0.041653446605
    O            2.434297488013    -1.878807487351    -0.164969666241
    C            1.504126980228    -0.983675531081     0.271061565775
    C            1.652293835143    -0.392523660762     1.512078610493
    C            0.444854148297    -0.636711950259    -0.541155198774
    H            2.489667154305    -0.669875020895     2.121982462031
    C            0.738478080910     0.547467025380     1.946630047613
    H            0.329787292550    -1.077472027859    -1.508113709211
    C           -0.454501758437     0.300306298538    -0.079246359255
    H            0.860080563418     1.003865741783     2.909163875866
    C           -0.332256018308     0.905093626742     1.151561625984
    N           -1.583777191779     0.667125811032    -0.939324209755
    H           -1.049822447763     1.629868671874     1.470016086314
    O           -1.676444865482     0.120326117704    -1.987021926292
    O           -2.337105427944     1.487772030164    -0.534354549070

  Mulliken Charges: (a.u.)
   Center  Symbol    Alpha    Beta     Spin     Total
       1     H     0.38556  0.38556  0.00000  0.22889
       2     O     4.18607  4.18607  0.00000 -0.37215
       3     C     2.86547  2.86547  0.00000  0.26905
       4     C     3.09645  3.09645  0.00000 -0.19290
       5     C     3.11419  3.11419  0.00000 -0.22838
       6     H     0.41072  0.41072  0.00000  0.17855
       7     C     3.06638  3.06638  0.00000 -0.13276
       8     H     0.39251  0.39251  0.00000  0.21499
       9     C     2.98055  2.98055  0.00000  0.03890
      10     H     0.41513  0.41513  0.00000  0.16974
      11     C     3.08571  3.08571  0.00000 -0.17142
      12     N     3.25019  3.25019  0.00000  0.49963
      13     H     0.39868  0.39868  0.00000  0.20263
      14     O     4.17613  4.17613  0.00000 -0.35225
      15     O     4.17626  4.17626  0.00000 -0.35253

   Total alpha = 36.00000, Total beta = 36.00000, Total charge =  0.00000

*** Psi4 exiting successfully. Buy a developer a beer!
