                              Psi4 1.0.54 Driver

  ==> Input File <==

--------------------------------------------------------------------------
set {
	reference rhf
	basis cc-pvtz
}

set_num_threads( 4 )
memory 2 gb

molecule MOL {
0 1

H	 4.142191	 -0.198756	 1.898861
C	 3.480409	 -0.616016	 1.149162
C	 2.176920	 0.170841	 1.069004
H	 4.006124	 -0.600454	 0.200257
H	 3.300143	 -1.653741	 1.409252
C	 1.215950	 -0.382441	 0.027187
H	 2.382144	 1.209507	 0.834867
H	 1.691715	 0.163394	 2.042193
N	 0.000002	 0.398953	 -0.040851
H	 1.690088	 -0.352620	 -0.949272
H	 1.017470	 -1.436908	 0.241169
C	 -1.215959	 -0.382435	 0.027143
H	 -0.000012	 1.086078	 0.683841
C	 -2.451944	 0.502410	 -0.038737
H	 -1.221867	 -1.069392	 -0.813828
H	 -1.259993	 -0.999709	 0.929424
C	 -3.752217	 -0.292550	 0.005776
H	 -2.407325	 1.093801	 -0.946480
H	 -2.431979	 1.206234	 0.790023
H	 -3.817783	 -0.982946	 -0.828547
H	 -4.612613	 0.364348	 -0.042306
H	 -3.830160	 -0.871666	 0.919868

	symmetry c1
}
set optking {
	frozen_dihedral = ("
		10 6 9 12
	")
}

ee,wfn = optimize('scf', return_wfn=True)
oeprop( wfn, 'DIPOLE', 'QUADRUPOLE', 'MULLIKEN_CHARGES')
f=open( 'psi4out.xyz', 'w' )
f.write( "22  " )
f.write( str(ee) + "\n" )
f.write( MOL.save_string_xyz() )
f.close()
--------------------------------------------------------------------------

    Molecular point group: c1
  Charge       = 0
  Multiplicity = 1
  Basis Set: CC-PVTZ
  Basis Set:
  @DF-RHF Final Energy:  -290.48488774466279
    Total Energy =                       -290.4848877446628421
    Molecular point group: c1
  Basis Set: CC-PVTZ
  Basis Set:
  Basis Set: CC-PVTZ
  Basis Set:
  @DF-RHF Final Energy:  -290.48530866169801
    Total Energy =                       -290.4853086616979567
  Basis Set: CC-PVTZ
  Basis Set:
  Basis Set: CC-PVTZ
  Basis Set:
  @DF-RHF Final Energy:  -290.48538664161981
    Total Energy =                       -290.4853866416200958
  Basis Set: CC-PVTZ
  Basis Set:
  Basis Set: CC-PVTZ
  Basis Set:
  @DF-RHF Final Energy:  -290.48538911942302
    Total Energy =                       -290.4853891194231892
  Basis Set: CC-PVTZ
  Basis Set:
  Charge       = 0
  Multiplicity = 1
  Basis Set: CC-PVTZ
  Basis Set:

    Orbital Energies (a.u.)
    -----------------------

    Doubly Occupied:

       1A    -15.525277     2A    -11.236192     3A    -11.235804
       4A    -11.216672     5A    -11.211198     6A    -11.209991
       7A    -11.207222     8A     -1.203811     9A     -1.061251
      10A     -1.027651    11A     -0.929207    12A     -0.869034
      13A     -0.813773    14A     -0.797625    15A     -0.654784
      16A     -0.642056    17A     -0.615553    18A     -0.611227
      19A     -0.574373    20A     -0.558555    21A     -0.543344
      22A     -0.523441    23A     -0.516155    24A     -0.486189
      25A     -0.482247    26A     -0.476200    27A     -0.470101
      28A     -0.454080    29A     -0.356127

  @DF-RHF Final Energy:  -290.48538976860505

   => Energetics <=

    Nuclear Repulsion Energy =            314.3824299518072394
    One-Electron Energy =               -1014.7173617531177570
    Two-Electron Energy =                 409.8495420327055285
    DFT Exchange-Correlation Energy =       0.0000000000000000
    Empirical Dispersion Energy =           0.0000000000000000
    PCM Polarization Energy =               0.0000000000000000
    EFP Energy =                            0.0000000000000000
    Total Energy =                       -290.4853897686049891
    Molecular point group: c1
  Basis Set: CC-PVTZ
  Basis Set:

  -Total Gradient:
     Atom            X                  Y                   Z
    ------   -----------------  -----------------  -----------------
       1        0.000012061749    -0.000000171205     0.000002900268
       2        0.000019890385    -0.000005865935    -0.000010004457
       3       -0.000030833937    -0.000014847648    -0.000002958382
       4        0.000002168179    -0.000007168719     0.000000813990
       5        0.000004225303     0.000000428050     0.000002227068
       6       -0.001551637889    -0.002463994299     0.000045263020
       7       -0.000010365545    -0.000001526189    -0.000002879910
       8       -0.000008338677     0.000005174672    -0.000002235037
       9        0.000345799350     0.000249327420    -0.002592243338
      10        0.001214785389     0.002033286675     0.000640488364
      11        0.000035770473    -0.000008509807     0.000003462829
      12       -0.000022760855     0.000202096204     0.001916123635
      13       -0.000009281786     0.000001545728     0.000000268778
      14       -0.000002605151    -0.000003796566    -0.000003656368
      15        0.000014443687     0.000011305392     0.000004551995
      16        0.000007098913     0.000003961219    -0.000005488175
      17       -0.000015575341     0.000008399654     0.000003296755
      18        0.000003107124    -0.000003270395     0.000005096518
      19       -0.000000493233    -0.000002751513    -0.000004011736
      20        0.000000638553     0.000001107587    -0.000000076373
      21       -0.000007886634    -0.000004956427     0.000000149272
      22       -0.000000210057     0.000000226103    -0.000001088717

  **** Optimization is complete! (in 5 steps) ****
    Final optimized geometry and variables:
    Molecular point group: c1

    Geometry (in Angstrom), charge = 0, multiplicity = 1:

    H            4.255094502786    -0.078103694774     1.549137073964
    C            3.590170422168    -0.501710414732     0.805778037965
    C            2.265857473273     0.251813673917     0.760040830981
    H            4.096782067291    -0.461013832356    -0.152319666973
    H            3.438677594853    -1.546576742712     1.055226125518
    C            1.298376729605    -0.309740487345    -0.275239018287
    H            2.452223157918     1.298266344278     0.533784512241
    H            1.795839662238     0.223787241254     1.739869955845
    N            0.071269053924     0.469181520079    -0.367158239386
    H            1.798603115707    -0.313764377928    -1.239874831527
    H            1.077218337256    -1.345097360225    -0.025827643896
    C           -1.155718476276    -0.295701405830    -0.291928198208
    H            0.063539614724     1.175331950203     0.336406633215
    C           -2.378045394097     0.605734177488    -0.377193624562
    H           -1.172010791956    -0.996318092848    -1.121419487323
    H           -1.211795239191    -0.896888485357     0.620292819153
    C           -3.690257418494    -0.168645225131    -0.320471669541
    H           -2.322788295686     1.179348952960    -1.295684727543
    H           -2.348817361714     1.324667825049     0.438346162576
    H           -3.764354823407    -0.873984599543    -1.141455453218
    H           -4.540603279916     0.500027632089    -0.383372285496
    H           -3.778931769756    -0.728627833297     0.604522990427

  Mulliken Charges: (a.u.)
   Center  Symbol    Alpha    Beta     Spin     Total
       1     H     0.44773  0.44773  0.00000  0.10454
       2     C     3.15262  3.15262  0.00000 -0.30525
       3     C     3.09076  3.09076  0.00000 -0.18153
       4     H     0.45384  0.45384  0.00000  0.09233
       5     H     0.45472  0.45472  0.00000  0.09055
       6     C     3.02103  3.02103  0.00000 -0.04205
       7     H     0.45184  0.45184  0.00000  0.09632
       8     H     0.45580  0.45580  0.00000  0.08840
       9     N     3.64142  3.64142  0.00000 -0.28284
      10     H     0.45772  0.45772  0.00000  0.08456
      11     H     0.46777  0.46777  0.00000  0.06446
      12     C     3.02155  3.02155  0.00000 -0.04309
      13     H     0.44595  0.44595  0.00000  0.10811
      14     C     3.08249  3.08249  0.00000 -0.16498
      15     H     0.45834  0.45834  0.00000  0.08332
      16     H     0.47583  0.47583  0.00000  0.04833
      17     C     3.15307  3.15307  0.00000 -0.30615
      18     H     0.44888  0.44888  0.00000  0.10225
      19     H     0.45988  0.45988  0.00000  0.08024
      20     H     0.45472  0.45472  0.00000  0.09057
      21     H     0.44775  0.44775  0.00000  0.10451
      22     H     0.45629  0.45629  0.00000  0.08742

   Total alpha = 29.00000, Total beta = 29.00000, Total charge =  0.00000

*** Psi4 exiting successfully. Buy a developer a beer!
