  ==> Input File <==

--------------------------------------------------------------------------
set {
	reference rhf
	basis 6-31G*
}

set_num_threads( 4 )
memory 2 gb

molecule MOL {
0 1

O	 0.794480	 0.044905	 -0.759031
C	 1.705091	 0.115954	 0.001797
C	 1.867376	 1.156633	 1.082777
O	 2.721346	 -0.737485	 -0.000216
C	 0.722804	 2.164240	 1.131010
H	 1.968474	 0.630026	 2.027859
H	 2.820595	 1.651167	 0.916857
C	 0.912394	 3.205572	 2.234978
H	 -0.213272	 1.635214	 1.279612
H	 0.640385	 2.658216	 0.167941
C	 -0.227277	 4.223908	 2.298236
H	 0.997965	 2.703768	 3.197717
H	 1.853849	 3.730984	 2.081724
C	 -0.036680	 5.264838	 3.400683
H	 -1.168180	 3.700820	 2.453868
H	 -0.313449	 4.726633	 1.337518
H	 0.018406	 4.795019	 4.378666
H	 -0.859988	 5.972118	 3.419891
H	 0.880242	 5.828709	 3.253670
C	 4.024888	 -0.184556	 -0.001949
H	 4.179030	 0.422472	 -0.882452
H	 4.701782	 -1.024608	 -0.003642
H	 4.181981	 0.421185	 0.878906

	symmetry c1
}
set optking {
	frozen_dihedral = ("
		1 2 4 20
	")
}

ee = optimize('scf')
oeprop('DIPOLE', 'QUADRUPOLE', 'MULLIKEN_CHARGES')
f=open( 'psi4out.xyz', 'w' )
f.write( "23  " )
f.write( str(ee) + "\n" )
f.write( MOL.save_string_xyz() )
f.close()
--------------------------------------------------------------------------

    Molecular point group: c1
  Charge       = 0
  Multiplicity = 1
  Basis Set: 6-31G*
  Basis Set:
  @DF-RHF Final Energy:  -422.95029962868688
    Total Energy =                       -422.9502996286868211
    Molecular point group: c1
  Basis Set: 6-31G*
  Basis Set:
  Basis Set: 6-31G*
  Basis Set:
  @DF-RHF Final Energy:  -422.95068000002493
    Total Energy =                       -422.9506800000258409
  Basis Set: 6-31G*
  Basis Set:
  Basis Set: 6-31G*
  Basis Set:
  @DF-RHF Final Energy:  -422.95526589180020
    Total Energy =                       -422.9552658918004227
  Basis Set: 6-31G*
  Basis Set:
  Basis Set: 6-31G*
  Basis Set:
  @DF-RHF Final Energy:  -422.95582928947499
    Total Energy =                       -422.9558292894752185
  Basis Set: 6-31G*
  Basis Set:
  @DF-RHF Final Energy:  -422.95672432756692
    Total Energy =                       -422.9567243275662349
  Basis Set: 6-31G*
  Basis Set:
  @DF-RHF Final Energy:  -422.95695064981498
    Total Energy =                       -422.9569506498150986
  Basis Set: 6-31G*
  Basis Set:
  Basis Set: 6-31G*
  Basis Set:
  @DF-RHF Final Energy:  -422.95697657421078
    Total Energy =                       -422.9569765742112395
  Basis Set: 6-31G*
  Basis Set:
  Basis Set: 6-31G*
  Basis Set:
  @DF-RHF Final Energy:  -422.95698733411643
    Total Energy =                       -422.9569873341165476
  Basis Set: 6-31G*
  Basis Set:
  Charge       = 0
  Multiplicity = 1
  Basis Set: 6-31G*
  Basis Set:

    Orbital Energies (a.u.)
    -----------------------

    Doubly Occupied:

       1A    -20.592088     2A    -20.549930     3A    -11.374406
       4A    -11.295113     5A    -11.243138     6A    -11.223527
       7A    -11.221521     8A    -11.219107     9A    -11.211953
      10A     -1.459812    11A     -1.367257    12A     -1.095919
      13A     -1.041513    14A     -0.982548    15A     -0.950054
      16A     -0.853272    17A     -0.798784    18A     -0.765779
      19A     -0.697713    20A     -0.683121    21A     -0.673595
      22A     -0.653642    23A     -0.617342    24A     -0.606293
      25A     -0.580356    26A     -0.570010    27A     -0.557167
      28A     -0.540144    29A     -0.511728    30A     -0.502014
      31A     -0.487487    32A     -0.475601    33A     -0.470391
      34A     -0.468395    35A     -0.449222    36A     -0.431189

  @DF-RHF Final Energy:  -422.95698797699652

   => Energetics <=

    Nuclear Repulsion Energy =            453.9037896178997471
    One-Electron Energy =               -1475.2792920913377657
    Two-Electron Energy =                 598.4185144964412757
    DFT Exchange-Correlation Energy =       0.0000000000000000
    Empirical Dispersion Energy =           0.0000000000000000
    PCM Polarization Energy =               0.0000000000000000
    EFP Energy =                            0.0000000000000000
    Total Energy =                       -422.9569879769967429
    Molecular point group: c1
  Basis Set: 6-31G*
  Basis Set:

  -Total Gradient:
     Atom            X                  Y                   Z
    ------   -----------------  -----------------  -----------------
       1        0.002294409569     0.001984311918    -0.002396307624
       2       -0.003340858049    -0.002749258315     0.001801351767
       3       -0.000001096650     0.000042137777    -0.000023887918
       4        0.000962965654     0.000685980868     0.003854317026
       5        0.000040599206    -0.000006400304    -0.000006491659
       6        0.000003125541    -0.000006634544     0.000004406437
       7        0.000003521562    -0.000002738026     0.000005631200
       8       -0.000018306005    -0.000006363546     0.000018623273
       9       -0.000005635634     0.000005930774     0.000005852608
      10       -0.000001958829    -0.000007501819    -0.000008494094
      11       -0.000001070213    -0.000006785384     0.000007089301
      12       -0.000008836386    -0.000004204813     0.000004502321
      13        0.000001548205    -0.000005316461     0.000008085813
      14        0.000009572162     0.000012401460    -0.000014006223
      15        0.000003522124    -0.000000390876     0.000009650521
      16       -0.000007016221    -0.000006621529    -0.000002952071
      17       -0.000004176586    -0.000002651489    -0.000004578090
      18        0.000002342373     0.000003127921    -0.000004371413
      19        0.000003812321     0.000002250276     0.000004866410
      20        0.000059208514     0.000086289817    -0.003275635146
      21        0.000040865649     0.000000265915    -0.000000282629
      22       -0.000016506204    -0.000005728984     0.000007067430
      23       -0.000020032108    -0.000012100630     0.000005562764

  **** Optimization is complete! (in 9 steps) ****
    Final optimized geometry and variables:
    Molecular point group: c1

    Geometry (in Angstrom), charge = 0, multiplicity = 1:

    O           -0.511736787348    -1.480127719501    -1.860475468379
    C            0.358491481530    -1.472505335081    -1.060767370591
    C            0.512609026009    -0.413381870846     0.011399356479
    O            1.272791283491    -2.460313604169    -1.049628349516
    C           -0.700058955157     0.507482145197     0.123725012553
    H            0.710793153999    -0.917392891778     0.953654707544
    H            1.403528248090     0.170233115738    -0.210273983353
    C           -0.522911022808     1.570456201831     1.208904448185
    H           -1.582536009520    -0.089327705404     0.332390396967
    H           -0.875962262835     0.981836599825    -0.835679193076
    C           -1.729877468916     2.501790156496     1.334635623738
    H           -0.342877646306     1.086655404376     2.167800970605
    H            0.365538663372     2.163524304384     0.995967238429
    C           -1.550683007769     3.567562443737     2.415016381689
    H           -2.617311111121     1.911951444239     1.552457879906
    H           -1.912169407822     2.984520349843     0.377214002904
    H           -1.400899944957     3.115372805883     3.391418728386
    H           -2.422007007328     4.211655291910     2.479530246095
    H           -0.689506713968     4.196436599051     2.207106287461
    C            2.646825303896    -2.147102424246    -1.022658800401
    H            2.902848483857    -1.454288754110    -1.815938340256
    H            3.168659693997    -3.077050913605    -1.185460740561
    H            2.948840359730    -1.734743271550    -0.067315232278

  Mulliken Charges: (a.u.)
   Center  Symbol    Alpha    Beta     Spin     Total
       1     O     4.25569  4.25569  0.00000 -0.51138
       2     C     2.60660  2.60660  0.00000  0.78681
       3     C     3.22629  3.22629  0.00000 -0.45258
       4     O     4.30944  4.30944  0.00000 -0.61889
       5     C     3.15069  3.15069  0.00000 -0.30139
       6     H     0.40195  0.40195  0.00000  0.19610
       7     H     0.40532  0.40532  0.00000  0.18935
       8     C     3.15357  3.15357  0.00000 -0.30713
       9     H     0.41113  0.41113  0.00000  0.17773
      10     H     0.40821  0.40821  0.00000  0.18358
      11     C     3.15189  3.15189  0.00000 -0.30377
      12     H     0.42399  0.42399  0.00000  0.15202
      13     H     0.42499  0.42499  0.00000  0.15002
      14     C     3.23970  3.23970  0.00000 -0.47939
      15     H     0.42061  0.42061  0.00000  0.15879
      16     H     0.42072  0.42072  0.00000  0.15856
      17     H     0.42174  0.42174  0.00000  0.15652
      18     H     0.41784  0.41784  0.00000  0.16433
      19     H     0.42198  0.42198  0.00000  0.15605
      20     C     3.09399  3.09399  0.00000 -0.18798
      21     H     0.41538  0.41538  0.00000  0.16924
      22     H     0.39962  0.39962  0.00000  0.20077
      23     H     0.41868  0.41868  0.00000  0.16264

   Total alpha = 36.00000, Total beta = 36.00000, Total charge =  0.00000
