  ==> Input File <==

--------------------------------------------------------------------------
set {
	reference rhf
	basis 6-31G*
}

set_num_threads( 4 )
memory 2 gb

molecule MOL {
0 1

H	 -2.585789	 -0.413940	 0.284576
N	 -1.852125	 0.165761	 -0.074816
C	 -0.563778	 -0.502042	 0.037919
H	 -1.858800	 1.009855	 0.465754
C	 0.575259	 0.508231	 -0.048326
H	 -0.482092	 -1.204004	 -0.786564
H	 -0.460411	 -1.085169	 0.956626
C	 1.954651	 -0.143624	 0.035137
H	 0.475158	 1.060484	 -0.977307
H	 0.469181	 1.234488	 0.755973
H	 2.103292	 -0.853109	 -0.774172
H	 2.742821	 0.599562	 -0.030094
H	 2.083613	 -0.679371	 0.971560

	symmetry c1
}
set optking {
	frozen_dihedral = ("
		1 2 3 6
	")
}

ee = optimize('scf')
oeprop('DIPOLE', 'QUADRUPOLE', 'MULLIKEN_CHARGES')
f=open( 'psi4out.xyz', 'w' )
f.write( "13  " )
f.write( str(ee) + "\n" )
f.write( MOL.save_string_xyz() )
f.close()
--------------------------------------------------------------------------

    Molecular point group: c1
  Charge       = 0
  Multiplicity = 1
  Basis Set: 6-31G*
  Basis Set:
  @DF-RHF Final Energy:  -173.28100811810637
    Total Energy =                       -173.2810081181063424
    Molecular point group: c1
  Basis Set: 6-31G*
  Basis Set:
  Basis Set: 6-31G*
  Basis Set:
  @DF-RHF Final Energy:  -173.28112816303772
    Total Energy =                       -173.2811281630376357
  Basis Set: 6-31G*
  Basis Set:
  Basis Set: 6-31G*
  Basis Set:
  @DF-RHF Final Energy:  -173.28115119021086
    Total Energy =                       -173.2811511902108919
  Basis Set: 6-31G*
  Basis Set:
  Basis Set: 6-31G*
  Basis Set:
  @DF-RHF Final Energy:  -173.28115494883895
    Total Energy =                       -173.2811549488388323
  Basis Set: 6-31G*
  Basis Set:
  Charge       = 0
  Multiplicity = 1
  Basis Set: 6-31G*
  Basis Set:

    Orbital Energies (a.u.)
    -----------------------

    Doubly Occupied:

       1A    -15.532721     2A    -11.239996     3A    -11.215992
       4A    -11.211252     5A     -1.177099     6A     -1.036953
       7A     -0.899431     8A     -0.803319     9A     -0.649671
      10A     -0.641281    11A     -0.602841    12A     -0.562182
      13A     -0.537975    14A     -0.493987    15A     -0.477250
      16A     -0.468836    17A     -0.383317

  @DF-RHF Final Energy:  -173.28115530398412

   => Energetics <=

    Nuclear Repulsion Energy =            131.8597563590670347
    One-Electron Energy =                -494.4136174938129216
    Two-Electron Energy =                 189.2727058307615664
    DFT Exchange-Correlation Energy =       0.0000000000000000
    Empirical Dispersion Energy =           0.0000000000000000
    PCM Polarization Energy =               0.0000000000000000
    EFP Energy =                            0.0000000000000000
    Total Energy =                       -173.2811553039843204
    Molecular point group: c1
  Basis Set: 6-31G*
  Basis Set:

  -Total Gradient:
     Atom            X                  Y                   Z
    ------   -----------------  -----------------  -----------------
       1        0.000307301117     0.001289134989     0.002937696323
       2       -0.000098879566    -0.001171361280    -0.004042461888
       3       -0.001499215346    -0.002236958986     0.002759606202
       4       -0.000004935738     0.000046246878     0.000002808356
       5        0.000009283409     0.000019369953    -0.000040163768
       6        0.001263164641     0.002094027897    -0.001628572877
       7        0.000009526101    -0.000026985000    -0.000007236105
       8        0.000010182883    -0.000006427066     0.000020035259
       9       -0.000008942088     0.000005057167     0.000012072974
      10       -0.000002516172    -0.000004523747    -0.000009552305
      11        0.000004570881    -0.000001339811    -0.000004144363
      12        0.000003710808     0.000000727191     0.000003635844
      13        0.000006749068    -0.000006968185    -0.000003723651

  **** Optimization is complete! (in 5 steps) ****
    Final optimized geometry and variables:
    Molecular point group: c1

    Geometry (in Angstrom), charge = 0, multiplicity = 1:

    H           -2.596448845942    -0.418931212291     0.248363176575
    N           -1.855349537526     0.160406682330    -0.097400312629
    C           -0.567154843457    -0.506358328896     0.054759637522
    H           -1.877049300863     0.991014044221     0.464609809785
    C            0.573505530918     0.503208427512    -0.037792402678
    H           -0.457452418063    -1.216990942844    -0.759108168979
    H           -0.479429778066    -1.063172675765     0.989534017790
    C            1.952323009388    -0.151942387201     0.023730205055
    H            0.466434163248     1.060406562522    -0.963932977034
    H            0.480547783020     1.224892721059     0.772505659960
    H            2.091016664647    -0.851433666102    -0.795538600742
    H            2.740746926083     0.591001745046    -0.040145886278
    H            2.088918994876    -0.698875895179     0.952449584102

  Mulliken Charges: (a.u.)
   Center  Symbol    Alpha    Beta     Spin     Total
       1     H     0.33345  0.33345  0.00000  0.33310
       2     N     3.92173  3.92173  0.00000 -0.84345
       3     C     3.05410  3.05410  0.00000 -0.10820
       4     H     0.33614  0.33614  0.00000  0.32772
       5     C     3.15956  3.15956  0.00000 -0.31911
       6     H     0.42005  0.42005  0.00000  0.15990
       7     H     0.43427  0.43427  0.00000  0.13146
       8     C     3.24273  3.24273  0.00000 -0.48545
       9     H     0.41220  0.41220  0.00000  0.17561
      10     H     0.42693  0.42693  0.00000  0.14614
      11     H     0.41971  0.41971  0.00000  0.16059
      12     H     0.41743  0.41743  0.00000  0.16514
      13     H     0.42172  0.42172  0.00000  0.15657

   Total alpha = 17.00000, Total beta = 17.00000, Total charge =  0.00000
