  ==> Input File <==

--------------------------------------------------------------------------
set {
	reference rhf
	basis 6-31G*
}

set_num_threads( 4 )
memory 2 gb

molecule MOL {
0 1

O	 -2.524165	 0.912375	 -0.619557
C	 -1.921153	 0.064240	 -0.045697
C	 -2.508010	 -1.233368	 0.440265
O	 -0.632575	 0.154573	 0.251549
H	 -2.385795	 -1.311036	 1.514499
H	 -3.555801	 -1.276235	 0.183104
H	 -1.980365	 -2.065595	 -0.011117
C	 0.160891	 -1.019931	 0.106212
C	 1.589627	 -0.672828	 0.480843
H	 0.089836	 -1.367806	 -0.916050
H	 -0.238459	 -1.792301	 0.749618
C	 2.246377	 0.346236	 -0.452210
H	 2.163194	 -1.597435	 0.473358
H	 1.604769	 -0.303424	 1.502885
C	 3.691736	 0.652107	 -0.061850
H	 2.219579	 -0.032311	 -1.472055
H	 1.666466	 1.263317	 -0.447249
H	 4.134505	 1.377213	 -0.737283
H	 4.305508	 -0.243868	 -0.089969
H	 3.748266	 1.059562	 0.943567

	symmetry c1
}
set optking {
	frozen_dihedral = ("
		1 2 4 8
	")
}

ee = optimize('scf')
oeprop('DIPOLE', 'QUADRUPOLE', 'MULLIKEN_CHARGES')
f=open( 'psi4out.xyz', 'w' )
f.write( "20  " )
f.write( str(ee) + "\n" )
f.write( MOL.save_string_xyz() )
f.close()
--------------------------------------------------------------------------

    Molecular point group: c1
  Charge       = 0
  Multiplicity = 1
  Basis Set: 6-31G*
  Basis Set:
  @DF-RHF Final Energy:  -383.92184969801502
    Total Energy =                       -383.9218496980145119
    Molecular point group: c1
  Basis Set: 6-31G*
  Basis Set:
  Basis Set: 6-31G*
  Basis Set:
  @DF-RHF Final Energy:  -383.92271438437842
    Total Energy =                       -383.9227143843784233
  Basis Set: 6-31G*
  Basis Set:
  Basis Set: 6-31G*
  Basis Set:
  @DF-RHF Final Energy:  -383.92739359939105
    Total Energy =                       -383.9273935993907116
  Basis Set: 6-31G*
  Basis Set:
  Basis Set: 6-31G*
  Basis Set:
  @DF-RHF Final Energy:  -383.92855006442846
    Total Energy =                       -383.9285500644284639
  Basis Set: 6-31G*
  Basis Set:
  @DF-RHF Final Energy:  -383.92860308875646
    Total Energy =                       -383.9286030887560628
  @DF-RHF Final Energy:  -383.92877856149806
    Total Energy =                       -383.9287785614982340
  @DF-RHF Final Energy:  -383.92882235729900
    Total Energy =                       -383.9288223572989409
  @DF-RHF Final Energy:  -383.92885047536481
    Total Energy =                       -383.9288504753651523
  Basis Set: 6-31G*
  Basis Set:
  @DF-RHF Final Energy:  -383.92886265584565
    Total Energy =                       -383.9288626558455917
  Basis Set: 6-31G*
  Basis Set:
  Basis Set: 6-31G*
  Basis Set:
  @DF-RHF Final Energy:  -383.92886388923671
    Total Energy =                       -383.9288638892368226
  Basis Set: 6-31G*
  Basis Set:
  Basis Set: 6-31G*
  Basis Set:
  @DF-RHF Final Energy:  -383.92886491799538
    Total Energy =                       -383.9288649179950426
  Basis Set: 6-31G*
  Basis Set:
  Charge       = 0
  Multiplicity = 1
  Basis Set: 6-31G*
  Basis Set:

    Orbital Energies (a.u.)
    -----------------------

    Doubly Occupied:

       1A    -20.593794     2A    -20.545764     3A    -11.376548
       4A    -11.297365     5A    -11.241071     6A    -11.229878
       7A    -11.219151     8A    -11.212349     9A     -1.460436
      10A     -1.366460    11A     -1.085333    12A     -1.019180
      13A     -0.997295    14A     -0.887033    15A     -0.811830
      16A     -0.780847    17A     -0.698038    18A     -0.684802
      19A     -0.658383    20A     -0.634888    21A     -0.610317
      22A     -0.592690    23A     -0.580450    24A     -0.563661
      25A     -0.543907    26A     -0.525819    27A     -0.512557
      28A     -0.485694    29A     -0.476776    30A     -0.472643
      31A     -0.446116    32A     -0.434259

  @DF-RHF Final Energy:  -383.92886492729423

   => Energetics <=

    Nuclear Repulsion Energy =            384.9957586381316901
    One-Electron Energy =               -1285.7585829929171268
    Two-Electron Energy =                 516.8339594274914361
    DFT Exchange-Correlation Energy =       0.0000000000000000
    Empirical Dispersion Energy =           0.0000000000000000
    PCM Polarization Energy =               0.0000000000000000
    EFP Energy =                            0.0000000000000000
    Total Energy =                       -383.9288649272939438
    Molecular point group: c1
  Basis Set: 6-31G*
  Basis Set:

  -Total Gradient:
     Atom            X                  Y                   Z
    ------   -----------------  -----------------  -----------------
       1        0.000968421179    -0.001348329566    -0.003228241459
       2       -0.000964757296     0.002464813587     0.003128161680
       3        0.000003783309     0.000004284535     0.000013453911
       4       -0.000811308100    -0.002082661957     0.002891411426
       5       -0.000001034719     0.000000309483    -0.000003790479
       6       -0.000000676501    -0.000001843648    -0.000001628389
       7        0.000000557468    -0.000000945925    -0.000003846935
       8        0.000802750703     0.000964082308    -0.002799951483
       9        0.000001463360     0.000002537206     0.000005769967
      10       -0.000000175465    -0.000003463863    -0.000001891095
      11        0.000001594705    -0.000000281464    -0.000000390886
      12       -0.000001745710     0.000004492708    -0.000001734718
      13       -0.000000822780     0.000002032806     0.000002244970
      14       -0.000001473821     0.000001437411     0.000001375551
      15        0.000000335532    -0.000003165475    -0.000001945457
      16       -0.000000743316    -0.000002017724     0.000000059246
      17        0.000003908477     0.000000740385     0.000003050487
      18        0.000000024436    -0.000000270573    -0.000000535748
      19        0.000002042614    -0.000000364020    -0.000000406841
      20       -0.000002144076    -0.000001386214    -0.000001163750

  **** Optimization is complete! (in 12 steps) ****
    Final optimized geometry and variables:
    Molecular point group: c1

    Geometry (in Angstrom), charge = 0, multiplicity = 1:

    O           -2.378850046184     1.088685941212    -0.565556709430
    C           -1.905932133021     0.145025745088    -0.032379553956
    C           -2.693446344047    -1.105351725804     0.283239130460
    O           -0.620382513625     0.158887931698     0.344707553453
    H           -2.546756234616    -1.399880472223     1.316141631566
    H           -3.739187357465    -0.909182698890     0.100749427807
    H           -2.376551084598    -1.929558562435    -0.347035225310
    C            0.200835020798    -0.986524997229     0.188814728931
    C            1.633732915031    -0.579375933014     0.481867279848
    H            0.111321496526    -1.361654750862    -0.825920870163
    H           -0.115427630450    -1.767664673937     0.871503501212
    C            2.197978292043     0.442368432904    -0.506486760503
    H            2.242389143030    -1.481421962744     0.469702190886
    H            1.677413816432    -0.182867967031     1.492433044677
    C            3.640256616192     0.830832195272    -0.184251032656
    H            2.151133765380     0.030463718029    -1.512747838454
    H            1.569991055826     1.325965167908    -0.503624492839
    H            4.018226952670     1.553478325294    -0.900184367224
    H            4.298151251052    -0.033710667322    -0.208042190592
    H            3.714554629687     1.275701124335     0.803920347718

  Mulliken Charges: (a.u.)
   Center  Symbol    Alpha    Beta     Spin     Total
       1     O     4.25719  4.25719  0.00000 -0.51438
       2     C     2.61920  2.61920  0.00000  0.76160
       3     C     3.30430  3.30430  0.00000 -0.60859
       4     O     4.30803  4.30803  0.00000 -0.61606
       5     H     0.40204  0.40204  0.00000  0.19592
       6     H     0.38970  0.38970  0.00000  0.22060
       7     H     0.40331  0.40331  0.00000  0.19338
       8     C     3.00428  3.00428  0.00000 -0.00856
       9     C     3.16156  3.16156  0.00000 -0.32312
      10     H     0.41842  0.41842  0.00000  0.16317
      11     H     0.41790  0.41790  0.00000  0.16420
      12     C     3.15672  3.15672  0.00000 -0.31343
      13     H     0.41973  0.41973  0.00000  0.16054
      14     H     0.41132  0.41132  0.00000  0.17736
      15     C     3.24100  3.24100  0.00000 -0.48199
      16     H     0.42421  0.42421  0.00000  0.15157
      17     H     0.40181  0.40181  0.00000  0.19639
      18     H     0.41620  0.41620  0.00000  0.16759
      19     H     0.42326  0.42326  0.00000  0.15349
      20     H     0.41983  0.41983  0.00000  0.16034

   Total alpha = 32.00000, Total beta = 32.00000, Total charge =  0.00000
