  ==> Input File <==

--------------------------------------------------------------------------
set {
	reference rhf
	basis 6-31G*
}

set_num_threads( 1 )
memory 2 gb

molecule MOL {
0 1

H	 -0.254453	 -1.349717	 -4.756265
O	 -0.436624	 -2.199250	 -5.130669
C	 0.107086	 -3.203784	 -4.312534
C	 -0.664147	 -3.403161	 -3.012467
H	 0.073739	 -4.112147	 -4.900274
H	 1.154800	 -2.995547	 -4.098733
C	 -0.639924	 -2.188144	 -2.081868
H	 -1.692783	 -3.655195	 -3.256913
H	 -0.241032	 -4.262983	 -2.495702
C	 -1.376565	 -2.438667	 -0.762998
H	 -1.086864	 -1.339081	 -2.591478
H	 0.393884	 -1.916753	 -1.867559
C	 -1.309753	 -1.282496	 0.241564
H	 -2.418563	 -2.672468	 -0.973766
H	 -0.955970	 -3.326159	 -0.294854
C	 -2.037799	 -0.007733	 -0.193645
H	 -1.737852	 -1.622133	 1.182411
H	 -0.267135	 -1.048650	 0.451569
C	 -3.489788	 0.042957	 0.286558
H	 -2.017067	 0.064384	 -1.280144
H	 -1.513726	 0.868678	 0.179924
C	 -4.216917	 1.317354	 -0.141063
H	 -4.025645	 -0.823308	 -0.095450
H	 -3.513059	 -0.038752	 1.371301
H	 -4.239342	 1.411634	 -1.223113
H	 -5.243387	 1.322503	 0.212445
H	 -3.726170	 2.201406	 0.256408

	symmetry c1
}
set optking {
	frozen_dihedral = ("
		14 10 7 4,
		14 10 13 16,
		10 7 4 8,
		8 4 3 2,
		20 16 19 22,
		4 3 2 1
	")
}

ee = energy('scf')
oeprop('DIPOLE', 'QUADRUPOLE', 'MULLIKEN_CHARGES')
f=open( 'psi4out.xyz', 'w' )
f.write( "27  " )
f.write( str(ee) + "\n" )
f.write( MOL.save_string_xyz() )
f.close()
--------------------------------------------------------------------------

    Molecular point group: c1

    Geometry (in Angstrom), charge = 0, multiplicity = 1:

       Center              X                  Y                   Z               Mass
    ------------   -----------------  -----------------  -----------------  -----------------
           H          1.298333652770     0.130410082946    -3.018453322788     1.007825032070
           O          1.116162652770    -0.719122917054    -3.392857322788    15.994914619560
           C          1.659872652770    -1.723656917054    -2.574722322788    12.000000000000
           C          0.888639652770    -1.923033917054    -1.274655322788    12.000000000000
           H          1.626525652770    -2.632019917054    -3.162462322788     1.007825032070
           H          2.707586652770    -1.515419917054    -2.360921322788     1.007825032070
           C          0.912862652770    -0.708016917054    -0.344056322788    12.000000000000
           H         -0.139996347230    -2.175067917054    -1.519101322788     1.007825032070
           H          1.311754652770    -2.782855917054    -0.757890322788     1.007825032070
           C          0.176221652770    -0.958539917054     0.974813677212    12.000000000000
           H          0.465922652770     0.141046082946    -0.853666322788     1.007825032070
           H          1.946670652770    -0.436625917054    -0.129747322788     1.007825032070
           C          0.243033652770     0.197631082946     1.979375677212    12.000000000000
           H         -0.865776347230    -1.192340917054     0.764045677212     1.007825032070
           H          0.596816652770    -1.846031917054     1.442957677212     1.007825032070
           C         -0.485012347230     1.472394082946     1.544166677212    12.000000000000
           H         -0.185065347230    -0.142005917054     2.920222677212     1.007825032070
           H          1.285651652770     0.431477082946     2.189380677212     1.007825032070
           C         -1.937001347230     1.523084082946     2.024369677212    12.000000000000
           H         -0.464280347230     1.544511082946     0.457667677212     1.007825032070
           H          0.039060652770     2.348805082946     1.917735677212     1.007825032070
           C         -2.664130347230     2.797481082946     1.596748677212    12.000000000000
           H         -2.472858347230     0.656819082946     1.642361677212     1.007825032070
           H         -1.960272347230     1.441375082946     3.109112677212     1.007825032070
           H         -2.686555347230     2.891761082946     0.514698677212     1.007825032070
           H         -3.690600347230     2.802630082946     1.950256677212     1.007825032070
           H         -2.173383347230     3.681533082946     1.994219677212     1.007825032070

  Charge       = 0
  Multiplicity = 1
  Basis Set: 6-31G*
  Basis Set:

    Orbital Energies (a.u.)
    -----------------------

    Doubly Occupied:

       1A    -20.552568     2A    -11.267284     3A    -11.220046
       4A    -11.217527     5A    -11.215567     6A    -11.215503
       7A    -11.214731     8A    -11.213116     9A    -11.208662
      10A     -1.359295    11A     -1.096130    12A     -1.060868
      13A     -1.010531    14A     -0.948656    15A     -0.887521
      16A     -0.825279    17A     -0.804150    18A     -0.770482
      19A     -0.693792    20A     -0.655161    21A     -0.631550
      22A     -0.611769    23A     -0.604935    24A     -0.589555
      25A     -0.576142    26A     -0.560887    27A     -0.535176
      28A     -0.527608    29A     -0.508508    30A     -0.491996
      31A     -0.487477    32A     -0.482059    33A     -0.467012
      34A     -0.452795    35A     -0.447704    36A     -0.444214
      37A     -0.423843

  @DF-RHF Final Energy:  -388.27779815751984

   => Energetics <=

    Nuclear Repulsion Energy =            464.1490388460628651
    One-Electron Energy =               -1446.2936002929734514
    Two-Electron Energy =                 593.8667632893925656
    DFT Exchange-Correlation Energy =       0.0000000000000000
    Empirical Dispersion Energy =           0.0000000000000000
    PCM Polarization Energy =               0.0000000000000000
    EFP Energy =                            0.0000000000000000
    Total Energy =                       -388.2777981575179638

  Mulliken Charges: (a.u.)
   Center  Symbol    Alpha    Beta     Spin     Total
       1     H     0.27976  0.27976  0.00000  0.44047
       2     O     4.37098  4.37098  0.00000 -0.74196
       3     C     2.99742  2.99742  0.00000  0.00515
       4     C     3.16074  3.16074  0.00000 -0.32149
       5     H     0.41438  0.41438  0.00000  0.17125
       6     H     0.43192  0.43192  0.00000  0.13616
       7     C     3.16286  3.16286  0.00000 -0.32572
       8     H     0.41509  0.41509  0.00000  0.16983
       9     H     0.42416  0.42416  0.00000  0.15168
      10     C     3.15336  3.15336  0.00000 -0.30671
      11     H     0.42363  0.42363  0.00000  0.15275
      12     H     0.42516  0.42516  0.00000  0.14969
      13     C     3.15717  3.15717  0.00000 -0.31434
      14     H     0.42136  0.42136  0.00000  0.15729
      15     H     0.42115  0.42115  0.00000  0.15771
      16     C     3.15483  3.15483  0.00000 -0.30966
      17     H     0.41999  0.41999  0.00000  0.16003
      18     H     0.42205  0.42205  0.00000  0.15589
      19     C     3.15266  3.15266  0.00000 -0.30532
      20     H     0.42260  0.42260  0.00000  0.15480
      21     H     0.42118  0.42118  0.00000  0.15764
      22     C     3.23943  3.23943  0.00000 -0.47885
      23     H     0.42247  0.42247  0.00000  0.15507
      24     H     0.42268  0.42268  0.00000  0.15464
      25     H     0.42176  0.42176  0.00000  0.15648
      26     H     0.41925  0.41925  0.00000  0.16151
      27     H     0.42198  0.42198  0.00000  0.15604

   Total alpha = 37.00000, Total beta = 37.00000, Total charge =  0.00000
