  ==> Input File <==

--------------------------------------------------------------------------
set {
	reference rhf
	basis 6-31G*
}

set_num_threads( 4 )
memory 2 gb

molecule MOL {
0 1

O	 2.862325	 1.357334	 0.000267
C	 2.843464	 0.164689	 -0.000222
C	 1.546494	 -0.624492	 -0.000609
C	 4.124123	 -0.644674	 -0.000428
C	 0.291004	 0.242674	 0.000989
H	 1.557904	 -1.283758	 -0.867573
H	 1.558622	 -1.285963	 0.864672
C	 -0.994322	 -0.586602	 0.000262
H	 0.309117	 0.896430	 -0.865270
H	 0.309661	 0.894078	 0.869017
C	 -2.259874	 0.272531	 0.000494
H	 -1.004862	 -1.240012	 -0.870939
H	 -1.005220	 -1.241071	 0.870675
C	 -3.413265	 -0.348856	 0.790165
H	 -2.578561	 0.443306	 -1.026294
H	 -2.028771	 1.252754	 0.413713
C	 -4.673944	 0.515060	 0.785567
H	 -3.645978	 -1.328238	 0.377274
H	 -3.096399	 -0.518645	 1.817115
H	 -5.035742	 0.675087	 -0.226185
H	 -5.473420	 0.048100	 1.352566
H	 -4.482589	 1.489999	 1.224909
H	 4.165367	 -1.288615	 -0.874074
H	 4.976217	 0.020734	 -0.001915
H	 4.166763	 -1.286207	 0.874930

	symmetry c1
}
set optking {
	frozen_dihedral = ("
		15 11 8 12
	")
}

ee = optimize('scf')
oeprop('DIPOLE', 'QUADRUPOLE', 'MULLIKEN_CHARGES')
f=open( 'psi4out.xyz', 'w' )
f.write( "25  " )
f.write( str(ee) + "\n" )
f.write( MOL.save_string_xyz() )
f.close()
--------------------------------------------------------------------------

    Molecular point group: c1
  Charge       = 0
  Multiplicity = 1
  Basis Set: 6-31G*
  Basis Set:
  @DF-RHF Final Energy:  -387.13315712761732
    Total Energy =                       -387.1331571276177783
    Molecular point group: c1
  Basis Set: 6-31G*
  Basis Set:
  Basis Set: 6-31G*
  Basis Set:
  @DF-RHF Final Energy:  -387.13338218344398
    Total Energy =                       -387.1333821834441551
  Basis Set: 6-31G*
  Basis Set:
  Basis Set: 6-31G*
  Basis Set:
  @DF-RHF Final Energy:  -387.13346804048660
    Total Energy =                       -387.1334680404866049
  Basis Set: 6-31G*
  Basis Set:
  Basis Set: 6-31G*
  Basis Set:
  @DF-RHF Final Energy:  -387.13347853778379
    Total Energy =                       -387.1334785377838443
  Basis Set: 6-31G*
  Basis Set:
  Basis Set: 6-31G*
  Basis Set:
  @DF-RHF Final Energy:  -387.13348139746881
    Total Energy =                       -387.1334813974680173
  Basis Set: 6-31G*
  Basis Set:
  Charge       = 0
  Multiplicity = 1
  Basis Set: 6-31G*
  Basis Set:

    Orbital Energies (a.u.)
    -----------------------

    Doubly Occupied:

       1A    -20.550398     2A    -11.326259     3A    -11.231664
       4A    -11.228297     5A    -11.217024     6A    -11.216435
       7A    -11.215220     8A    -11.213414     9A    -11.208006
      10A     -1.395702    11A     -1.092651    12A     -1.055934
      13A     -1.014246    14A     -0.968364    15A     -0.890734
      16A     -0.814544    17A     -0.790199    18A     -0.730053
      19A     -0.658853    20A     -0.651773    21A     -0.633192
      22A     -0.622626    23A     -0.598345    24A     -0.582844
      25A     -0.565724    26A     -0.561621    27A     -0.538664
      28A     -0.528712    29A     -0.511614    30A     -0.489243
      31A     -0.486455    32A     -0.475932    33A     -0.463894
      34A     -0.459101    35A     -0.448993    36A     -0.399212

  @DF-RHF Final Energy:  -387.13348153543831

   => Energetics <=

    Nuclear Repulsion Energy =            438.6037858455450191
    One-Electron Energy =               -1393.8026506965686622
    Two-Electron Energy =                 568.0653833155846542
    DFT Exchange-Correlation Energy =       0.0000000000000000
    Empirical Dispersion Energy =           0.0000000000000000
    PCM Polarization Energy =               0.0000000000000000
    EFP Energy =                            0.0000000000000000
    Total Energy =                       -387.1334815354390457
    Molecular point group: c1
  Basis Set: 6-31G*
  Basis Set:

  -Total Gradient:
     Atom            X                  Y                   Z
    ------   -----------------  -----------------  -----------------
       1        0.000000974403     0.000000820193    -0.000003151815
       2       -0.000002603962     0.000002994185     0.000005075111
       3       -0.000008319308    -0.000000232876     0.000003834290
       4       -0.000001608557    -0.000001666496    -0.000001452080
       5        0.000006573768     0.000023471372     0.000038504206
       6       -0.000001690860    -0.000006476150    -0.000005290366
       7        0.000000659269     0.000005371275    -0.000004840743
       8       -0.003033826376    -0.004261363661     0.002664663022
       9       -0.000001418804    -0.000003329437    -0.000003001049
      10        0.000003673344    -0.000005284815    -0.000001070115
      11        0.003351925995     0.004773992389    -0.000683493876
      12        0.001993161255     0.002839600007    -0.002157715973
      13       -0.000020594785     0.000003975782    -0.000000615205
      14        0.000006973110    -0.000005545464     0.000042336110
      15       -0.002318430810    -0.003363437624     0.000127621845
      16        0.000018614165    -0.000006342159    -0.000005516777
      17        0.000005654567    -0.000006368365    -0.000013535781
      18       -0.000002001838     0.000005039635    -0.000000005843
      19        0.000001437357     0.000004606554     0.000000902788
      20        0.000001858008     0.000006996769    -0.000000705135
      21       -0.000000054749    -0.000004531946    -0.000005755386
      22       -0.000000037691    -0.000002851164     0.000006441393
      23        0.000003258146    -0.000005289066    -0.000002517597
      24       -0.000001143622     0.000000660787     0.000001344026
      25       -0.000003032022     0.000005190275    -0.000002055052

  **** Optimization is complete! (in 6 steps) ****
    Final optimized geometry and variables:
    Molecular point group: c1

    Geometry (in Angstrom), charge = 0, multiplicity = 1:

    O            2.846738333908     1.305094423261    -0.179326395733
    C            2.822588388307     0.112692726433    -0.197763811922
    C            1.522518931024    -0.671224411480    -0.178140552944
    C            4.099291020104    -0.701684038324    -0.242324295378
    C            0.271230649012     0.200381204025    -0.133417489880
    H            1.510470296457    -1.318195458583    -1.054350466241
    H            1.552617431950    -1.345226550321     0.677120171784
    C           -1.019356875404    -0.623745407429    -0.104635470108
    H            0.266581020091     0.862120100647    -0.994178504820
    H            0.316163547072     0.844057063326     0.739282738908
    C           -2.284387223293     0.250647132511    -0.127475480933
    H           -1.022048932601    -1.280773651705    -0.971776012609
    H           -1.020615643739    -1.259905883121     0.777770732600
    C           -3.466371066192    -0.384147489761     0.611391144803
    H           -2.586224089321     0.419048277688    -1.158631972751
    H           -2.074569453201     1.224890580209     0.307228640514
    C           -4.741520407238     0.453831092498     0.531631149889
    H           -3.657764566207    -1.373564327414     0.200353430957
    H           -3.197726565004    -0.534890075703     1.654860810820
    H           -5.058394105528     0.589290175448    -0.498678386512
    H           -5.557966022957    -0.018809963371     1.068987013002
    H           -4.589605162336     1.439951423132     0.961562956497
    H            4.116747394580    -1.330807944951    -1.127504262312
    H            4.954045268080    -0.039790112717    -0.253101938993
    H            4.160057786794    -1.358214656699     0.620751708808

  Mulliken Charges: (a.u.)
   Center  Symbol    Alpha    Beta     Spin     Total
       1     O     4.26116  4.26116  0.00000 -0.52232
       2     C     2.73564  2.73564  0.00000  0.52872
       3     C     3.21114  3.21114  0.00000 -0.42229
       4     C     3.28664  3.28664  0.00000 -0.57328
       5     C     3.14972  3.14972  0.00000 -0.29945
       6     H     0.41019  0.41019  0.00000  0.17963
       7     H     0.41007  0.41007  0.00000  0.17985
       8     C     3.15497  3.15497  0.00000 -0.30993
       9     H     0.41209  0.41209  0.00000  0.17582
      10     H     0.41218  0.41218  0.00000  0.17564
      11     C     3.15216  3.15216  0.00000 -0.30431
      12     H     0.42344  0.42344  0.00000  0.15311
      13     H     0.42312  0.42312  0.00000  0.15377
      14     C     3.15292  3.15292  0.00000 -0.30583
      15     H     0.42181  0.42181  0.00000  0.15639
      16     H     0.41964  0.41964  0.00000  0.16072
      17     C     3.23976  3.23976  0.00000 -0.47953
      18     H     0.42357  0.42357  0.00000  0.15285
      19     H     0.42335  0.42335  0.00000  0.15329
      20     H     0.42183  0.42183  0.00000  0.15633
      21     H     0.41950  0.41950  0.00000  0.16100
      22     H     0.42114  0.42114  0.00000  0.15773
      23     H     0.40874  0.40874  0.00000  0.18251
      24     H     0.39648  0.39648  0.00000  0.20704
      25     H     0.40873  0.40873  0.00000  0.18253

   Total alpha = 36.00000, Total beta = 36.00000, Total charge = -0.00000
