                              Psi4 1.0.54 Driver

  ==> Input File <==

--------------------------------------------------------------------------
set {
	reference rhf
	basis cc-pvtz
}

set_num_threads( 4 )
memory 2 gb

molecule MOL {
0 1

H	 0.386329	 1.895405	 0.491332
O	 0.057669	 1.301365	 -0.158528
C	 0.004145	 -0.005141	 0.363049
C	 1.199168	 -0.827145	 -0.096690
C	 -1.316386	 -0.602081	 -0.083515
H	 0.012026	 0.043363	 1.450619
H	 1.216685	 -0.896776	 -1.178167
H	 2.129940	 -0.372354	 0.228035
H	 1.160783	 -1.829622	 0.314294
H	 -1.357882	 -0.655920	 -1.165207
H	 -2.140147	 0.011735	 0.257253
H	 -1.440790	 -1.601175	 0.317669

	symmetry c1
}
set optking {
	frozen_dihedral = ("
		1 2 3 4
	")
}

ee,wfn = optimize('scf', return_wfn=True)
oeprop( wfn, 'DIPOLE', 'QUADRUPOLE', 'MULLIKEN_CHARGES')
f=open( 'psi4out.xyz', 'w' )
f.write( "12  " )
f.write( str(ee) + "\n" )
f.write( MOL.save_string_xyz() )
f.close()
--------------------------------------------------------------------------

    Molecular point group: c1
  Charge       = 0
  Multiplicity = 1
  Basis Set: CC-PVTZ
  Basis Set:
  @DF-RHF Final Energy:  -193.19436340127999
    Total Energy =                       -193.1943634012800999
    Molecular point group: c1
  Basis Set: CC-PVTZ
  Basis Set:
  Basis Set: CC-PVTZ
  Basis Set:
  @DF-RHF Final Energy:  -193.19448868582799
    Total Energy =                       -193.1944886858279915
  Basis Set: CC-PVTZ
  Basis Set:
  Basis Set: CC-PVTZ
  Basis Set:
  @DF-RHF Final Energy:  -193.19456096029666
    Total Energy =                       -193.1945609602966556
  Basis Set: CC-PVTZ
  Basis Set:
  Charge       = 0
  Multiplicity = 1
  Basis Set: CC-PVTZ
  Basis Set:

    Orbital Energies (a.u.)
    -----------------------

    Doubly Occupied:

       1A    -20.543132     2A    -11.274673     3A    -11.205821
       4A    -11.204626     5A     -1.362963     6A     -1.042803
       7A     -0.936431     8A     -0.800346     9A     -0.713747
      10A     -0.611490    11A     -0.600439    12A     -0.557062
      13A     -0.538354    14A     -0.525918    15A     -0.507022
      16A     -0.465635    17A     -0.432569

  @DF-RHF Final Energy:  -193.19456171154488

   => Energetics <=

    Nuclear Repulsion Energy =            135.5363796360361164
    One-Electron Energy =                -530.8158188661421946
    Two-Electron Energy =                 202.0848775185611714
    DFT Exchange-Correlation Energy =       0.0000000000000000
    Empirical Dispersion Energy =           0.0000000000000000
    PCM Polarization Energy =               0.0000000000000000
    EFP Energy =                            0.0000000000000000
    Total Energy =                       -193.1945617115448783
    Molecular point group: c1
  Basis Set: CC-PVTZ
  Basis Set:

  -Total Gradient:
     Atom            X                  Y                   Z
    ------   -----------------  -----------------  -----------------
       1       -0.001382447369     0.000270889491     0.000411052958
       2        0.001510420096    -0.000290036583    -0.000760939362
       3        0.000377677828     0.000490264041     0.000959313897
       4       -0.000510062469    -0.000356946665    -0.000659850153
       5       -0.000008082916    -0.000062996337     0.000045365093
       6       -0.000014396666    -0.000030376312    -0.000036788460
       7       -0.000006628908     0.000010742706     0.000042439834
       8       -0.000035777151    -0.000000437627    -0.000009052089
       9        0.000034391655    -0.000051287403    -0.000004628441
      10        0.000024686050     0.000010790126     0.000026678450
      11        0.000018481121    -0.000000295591     0.000001942601
      12       -0.000008261271     0.000009690155    -0.000015534328

  **** Optimization is complete! (in 4 steps) ****
    Final optimized geometry and variables:
    Molecular point group: c1

    Geometry (in Angstrom), charge = 0, multiplicity = 1:

    H            0.390342111737     1.922404533827     0.384166206254
    O            0.058322758598     1.292477017537    -0.226414562808
    C            0.009801437547     0.009239966674     0.360652882467
    C            1.211444446191    -0.809859962108    -0.084764684519
    C           -1.304453294761    -0.637034327467    -0.040588076122
    H            0.031499618608     0.107196958699     1.443122285770
    H            1.212931037313    -0.911629059264    -1.163629232105
    H            2.135437309796    -0.324729951572     0.208138156424
    H            1.193402497784    -1.800791365494     0.355744990684
    H           -1.368295568719    -0.710580240512    -1.120123214544
    H           -2.140039875914    -0.042832497839     0.306937057121
    H           -1.390165245078    -1.633682844462     0.377328927319

  Mulliken Charges: (a.u.)
   Center  Symbol    Alpha    Beta     Spin     Total
       1     H     0.39155  0.39155  0.00000  0.21690
       2     O     4.21050  4.21050  0.00000 -0.42099
       3     C     2.92575  2.92575  0.00000  0.14850
       4     C     3.13787  3.13787  0.00000 -0.27574
       5     C     3.13804  3.13804  0.00000 -0.27609
       6     H     0.46734  0.46734  0.00000  0.06533
       7     H     0.45242  0.45242  0.00000  0.09516
       8     H     0.45518  0.45518  0.00000  0.08965
       9     H     0.45913  0.45913  0.00000  0.08174
      10     H     0.45217  0.45217  0.00000  0.09566
      11     H     0.45046  0.45046  0.00000  0.09909
      12     H     0.45960  0.45960  0.00000  0.08080

   Total alpha = 17.00000, Total beta = 17.00000, Total charge = -0.00000

*** Psi4 exiting successfully. Buy a developer a beer!
