  ==> Input File <==

--------------------------------------------------------------------------
set {
	reference rhf
	basis cc-pvtz
}

set_num_threads( 4 )
memory 2 gb

molecule MOL {
0 1

H	 -2.837570	 0.171066	 -0.030741
N	 -1.875141	 0.287517	 0.204289
C	 -1.132280	 0.853358	 -0.906622
H	 -1.510180	 -0.611858	 0.436507
C	 0.325538	 1.015302	 -0.541672
H	 -1.194449	 0.258724	 -1.817165
H	 -1.536460	 1.834418	 -1.130700
O	 0.881195	 -0.248324	 -0.336237
H	 0.852468	 1.529642	 -1.344151
H	 0.411703	 1.614708	 0.361775
C	 2.208068	 -0.234417	 0.074171
H	 2.725499	 -1.027054	 -0.446768
H	 2.688377	 0.712084	 -0.164856
H	 2.295137	 -0.403407	 1.144883

	symmetry c1
}
set optking {
	frozen_dihedral = ("
		5 8 11 13
	")
}

ee = optimize('scf')
oeprop('DIPOLE', 'QUADRUPOLE', 'MULLIKEN_CHARGES')
f=open( 'psi4out.xyz', 'w' )
f.write( "14  " )
f.write( str(ee) + "\n" )
f.write( MOL.save_string_xyz() )
f.close()
--------------------------------------------------------------------------

    Molecular point group: c1
  Charge       = 0
  Multiplicity = 1
  Basis Set: CC-PVTZ
  Basis Set:
  @DF-RHF Final Energy:  -248.22325246432666
    Total Energy =                       -248.2232524643268334
    Molecular point group: c1
  Basis Set: CC-PVTZ
  Basis Set:
  Basis Set: CC-PVTZ
  Basis Set:
  @DF-RHF Final Energy:  -248.22342161682073
    Total Energy =                       -248.2234216168207013
  Basis Set: CC-PVTZ
  Basis Set:
  Basis Set: CC-PVTZ
  Basis Set:
  @DF-RHF Final Energy:  -248.22347546082776
    Total Energy =                       -248.2234754608275580
  Basis Set: CC-PVTZ
  Basis Set:
  Charge       = 0
  Multiplicity = 1
  Basis Set: CC-PVTZ
  Basis Set:

    Orbital Energies (a.u.)
    -----------------------

    Doubly Occupied:

       1A    -20.548023     2A    -15.523246     3A    -11.264328
       4A    -11.263326     5A    -11.239499     6A     -1.380861
       7A     -1.175683     8A     -1.000402     9A     -0.907829
      10A     -0.815503    11A     -0.684492    12A     -0.673846
      13A     -0.645658    14A     -0.611329    15A     -0.607546
      16A     -0.541312    17A     -0.534528    18A     -0.497472
      19A     -0.473969    20A     -0.415631    21A     -0.383629

  @DF-RHF Final Energy:  -248.22347584811396

   => Energetics <=

    Nuclear Repulsion Energy =            194.4696709846240594
    One-Electron Energy =                -723.0100710260721826
    Two-Electron Energy =                 280.3169241933338753
    DFT Exchange-Correlation Energy =       0.0000000000000000
    Empirical Dispersion Energy =           0.0000000000000000
    PCM Polarization Energy =               0.0000000000000000
    EFP Energy =                            0.0000000000000000
    Total Energy =                       -248.2234758481142762
    Molecular point group: c1
  Basis Set: CC-PVTZ
  Basis Set:

  -Total Gradient:
     Atom            X                  Y                   Z
    ------   -----------------  -----------------  -----------------
       1        0.000006385199     0.000007031347    -0.000010840166
       2        0.000017883028     0.000008868492    -0.000010257764
       3       -0.000028830308     0.000023186962    -0.000010428567
       4        0.000006876995     0.000004598229    -0.000003464473
       5        0.000516403511    -0.000043197403    -0.001838113222
       6       -0.000002574994     0.000001467999     0.000012414764
       7       -0.000032623696     0.000009567629    -0.000008928827
       8       -0.000874634897     0.000330821966     0.003333985190
       9       -0.000000834972    -0.000021002714     0.000010624255
      10        0.000007967874    -0.000000532873    -0.000009869677
      11        0.001061757835    -0.001213078845    -0.003621180131
      12        0.000024281599    -0.000008559197    -0.000006858217
      13       -0.000690759585     0.000893866257     0.002160543317
      14       -0.000011297586     0.000006962152     0.000002373516

  **** Optimization is complete! (in 4 steps) ****
    Final optimized geometry and variables:
    Molecular point group: c1

    Geometry (in Angstrom), charge = 0, multiplicity = 1:

    H           -2.923661476744    -0.158495794384     0.266632586348
    N           -1.961553283637    -0.036438199999     0.500053718294
    C           -1.224276605372     0.535488776954    -0.611369096084
    H           -1.590625615522    -0.934028030170     0.729641510371
    C            0.232655197275     0.708793481376    -0.248264251878
    H           -1.282348969587    -0.059804497297    -1.521774054334
    H           -1.636320049231     1.513439871948    -0.835242108120
    O            0.795635986191    -0.553132517618    -0.045332319206
    H            0.754142040968     1.225360609206    -1.051885301316
    H            0.312203454265     1.310532382325     0.654010698041
    C            2.127654283923    -0.563575846716     0.363923857835
    H            2.643646596595    -1.370909478923    -0.138337664570
    H            2.626663890986     0.372681165251     0.134036200963
    H            2.196939209952    -0.718931288041     1.436781396131

  Mulliken Charges: (a.u.)
   Center  Symbol    Alpha    Beta     Spin     Total
       1     H     0.43032  0.43032  0.00000  0.13936
       2     N     3.69422  3.69422  0.00000 -0.38844
       3     C     3.02394  3.02394  0.00000 -0.04788
       4     H     0.42226  0.42226  0.00000  0.15548
       5     C     2.96750  2.96750  0.00000  0.06501
       6     H     0.46479  0.46479  0.00000  0.07043
       7     H     0.45873  0.45873  0.00000  0.08254
       8     O     4.18353  4.18353  0.00000 -0.36706
       9     H     0.46929  0.46929  0.00000  0.06142
      10     H     0.46959  0.46959  0.00000  0.06082
      11     C     3.02846  3.02846  0.00000 -0.05693
      12     H     0.45375  0.45375  0.00000  0.09250
      13     H     0.47205  0.47205  0.00000  0.05590
      14     H     0.46157  0.46157  0.00000  0.07686

   Total alpha = 21.00000, Total beta = 21.00000, Total charge =  0.00000
