  ==> Input File <==

--------------------------------------------------------------------------
set {
	reference rhf
	basis 6-31G*
}

set_num_threads( 4 )
memory 2 gb

molecule MOL {
0 1

H	 -2.572589	 1.116524	 -0.796329
N	 -1.583928	 1.148697	 -0.639836
C	 -0.868263	 0.524246	 -1.738466
H	 -1.399179	 0.647272	 0.207247
C	 0.621063	 0.548681	 -1.465615
H	 -1.166516	 -0.508131	 -1.926201
H	 -1.062656	 1.089343	 -2.644919
O	 0.874168	 -0.245412	 -0.342030
H	 1.167986	 0.164541	 -2.326399
H	 0.942979	 1.571861	 -1.284763
C	 2.202317	 -0.244239	 0.074611
H	 2.711377	 -1.041390	 -0.449894
H	 2.692099	 0.699270	 -0.159667
H	 2.283185	 -0.418429	 1.145558

	symmetry c1
}
set optking {
	frozen_dihedral = ("
		5 8 11 13
	")
}

ee = optimize('scf')
oeprop('DIPOLE', 'QUADRUPOLE', 'MULLIKEN_CHARGES')
f=open( 'psi4out.xyz', 'w' )
f.write( "14  " )
f.write( str(ee) + "\n" )
f.write( MOL.save_string_xyz() )
f.close()
--------------------------------------------------------------------------

    Molecular point group: c1
  Charge       = 0
  Multiplicity = 1
  Basis Set: 6-31G*
  Basis Set:
  @DF-RHF Final Energy:  -248.12247656244861
    Total Energy =                       -248.1224765624484689
    Molecular point group: c1
  Basis Set: 6-31G*
  Basis Set:
  Basis Set: 6-31G*
  Basis Set:
  @DF-RHF Final Energy:  -248.12313875153487
    Total Energy =                       -248.1231387515347251
  Basis Set: 6-31G*
  Basis Set:
  Basis Set: 6-31G*
  Basis Set:
  @DF-RHF Final Energy:  -248.12329891140820
    Total Energy =                       -248.1232989114083693
  Basis Set: 6-31G*
  Basis Set:
  Charge       = 0
  Multiplicity = 1
  Basis Set: 6-31G*
  Basis Set:

    Orbital Energies (a.u.)
    -----------------------

    Doubly Occupied:

       1A    -20.555646     2A    -15.528153     3A    -11.266041
       4A    -11.266003     5A    -11.240494     6A     -1.379001
       7A     -1.173319     8A     -0.999078     9A     -0.907363
      10A     -0.815127    11A     -0.682565    12A     -0.672839
      13A     -0.644700    14A     -0.610018    15A     -0.605178
      16A     -0.540011    17A     -0.531905    18A     -0.497223
      19A     -0.472295    20A     -0.414572    21A     -0.379844

  @DF-RHF Final Energy:  -248.12329982986410

   => Energetics <=

    Nuclear Repulsion Energy =            194.5480129879562696
    One-Electron Energy =                -722.9798754618240082
    Two-Electron Energy =                 280.3085626440037572
    DFT Exchange-Correlation Energy =       0.0000000000000000
    Empirical Dispersion Energy =           0.0000000000000000
    PCM Polarization Energy =               0.0000000000000000
    EFP Energy =                            0.0000000000000000
    Total Energy =                       -248.1232998298640382
    Molecular point group: c1
  Basis Set: 6-31G*
  Basis Set:

  -Total Gradient:
     Atom            X                  Y                   Z
    ------   -----------------  -----------------  -----------------
       1        0.000005290386     0.000000331671    -0.000022632821
       2        0.000003197762     0.000002826540    -0.000001867813
       3       -0.000010604869    -0.000100120359     0.000063392046
       4        0.000018309997     0.000015753566    -0.000016536477
       5       -0.000375299308     0.002056470711     0.001453015450
       6       -0.000029085909    -0.000009710999    -0.000006805052
       7        0.000020561539     0.000002328179     0.000009435868
       8        0.000915357602    -0.003078523797    -0.002767523745
       9       -0.000016573193    -0.000038816183     0.000054463458
      10        0.000030791310     0.000013090001    -0.000006329974
      11       -0.001262081587     0.002188018266     0.003963518481
      12       -0.000003028487    -0.000015125512    -0.000013607544
      13        0.000790896641    -0.001055858258    -0.002682891848
      14       -0.000087731884     0.000019336175    -0.000025630028

  **** Optimization is complete! (in 4 steps) ****
    Final optimized geometry and variables:
    Molecular point group: c1

    Geometry (in Angstrom), charge = 0, multiplicity = 1:

    H           -2.822778691311     0.772086064225     0.028413966355
    N           -1.832723717190     0.807199117409     0.174917812905
    C           -1.126206097242     0.186242861568    -0.931588707545
    H           -1.637671643334     0.305212525218     1.019280738911
    C            0.365669151098     0.212846545057    -0.673139071435
    H           -1.424914637496    -0.845961296598    -1.119291764525
    H           -1.329398939747     0.753248973194    -1.834925483503
    O            0.627019205088    -0.580090254515     0.449813300038
    H            0.902351746466    -0.169284432582    -1.541306467737
    H            0.687643043143     1.235567392825    -0.493866594809
    C            1.953727522842    -0.589326473102     0.880184541592
    H            2.511778719758    -1.387224320148     0.394679567923
    H            2.454723731985     0.348417886934     0.655712272039
    H            1.964406357147    -0.755996606517     1.949083113110

  Mulliken Charges: (a.u.)
   Center  Symbol    Alpha    Beta     Spin     Total
       1     H     0.33289  0.33289  0.00000  0.33422
       2     N     3.92533  3.92533  0.00000 -0.85067
       3     C     3.06898  3.06898  0.00000 -0.13796
       4     H     0.32367  0.32367  0.00000  0.35266
       5     C     2.99006  2.99006  0.00000  0.01987
       6     H     0.42658  0.42658  0.00000  0.14684
       7     H     0.42058  0.42058  0.00000  0.15885
       8     O     4.31230  4.31230  0.00000 -0.62461
       9     H     0.43139  0.43139  0.00000  0.13721
      10     H     0.42176  0.42176  0.00000  0.15649
      11     C     3.07650  3.07650  0.00000 -0.15301
      12     H     0.42665  0.42665  0.00000  0.14670
      13     H     0.42881  0.42881  0.00000  0.14239
      14     H     0.41450  0.41450  0.00000  0.17100

   Total alpha = 21.00000, Total beta = 21.00000, Total charge = -0.00000
