                              Psi4 1.0.54 Driver

  ==> Input File <==

--------------------------------------------------------------------------
set {
	reference rhf
	basis cc-pvtz
}

set_num_threads( 4 )
memory 2 gb

molecule MOL {
0 1

H	 -3.642803	 0.223764	 0.000000
C	 -2.571694	 0.154940	 0.000000
C	 -1.957430	 -1.086193	 0.000000
C	 -1.807010	 1.303726	 0.000000
H	 -2.551343	 -1.979690	 0.000000
C	 -0.582569	 -1.174355	 -0.000000
H	 -2.279784	 2.266745	 0.000000
C	 -0.427070	 1.213345	 -0.000000
H	 -0.094754	 -2.127617	 -0.000000
C	 0.197058	 -0.024122	 -0.000000
H	 0.151559	 2.115193	 -0.000000
C	 1.690191	 -0.173294	 -0.000000
C	 2.552301	 1.068247	 0.000000
O	 2.189365	 -1.253195	 0.000000
H	 2.352207	 1.674319	 -0.875568
H	 3.587612	 0.766815	 0.000000
H	 2.352207	 1.674319	 0.875568

	symmetry c1
}
ee,wfn = energy('scf', return_wfn=True)
oeprop( wfn, 'DIPOLE', 'QUADRUPOLE', 'MULLIKEN_CHARGES')
oeprop( wfn, 'GRID_ESP')
f=open( 'psi4out.xyz', 'w' )
f.write( "17  " )
f.write( str(ee) + "\n" )
f.write( MOL.save_string_xyz() )
f.close()
--------------------------------------------------------------------------

    Molecular point group: c1

    Geometry (in Angstrom), charge = 0, multiplicity = 1:

       Center              X                  Y                   Z               Mass
    ------------   -----------------  -----------------  -----------------  -----------------
           H         -3.642952531184     0.223824533638     0.000000000000     1.007825032070
           C         -2.571843531184     0.155000533638     0.000000000000    12.000000000000
           C         -1.957579531184    -1.086132466362     0.000000000000    12.000000000000
           C         -1.807159531184     1.303786533638     0.000000000000    12.000000000000
           H         -2.551492531184    -1.979629466362     0.000000000000     1.007825032070
           C         -0.582718531184    -1.174294466362     0.000000000000    12.000000000000
           H         -2.279933531184     2.266805533638     0.000000000000     1.007825032070
           C         -0.427219531184     1.213405533638     0.000000000000    12.000000000000
           H         -0.094903531184    -2.127556466362     0.000000000000     1.007825032070
           C          0.196908468816    -0.024061466362     0.000000000000    12.000000000000
           H          0.151409468816     2.115253533638     0.000000000000     1.007825032070
           C          1.690041468816    -0.173233466362     0.000000000000    12.000000000000
           C          2.552151468816     1.068307533638     0.000000000000    12.000000000000
           O          2.189215468816    -1.253134466362     0.000000000000    15.994914619560
           H          2.352057468816     1.674379533638    -0.875568000000     1.007825032070
           H          3.587462468816     0.766875533638     0.000000000000     1.007825032070
           H          2.352057468816     1.674379533638     0.875568000000     1.007825032070

  Charge       = 0
  Multiplicity = 1
  Basis Set: CC-PVTZ
  Basis Set:

    Orbital Energies (a.u.)
    -----------------------

    Doubly Occupied:

       1A    -20.540302     2A    -11.327773     3A    -11.246983
       4A    -11.244562     5A    -11.242517     6A    -11.238922
       7A    -11.238849     8A    -11.236549     9A    -11.228826
      10A     -1.401694    11A     -1.171196    12A     -1.053448
      13A     -1.030748    14A     -0.998791    15A     -0.864680
      16A     -0.838831    17A     -0.763537    18A     -0.713632
      19A     -0.658516    20A     -0.651965    21A     -0.628802
      22A     -0.609376    23A     -0.602640    24A     -0.601601
      25A     -0.554992    26A     -0.529087    27A     -0.522430
      28A     -0.503521    29A     -0.497779    30A     -0.414441
      31A     -0.351059    32A     -0.346785

  @DF-RHF Final Energy:  -382.60582449957519

   => Energetics <=

    Nuclear Repulsion Energy =            404.5136261743807609
    One-Electron Energy =               -1320.5292377969371955
    Two-Electron Energy =                 533.4097871229812426
    DFT Exchange-Correlation Energy =       0.0000000000000000
    Empirical Dispersion Energy =           0.0000000000000000
    PCM Polarization Energy =               0.0000000000000000
    EFP Energy =                            0.0000000000000000
    Total Energy =                       -382.6058244995751920

  Mulliken Charges: (a.u.)
   Center  Symbol    Alpha    Beta     Spin     Total
       1     H     0.42017  0.42017  0.00000  0.15966
       2     C     3.07196  3.07196  0.00000 -0.14392
       3     C     3.07513  3.07513  0.00000 -0.15026
       4     C     3.07830  3.07830  0.00000 -0.15661
       5     H     0.42024  0.42024  0.00000  0.15953
       6     C     3.07336  3.07336  0.00000 -0.14673
       7     H     0.42240  0.42240  0.00000  0.15521
       8     C     3.08618  3.08618  0.00000 -0.17236
       9     H     0.40670  0.40670  0.00000  0.18660
      10     C     3.01378  3.01378  0.00000 -0.02756
      11     H     0.42140  0.42140  0.00000  0.15720
      12     C     2.83171  2.83171  0.00000  0.33658
      13     C     3.16802  3.16802  0.00000 -0.33605
      14     O     4.18448  4.18448  0.00000 -0.36895
      15     H     0.44721  0.44721  0.00000  0.10557
      16     H     0.43175  0.43175  0.00000  0.13651
      17     H     0.44721  0.44721  0.00000  0.10557

   Total alpha = 32.00000, Total beta = 32.00000, Total charge = -0.00000

*** Psi4 exiting successfully. Buy a developer a beer!
