  ==> Input File <==

--------------------------------------------------------------------------
set {
	reference rhf
	basis 6-31G*
}

set_num_threads( 4 )
memory 2 gb

molecule MOL {
0 1

H	 2.913941	 1.773294	 0.229160
C	 2.320158	 0.863947	 0.256484
C	 0.851043	 1.180754	 -0.005151
H	 2.434479	 0.406295	 1.232828
H	 2.731460	 0.182808	 -0.480683
N	 -0.000257	 -0.000071	 0.054619
H	 0.518765	 1.880000	 0.751832
H	 0.742995	 1.696980	 -0.963548
C	 -1.363055	 0.315058	 0.462241
C	 0.047691	 -0.784612	 -1.172106
C	 -2.412078	 -0.285320	 -0.468531
H	 -1.482241	 1.391144	 0.451970
H	 -1.549931	 -0.001174	 1.492681
C	 -0.221006	 -2.267644	 -0.936185
H	 1.037014	 -0.687337	 -1.600978
H	 -0.647272	 -0.391118	 -1.919753
H	 -2.262839	 0.075384	 -1.480151
H	 -2.369300	 -1.368867	 -0.491760
H	 -3.410332	 -0.003975	 -0.144961
H	 0.505343	 -2.671829	 -0.239991
H	 -1.209526	 -2.446479	 -0.527042
H	 -0.148665	 -2.818459	 -1.869831

	symmetry c1
}
set optking {
	frozen_dihedral = ("
		3 6 9 11
	")
}

ee = optimize('scf')
oeprop('DIPOLE', 'QUADRUPOLE', 'MULLIKEN_CHARGES')
f=open( 'psi4out.xyz', 'w' )
f.write( "22  " )
f.write( str(ee) + "\n" )
f.write( MOL.save_string_xyz() )
f.close()
--------------------------------------------------------------------------

    Molecular point group: c1
  Charge       = 0
  Multiplicity = 1
  Basis Set: 6-31G*
  Basis Set:
  @DF-RHF Final Energy:  -290.34271747350317
    Total Energy =                       -290.3427174735035123
    Molecular point group: c1
  Basis Set: 6-31G*
  Basis Set:
  Basis Set: 6-31G*
  Basis Set:
  @DF-RHF Final Energy:  -290.35538479845656
    Total Energy =                       -290.3553847984566119
  Basis Set: 6-31G*
  Basis Set:
  Basis Set: 6-31G*
  Basis Set:
  @DF-RHF Final Energy:  -290.35882725745989
    Total Energy =                       -290.3588272574601206
  Basis Set: 6-31G*
  Basis Set:
  Basis Set: 6-31G*
  Basis Set:
  @DF-RHF Final Energy:  -290.35998088432893
    Total Energy =                       -290.3599808843291044
  Basis Set: 6-31G*
  Basis Set:
  @DF-RHF Final Energy:  -290.36061833433018
    Total Energy =                       -290.3606183343299563
  @DF-RHF Final Energy:  -290.36093833617468
    Total Energy =                       -290.3609383361749678
  @DF-RHF Final Energy:  -290.36114076749419
    Total Energy =                       -290.3611407674943621
  @DF-RHF Final Energy:  -290.36144621962524
    Total Energy =                       -290.3614462196252930
  @DF-RHF Final Energy:  -290.36172629187837
    Total Energy =                       -290.3617262918785400
  @DF-RHF Final Energy:  -290.36202490866833
    Total Energy =                       -290.3620249086684453
  @DF-RHF Final Energy:  -290.36212570863745
    Total Energy =                       -290.3621257086373930
  @DF-RHF Final Energy:  -290.36243117587452
    Total Energy =                       -290.3624311758740077
  @DF-RHF Final Energy:  -290.36282264920453
    Total Energy =                       -290.3628226492048157
  @DF-RHF Final Energy:  -290.36290072363380
    Total Energy =                       -290.3629007236336292
  @DF-RHF Final Energy:  -290.36309479571679
    Total Energy =                       -290.3630947957166768
  @DF-RHF Final Energy:  -290.36309523173213
    Total Energy =                       -290.3630952317319043
  @DF-RHF Final Energy:  -290.36332168099557
    Total Energy =                       -290.3633216809957958
  @DF-RHF Final Energy:  -290.36339139299565
    Total Energy =                       -290.3633913929955952
  @DF-RHF Final Energy:  -290.36342881805621
    Total Energy =                       -290.3634288180564909
  @DF-RHF Final Energy:  -290.36350587688270
    Total Energy =                       -290.3635058768828685
  @DF-RHF Final Energy:  -290.36354522677334
    Total Energy =                       -290.3635452267734536
  @DF-RHF Final Energy:  -290.36354480348410
    Total Energy =                       -290.3635448034842739
  @DF-RHF Final Energy:  -290.36354441129498
    Total Energy =                       -290.3635444112950381
  @DF-RHF Final Energy:  -290.36354470741844
    Total Energy =                       -290.3635447074182707
  @DF-RHF Final Energy:  -290.36354371128022
    Total Energy =                       -290.3635437112807836
  @DF-RHF Final Energy:  -290.36354275906558
    Total Energy =                       -290.3635427590651261
  @DF-RHF Final Energy:  -290.36354191960532
    Total Energy =                       -290.3635419196049270
  @DF-RHF Final Energy:  -290.36353951889174
    Total Energy =                       -290.3635395188919688
  @DF-RHF Final Energy:  -290.36354340674649
    Total Energy =                       -290.3635434067463166
  @DF-RHF Final Energy:  -290.36354398065481
    Total Energy =                       -290.3635439806550380
  @DF-RHF Final Energy:  -290.36354402554025
    Total Energy =                       -290.3635440255397953
  @DF-RHF Final Energy:  -290.36354300638050
    Total Energy =                       -290.3635430063800413
  @DF-RHF Final Energy:  -290.36354307722206
    Total Energy =                       -290.3635430772222321
  @DF-RHF Final Energy:  -290.36354322385353
    Total Energy =                       -290.3635432238536396
  @DF-RHF Final Energy:  -290.36354318904398
    Total Energy =                       -290.3635431890438099
  @DF-RHF Final Energy:  -290.36354214009344
    Total Energy =                       -290.3635421400931591
  Basis Set: 6-31G*
  Basis Set:
  @DF-RHF Final Energy:  -290.36354147464851
    Total Energy =                       -290.3635414746485139
  Basis Set: 6-31G*
  Basis Set:
  Basis Set: 6-31G*
  Basis Set:
  @DF-RHF Final Energy:  -290.36354172068405
    Total Energy =                       -290.3635417206838838
  Basis Set: 6-31G*
  Basis Set:
  Basis Set: 6-31G*
  Basis Set:
  @DF-RHF Final Energy:  -290.36354194574812
    Total Energy =                       -290.3635419457483522
  Basis Set: 6-31G*
  Basis Set:
  Charge       = 0
  Multiplicity = 1
  Basis Set: 6-31G*
  Basis Set:

    Orbital Energies (a.u.)
    -----------------------

    Doubly Occupied:

       1A    -15.524458     2A    -11.243843     3A    -11.241816
       4A    -11.240775     5A    -11.203071     6A    -11.202952
       7A    -11.201965     8A     -1.217413     9A     -1.026329
      10A     -1.018316    11A     -0.954144    12A     -0.863401
      13A     -0.842381    14A     -0.757358    15A     -0.660511
      16A     -0.645704    17A     -0.615593    18A     -0.583638
      19A     -0.569459    20A     -0.555570    21A     -0.542319
      22A     -0.528891    23A     -0.514062    24A     -0.497715
      25A     -0.495342    26A     -0.480124    27A     -0.472358
      28A     -0.467980    29A     -0.310086

  @DF-RHF Final Energy:  -290.36354214063903

   => Energetics <=

    Nuclear Repulsion Energy =            339.2906361818635901
    One-Electron Energy =               -1064.3532069347402285
    Two-Electron Energy =                 434.6990286122373846
    DFT Exchange-Correlation Energy =       0.0000000000000000
    Empirical Dispersion Energy =           0.0000000000000000
    PCM Polarization Energy =               0.0000000000000000
    EFP Energy =                            0.0000000000000000
    Total Energy =                       -290.3635421406391970
    Molecular point group: c1
  Basis Set: 6-31G*
  Basis Set:

  -Total Gradient:
     Atom            X                  Y                   Z
    ------   -----------------  -----------------  -----------------
       1       -0.000289213260     0.000833812064    -0.000060857300
       2       -0.002999481542    -0.002197070699     0.000797141534
       3       -0.004318139358     0.001960377087     0.000245959471
       4        0.000443884366    -0.000339138486    -0.000270339499
       5        0.000497862542     0.000367965095    -0.000920157517
       6        0.003875905076    -0.002963172904     0.004306391279
       7        0.001833978888     0.000132752819     0.000908530223
       8        0.002174012806     0.001763988550    -0.003501783897
       9       -0.001094383275    -0.002830500469    -0.000369222916
      10       -0.001551246724     0.001974247347    -0.001915369539
      11        0.002849917824    -0.002586273307    -0.001182420602
      12       -0.000986546039     0.001000607422    -0.000914209747
      13       -0.000684559087     0.000054237563     0.000404101349
      14       -0.002646173369     0.000427684888     0.001380759119
      15       -0.001907252056     0.000379573789     0.000031671680
      16        0.001445202284     0.000247563035     0.000112809099
      17       -0.000333179841    -0.000010766699    -0.000116869953
      18        0.000057820170     0.003455988963     0.002224138756
      19        0.000867309583    -0.000102403368    -0.000649337243
      20       -0.000590493621    -0.001623685699    -0.000255234770
      21        0.002607219275     0.001700893166    -0.001671239686
      22        0.000747555360    -0.001646680157     0.001415540161

    Molecular point group: c1

    Geometry (in Angstrom), charge = 0, multiplicity = 1:

    H            2.932933408919     1.679875690681     0.933961493351
    C            2.252501384621     0.847452339454     0.764495893329
    C            0.984770493052     1.328337504148     0.053758266640
    H            2.016608078846     0.397891304710     1.723518352719
    H            2.781757010792     0.110027079042     0.167079199093
    N           -0.026897780540     0.315064223920    -0.099610975324
    H            0.569246725298     2.155820000498     0.617144918374
    H            1.267491071076     1.733562620041    -0.924109122758
    C           -1.183634700107     0.285270147262     0.760365921392
    C            0.172093722848    -0.739708335085    -1.062955340393
    C           -2.504349417332     0.176507497965     0.005001421181
    H           -1.199757288505     1.214940475515     1.318067863689
    H           -1.135512618968    -0.513760073544     1.503184411561
    C            0.299904728523    -2.138027114849    -0.447631892601
    H            1.068482686004    -0.507829994640    -1.623404664600
    H           -0.630962667449    -0.753615441477    -1.796477181222
    H           -2.590679502125     0.964865766465    -0.735842351353
    H           -2.613061166217    -0.771717157257    -0.498883137287
    H           -3.335080937245     0.267211979114     0.697517464807
    H            1.107294264149    -2.184069852521     0.275568909379
    H           -0.611162997978    -2.417204180343     0.062025344518
    H            0.492679842765    -2.893972132246    -1.204928254089

  Mulliken Charges: (a.u.)
   Center  Symbol    Alpha    Beta     Spin     Total
       1     H     0.42625  0.42625  0.00000  0.14750
       2     C     3.23707  3.23707  0.00000 -0.47413
       3     C     3.04450  3.04450  0.00000 -0.08901
       4     H     0.42061  0.42061  0.00000  0.15877
       5     H     0.42297  0.42297  0.00000  0.15406
       6     N     3.80890  3.80890  0.00000 -0.61779
       7     H     0.42110  0.42110  0.00000  0.15780
       8     H     0.42554  0.42554  0.00000  0.14892
       9     C     3.04015  3.04015  0.00000 -0.08029
      10     C     3.04853  3.04853  0.00000 -0.09706
      11     C     3.24358  3.24358  0.00000 -0.48715
      12     H     0.42136  0.42136  0.00000  0.15728
      13     H     0.42959  0.42959  0.00000  0.14081
      14     C     3.24246  3.24246  0.00000 -0.48493
      15     H     0.41935  0.41935  0.00000  0.16129
      16     H     0.42392  0.42392  0.00000  0.15215
      17     H     0.41837  0.41837  0.00000  0.16327
      18     H     0.42001  0.42001  0.00000  0.15998
      19     H     0.42264  0.42264  0.00000  0.15472
      20     H     0.41884  0.41884  0.00000  0.16232
      21     H     0.42055  0.42055  0.00000  0.15890
      22     H     0.42370  0.42370  0.00000  0.15259

   Total alpha = 29.00000, Total beta = 29.00000, Total charge = -0.00000
