  ==> Input File <==

--------------------------------------------------------------------------
set {
	reference rhf
	basis 6-31G*
}

set_num_threads( 4 )
memory 2 gb

molecule MOL {
0 1

H	 3.463890	 0.208316	 -0.745344
C	 2.752813	 -0.005338	 0.044371
C	 1.322923	 0.120767	 -0.479465
H	 2.954012	 -1.007707	 0.409264
H	 2.939290	 0.691693	 0.855523
C	 0.306652	 -0.176050	 0.621399
H	 1.163820	 -0.571439	 -1.299808
H	 1.147286	 1.121102	 -0.857280
N	 -1.068537	 -0.011044	 0.085269
H	 0.372515	 -1.192590	 0.973735
H	 0.391664	 0.520566	 1.441230
O	 -1.656956	 -0.997225	 -0.235017
O	 -1.478635	 1.104830	 -0.018026

	symmetry c1
}
set optking {
	frozen_dihedral = ("
		7 3 6 9
	")
}

ee = optimize('scf')
oeprop('DIPOLE', 'QUADRUPOLE', 'MULLIKEN_CHARGES')
f=open( 'psi4out.xyz', 'w' )
f.write( "13  " )
f.write( str(ee) + "\n" )
f.write( MOL.save_string_xyz() )
f.close()
--------------------------------------------------------------------------

    Molecular point group: c1
  Charge       = 0
  Multiplicity = 1
  Basis Set: 6-31G*
  Basis Set:
  @DF-RHF Final Energy:  -321.73557087397211
    Total Energy =                       -321.7355708739722786
    Molecular point group: c1
  Basis Set: 6-31G*
  Basis Set:
  Basis Set: 6-31G*
  Basis Set:
  @DF-RHF Final Energy:  -321.73523713801671
    Total Energy =                       -321.7352371380170553
  Basis Set: 6-31G*
  Basis Set:
  Basis Set: 6-31G*
  Basis Set:
  @DF-RHF Final Energy:  -321.73555618143962
    Total Energy =                       -321.7355561814396196
  Basis Set: 6-31G*
  Basis Set:
  Basis Set: 6-31G*
  Basis Set:
  @DF-RHF Final Energy:  -321.73557294787702
    Total Energy =                       -321.7355729478770741
  Basis Set: 6-31G*
  Basis Set:
  Charge       = 0
  Multiplicity = 1
  Basis Set: 6-31G*
  Basis Set:

    Orbital Energies (a.u.)
    -----------------------

    Doubly Occupied:

       1A    -20.601484     2A    -20.599394     3A    -15.846837
       4A    -11.299184     5A    -11.257261     6A    -11.240122
       7A     -1.630416     8A     -1.415923     9A     -1.135517
      10A     -1.028542    11A     -0.884169    12A     -0.833230
      13A     -0.758242    14A     -0.734400    15A     -0.722864
      16A     -0.672633    17A     -0.604607    18A     -0.588822
      19A     -0.550941    20A     -0.521587    21A     -0.515297
      22A     -0.483501    23A     -0.473669    24A     -0.447683

  @DF-RHF Final Energy:  -321.73557300230351

   => Energetics <=

    Nuclear Repulsion Energy =            247.4175050995442575
    One-Electron Energy =                -928.6135104548482104
    Two-Electron Energy =                 359.4604323530004990
    DFT Exchange-Correlation Energy =       0.0000000000000000
    Empirical Dispersion Energy =           0.0000000000000000
    PCM Polarization Energy =               0.0000000000000000
    EFP Energy =                            0.0000000000000000
    Total Energy =                       -321.7355730023033971
    Molecular point group: c1
  Basis Set: 6-31G*
  Basis Set:

  -Total Gradient:
     Atom            X                  Y                   Z
    ------   -----------------  -----------------  -----------------
       1        0.000000214383    -0.000000589596    -0.000000969574
       2       -0.000005235034    -0.000004711406     0.000002396658
       3       -0.000307391944     0.000382688896    -0.000157841250
       4       -0.000003769848     0.000003042600     0.000002570855
       5        0.000005322603     0.000003231365    -0.000000042912
       6        0.000064590983    -0.000400944423    -0.000075925722
       7        0.000243689573    -0.000238707750     0.000154318334
       8       -0.000003083282     0.000000009688    -0.000002167494
       9       -0.000001611098     0.000218095609     0.000066431351
      10       -0.000001211262    -0.000006494979     0.000002690323
      11        0.000002705315    -0.000003288589     0.000002262322
      12        0.000013432915     0.000024966535     0.000010492332
      13       -0.000007653302     0.000022702051    -0.000004215224

  **** Optimization is complete! (in 5 steps) ****
    Final optimized geometry and variables:
    Molecular point group: c1

    Geometry (in Angstrom), charge = 0, multiplicity = 1:

    H            3.463930769756     0.193875062362    -0.749164538699
    C            2.752651440677    -0.013002634069     0.042173407452
    C            1.322748318955     0.114382999358    -0.481654807120
    H            2.951176630130    -1.013897202250     0.412671360603
    H            2.941507873660     0.688077161400     0.849212349406
    C            0.306868192329    -0.180758936139     0.620016834186
    H            1.164076485320    -0.579670675545    -1.300407562383
    H            1.148546169620     1.114729740166    -0.860123271536
    N           -1.068588577571    -0.017945615567     0.083735944524
    H            0.374165308140    -1.196062060688     0.975681116051
    H            0.390872877128     0.518837676694     1.437366487330
    O           -1.647946077635    -1.003451859176    -0.254718133164
    O           -1.487754637699     1.095987011003    -0.002251652331

  Mulliken Charges: (a.u.)
   Center  Symbol    Alpha    Beta     Spin     Total
       1     H     0.40728  0.40728  0.00000  0.18544
       2     C     3.24811  3.24811  0.00000 -0.49622
       3     C     3.17320  3.17320  0.00000 -0.34639
       4     H     0.41474  0.41474  0.00000  0.17053
       5     H     0.41448  0.41448  0.00000  0.17104
       6     C     3.08260  3.08260  0.00000 -0.16521
       7     H     0.40106  0.40106  0.00000  0.19788
       8     H     0.39673  0.39673  0.00000  0.20654
       9     N     3.22400  3.22400  0.00000  0.55201
      10     H     0.38777  0.38777  0.00000  0.22446
      11     H     0.38903  0.38903  0.00000  0.22194
      12     O     4.22962  4.22962  0.00000 -0.45924
      13     O     4.23139  4.23139  0.00000 -0.46277

   Total alpha = 24.00000, Total beta = 24.00000, Total charge =  0.00000
