  ==> Input File <==

--------------------------------------------------------------------------
set {
	reference rhf
	basis 6-31G*
}

set_num_threads( 1 )
memory 2 gb

molecule MOL {
0 1

O	 0.605153	 -0.181537	 -0.336958
C	 1.705091	 0.115954	 0.001797
C	 2.136351	 1.478326	 0.487415
O	 2.721346	 -0.737485	 -0.000216
C	 1.003455	 2.499893	 0.511726
H	 2.570733	 1.348486	 1.474921
H	 2.950424	 1.808286	 -0.152219
C	 1.467851	 3.869891	 1.008217
H	 0.202311	 2.130400	 1.144048
H	 0.583112	 2.591557	 -0.484878
C	 0.343698	 4.906779	 1.039857
H	 1.891587	 3.770682	 2.006516
H	 2.272822	 4.233922	 0.371518
C	 0.808583	 6.275758	 1.534861
H	 -0.460143	 4.545765	 1.677548
H	 -0.080018	 5.007650	 0.043149
H	 1.206287	 6.213848	 2.543926
H	 -0.010135	 6.988524	 1.545637
H	 1.589820	 6.679217	 0.896738
C	 4.024888	 -0.184556	 -0.001949
H	 4.179030	 0.422472	 -0.882452
H	 4.701782	 -1.024608	 -0.003642
H	 4.181981	 0.421185	 0.878906

	symmetry c1
}
set optking {
	frozen_dihedral = ("
		15 11 8 12,
		9 5 8 12,
		1 2 3 6,
		9 5 3 6
	")
}

ee = energy('scf')
oeprop('DIPOLE', 'QUADRUPOLE', 'MULLIKEN_CHARGES')
f=open( 'psi4out.xyz', 'w' )
f.write( "23  " )
f.write( str(ee) + "\n" )
f.write( MOL.save_string_xyz() )
f.close()
--------------------------------------------------------------------------

    Molecular point group: c1

    Geometry (in Angstrom), charge = 0, multiplicity = 1:

       Center              X                  Y                   Z               Mass
    ------------   -----------------  -----------------  -----------------  -----------------
           O         -1.063320678733    -2.167214792537    -0.803803248886    15.994914619560
           C          0.036617321267    -1.869723792537    -0.465048248886    12.000000000000
           C          0.467877321267    -0.507351792537     0.020569751114    12.000000000000
           O          1.052872321267    -2.723162792537    -0.467061248886    15.994914619560
           C         -0.665018678733     0.514215207463     0.044880751114    12.000000000000
           H          0.902259321267    -0.637191792537     1.008075751114     1.007825032070
           H          1.281950321267    -0.177391792537    -0.619064248886     1.007825032070
           C         -0.200622678733     1.884213207463     0.541371751114    12.000000000000
           H         -1.466162678733     0.144722207463     0.677202751114     1.007825032070
           H         -1.085361678733     0.605879207463    -0.951723248886     1.007825032070
           C         -1.324775678733     2.921101207463     0.573011751114    12.000000000000
           H          0.223113321267     1.785004207463     1.539670751114     1.007825032070
           H          0.604348321267     2.248244207463    -0.095327248886     1.007825032070
           C         -0.859890678733     4.290080207463     1.068015751114    12.000000000000
           H         -2.128616678733     2.560087207463     1.210702751114     1.007825032070
           H         -1.748491678733     3.021972207463    -0.423696248886     1.007825032070
           H         -0.462186678733     4.228170207463     2.077080751114     1.007825032070
           H         -1.678608678733     5.002846207463     1.078791751114     1.007825032070
           H         -0.078653678733     4.693539207463     0.429892751114     1.007825032070
           C          2.356414321267    -2.170233792537    -0.468794248886    12.000000000000
           H          2.510556321267    -1.563205792537    -1.349297248886     1.007825032070
           H          3.033308321267    -3.010285792537    -0.470487248886     1.007825032070
           H          2.513507321267    -1.564492792537     0.412060751114     1.007825032070

  Charge       = 0
  Multiplicity = 1
  Basis Set: 6-31G*
  Basis Set:

    Orbital Energies (a.u.)
    -----------------------

    Doubly Occupied:

       1A    -20.605942     2A    -20.544715     3A    -11.374657
       4A    -11.297412     5A    -11.242164     6A    -11.223132
       7A    -11.222045     8A    -11.219570     9A    -11.212490
      10A     -1.467995    11A     -1.369121    12A     -1.097224
      13A     -1.043570    14A     -0.988739    15A     -0.957769
      16A     -0.858762    17A     -0.800279    18A     -0.763406
      19A     -0.703480    20A     -0.697691    21A     -0.676913
      22A     -0.654536    23A     -0.612669    24A     -0.604531
      25A     -0.583116    26A     -0.564639    27A     -0.561594
      28A     -0.544548    29A     -0.526551    30A     -0.508958
      31A     -0.490601    32A     -0.473090    33A     -0.469433
      34A     -0.465457    35A     -0.450974    36A     -0.427897

  @DF-RHF Final Energy:  -422.95003962015608

   => Energetics <=

    Nuclear Repulsion Energy =            458.6724666475994354
    One-Electron Energy =               -1484.6334477989835250
    Two-Electron Energy =                 603.0109415312272176
    DFT Exchange-Correlation Energy =       0.0000000000000000
    Empirical Dispersion Energy =           0.0000000000000000
    PCM Polarization Energy =               0.0000000000000000
    EFP Energy =                            0.0000000000000000
    Total Energy =                       -422.9500396201569856

  Mulliken Charges: (a.u.)
   Center  Symbol    Alpha    Beta     Spin     Total
       1     O     4.27184  4.27184  0.00000 -0.54368
       2     C     2.58908  2.58908  0.00000  0.82185
       3     C     3.24736  3.24736  0.00000 -0.49472
       4     O     4.30093  4.30093  0.00000 -0.60186
       5     C     3.14740  3.14740  0.00000 -0.29480
       6     H     0.39914  0.39914  0.00000  0.20171
       7     H     0.40304  0.40304  0.00000  0.19392
       8     C     3.15323  3.15323  0.00000 -0.30646
       9     H     0.40945  0.40945  0.00000  0.18110
      10     H     0.41044  0.41044  0.00000  0.17911
      11     C     3.15187  3.15187  0.00000 -0.30375
      12     H     0.42492  0.42492  0.00000  0.15017
      13     H     0.42558  0.42558  0.00000  0.14885
      14     C     3.23967  3.23967  0.00000 -0.47935
      15     H     0.42041  0.42041  0.00000  0.15918
      16     H     0.42074  0.42074  0.00000  0.15852
      17     H     0.42187  0.42187  0.00000  0.15627
      18     H     0.41773  0.41773  0.00000  0.16454
      19     H     0.42211  0.42211  0.00000  0.15578
      20     C     3.10335  3.10335  0.00000 -0.20670
      21     H     0.41114  0.41114  0.00000  0.17771
      22     H     0.39571  0.39571  0.00000  0.20857
      23     H     0.41299  0.41299  0.00000  0.17402

   Total alpha = 36.00000, Total beta = 36.00000, Total charge =  0.00000
