  ==> Input File <==

--------------------------------------------------------------------------
set {
	reference rhf
	basis 6-31G*
}

set_num_threads( 4 )
memory 2 gb

molecule MOL {
0 1

O	 -2.042549	 -1.228399	 -0.269030
C	 -1.653912	 -0.146171	 0.050137
C	 -0.332303	 0.024011	 0.778412
C	 -2.438579	 1.106236	 -0.272369
C	 -0.044544	 1.508214	 1.054476
H	 -0.337347	 -0.531578	 1.712049
H	 0.447273	 -0.384922	 0.145200
C	 1.294231	 1.727031	 1.760756
H	 -0.843237	 1.931234	 1.661292
H	 -0.054126	 2.044139	 0.110107
C	 1.587097	 3.202750	 2.028504
H	 1.300582	 1.180242	 2.701185
H	 2.091793	 1.303907	 1.154597
H	 0.823609	 3.646189	 2.661356
H	 1.619325	 3.769761	 1.102813
H	 2.543120	 3.327805	 2.526908
H	 -3.277823	 0.863061	 -0.908988
H	 -1.806773	 1.843019	 -0.759671
H	 -2.802853	 1.554979	 0.648059

	symmetry c1
}
set optking {
	frozen_dihedral = ("
		5 3 2 4
	")
}

ee = optimize('scf')
oeprop('DIPOLE', 'QUADRUPOLE', 'MULLIKEN_CHARGES')
f=open( 'psi4out.xyz', 'w' )
f.write( "19  " )
f.write( str(ee) + "\n" )
f.write( MOL.save_string_xyz() )
f.close()
--------------------------------------------------------------------------

    Molecular point group: c1
  Charge       = 0
  Multiplicity = 1
  Basis Set: 6-31G*
  Basis Set:
  @DF-RHF Final Energy:  -309.05680288364215
    Total Energy =                       -309.0568028836424332
    Molecular point group: c1
  Basis Set: 6-31G*
  Basis Set:
  Basis Set: 6-31G*
  Basis Set:
  @DF-RHF Final Energy:  -309.05944234849608
    Total Energy =                       -309.0594423484959634
  Basis Set: 6-31G*
  Basis Set:
  Basis Set: 6-31G*
  Basis Set:
  @DF-RHF Final Energy:  -309.06206305081832
    Total Energy =                       -309.0620630508185513
  Basis Set: 6-31G*
  Basis Set:
  Basis Set: 6-31G*
  Basis Set:
  @DF-RHF Final Energy:  -309.06240641864457
    Total Energy =                       -309.0624064186446276
  Basis Set: 6-31G*
  Basis Set:
  @DF-RHF Final Energy:  -309.06122151650487
    Total Energy =                       -309.0612215165051566
  @DF-RHF Final Energy:  -309.06250692817281
    Total Energy =                       -309.0625069281726383
  Basis Set: 6-31G*
  Basis Set:
  @DF-RHF Final Energy:  -309.06228854506026
    Total Energy =                       -309.0622885450600847
  Basis Set: 6-31G*
  Basis Set:
  Basis Set: 6-31G*
  Basis Set:
  @DF-RHF Final Energy:  -309.06254160023218
    Total Energy =                       -309.0625416002322936
  Basis Set: 6-31G*
  Basis Set:
  Basis Set: 6-31G*
  Basis Set:
  @DF-RHF Final Energy:  -309.06255002921904
    Total Energy =                       -309.0625500292188690
  Basis Set: 6-31G*
  Basis Set:
  Charge       = 0
  Multiplicity = 1
  Basis Set: 6-31G*
  Basis Set:

    Orbital Energies (a.u.)
    -----------------------

    Doubly Occupied:

       1A    -20.545007     2A    -11.326220     3A    -11.231292
       4A    -11.230693     5A    -11.227681     6A    -11.226923
       7A    -11.217322     8A     -1.392364     9A     -1.094074
      10A     -1.027225    11A     -0.982911    12A     -0.895524
      13A     -0.810386    14A     -0.731604    15A     -0.662884
      16A     -0.647407    17A     -0.626928    18A     -0.611510
      19A     -0.586033    20A     -0.572263    21A     -0.552429
      22A     -0.528003    23A     -0.527861    24A     -0.489991
      25A     -0.485885    26A     -0.482798    27A     -0.466958
      28A     -0.396513

  @DF-RHF Final Energy:  -309.06254918298430

   => Energetics <=

    Nuclear Repulsion Energy =            300.7149052827006699
    One-Electron Energy =               -1014.4015259140386434
    Two-Electron Energy =                 404.6240714483538454
    DFT Exchange-Correlation Energy =       0.0000000000000000
    Empirical Dispersion Energy =           0.0000000000000000
    PCM Polarization Energy =               0.0000000000000000
    EFP Energy =                            0.0000000000000000
    Total Energy =                       -309.0625491829841280
    Molecular point group: c1
  Basis Set: 6-31G*
  Basis Set:

  -Total Gradient:
     Atom            X                  Y                   Z
    ------   -----------------  -----------------  -----------------
       1        0.000082882604    -0.000062502104    -0.000003067952
       2       -0.000097300079     0.000050022313     0.000142779433
       3       -0.000023787145     0.000065304263     0.000006987810
       4        0.000107058546     0.000038543755    -0.000091731013
       5       -0.000068727606    -0.000070177088    -0.000036687732
       6       -0.000032485740    -0.000071063816     0.000004719084
       7        0.000042775281     0.000027285087     0.000054254944
       8        0.000068808755    -0.000023441718    -0.000080104232
       9        0.000013842943     0.000012180702    -0.000005125342
      10       -0.000041521347     0.000018716363    -0.000072618345
      11       -0.000067817228    -0.000013808324     0.000035550241
      12        0.000002072956    -0.000018594123    -0.000020554352
      13        0.000015710014     0.000017382960    -0.000017481329
      14       -0.000015220665     0.000025134284    -0.000002062907
      15        0.000014449829    -0.000017368570    -0.000002723513
      16       -0.000020936119    -0.000028805459     0.000011785641
      17        0.000007208699    -0.000001750776     0.000028479617
      18        0.000016054542     0.000063161829     0.000017870814
      19       -0.000003068239    -0.000010219578     0.000029729137

  **** Optimization is complete! (in 10 steps) ****
    Final optimized geometry and variables:
    Molecular point group: c1

    Geometry (in Angstrom), charge = 0, multiplicity = 1:

    O           -1.450369192892    -2.175979638575    -0.959964662512
    C           -1.162415888188    -1.045394277341    -0.707917276441
    C            0.150427779257    -0.756682347074     0.013714862129
    C           -2.081141641422     0.093092354851    -1.095337477623
    C            0.498095777438     0.699495734836     0.325846177835
    H            0.122356335108    -1.339950263457     0.930386019547
    H            0.931486211882    -1.205514486874    -0.594280668786
    C            1.844136358110     0.828508987680     1.042529411176
    H           -0.276001422531     1.144411918934     0.946597943322
    H            0.529778701192     1.282178034887    -0.591827749118
    C            2.203563863461     2.275914459857     1.374614948505
    H            1.821323063832     0.242244161352     1.958337430901
    H            2.625046669106     0.394845280525     0.421988609818
    H            1.456208868293     2.727857318590     2.020561583380
    H            2.271186643190     2.880099627877     0.474396750201
    H            3.159833339024     2.334559158106     1.884441789842
    H           -2.949735806983    -0.310978046984    -1.595842126310
    H           -1.574526217989     0.791158222657    -1.754401986994
    H           -2.395192943253     0.649433897773    -0.217595267846

  Mulliken Charges: (a.u.)
   Center  Symbol    Alpha    Beta     Spin     Total
       1     O     4.26363  4.26363  0.00000 -0.52727
       2     C     2.73761  2.73761  0.00000  0.52477
       3     C     3.20480  3.20480  0.00000 -0.40960
       4     C     3.29160  3.29160  0.00000 -0.58320
       5     C     3.16046  3.16046  0.00000 -0.32091
       6     H     0.40016  0.40016  0.00000  0.19969
       7     H     0.40018  0.40018  0.00000  0.19964
       8     C     3.15230  3.15230  0.00000 -0.30459
       9     H     0.42015  0.42015  0.00000  0.15969
      10     H     0.42015  0.42015  0.00000  0.15971
      11     C     3.23984  3.23984  0.00000 -0.47968
      12     H     0.42015  0.42015  0.00000  0.15971
      13     H     0.42010  0.42010  0.00000  0.15980
      14     H     0.42081  0.42081  0.00000  0.15838
      15     H     0.42081  0.42081  0.00000  0.15838
      16     H     0.41661  0.41661  0.00000  0.16679
      17     H     0.39542  0.39542  0.00000  0.20915
      18     H     0.40763  0.40763  0.00000  0.18475
      19     H     0.40760  0.40760  0.00000  0.18481

   Total alpha = 28.00000, Total beta = 28.00000, Total charge =  0.00000
