  ==> Input File <==

--------------------------------------------------------------------------
set {
	reference rhf
	basis 6-31G*
}

set_num_threads( 4 )
memory 2 gb

molecule MOL {
0 1

O	 -2.042549	 -1.228399	 -0.269030
C	 -1.653912	 -0.146171	 0.050137
C	 -0.332303	 0.024011	 0.778412
C	 -2.438579	 1.106236	 -0.272369
C	 0.845713	 -0.001731	 -0.208243
H	 -0.323783	 0.953829	 1.340327
H	 -0.235459	 -0.796807	 1.480410
C	 0.481058	 0.577402	 -1.575965
H	 1.197894	 -1.024065	 -0.334268
H	 1.669456	 0.560369	 0.221446
C	 1.653173	 0.561286	 -2.556318
H	 -0.350363	 0.015833	 -1.996447
H	 0.128811	 1.598452	 -1.449682
H	 2.006377	 -0.451264	 -2.729645
H	 2.488680	 1.142394	 -2.177261
H	 1.366652	 0.980163	 -3.515732
H	 -3.277823	 0.863061	 -0.908988
H	 -1.806773	 1.843019	 -0.759671
H	 -2.802853	 1.554979	 0.648059

	symmetry c1
}
set optking {
	frozen_dihedral = ("
		9 5 3 2
	")
}

ee = optimize('scf')
oeprop('DIPOLE', 'QUADRUPOLE', 'MULLIKEN_CHARGES')
f=open( 'psi4out.xyz', 'w' )
f.write( "19  " )
f.write( str(ee) + "\n" )
f.write( MOL.save_string_xyz() )
f.close()
--------------------------------------------------------------------------

    Molecular point group: c1
  Charge       = 0
  Multiplicity = 1
  Basis Set: 6-31G*
  Basis Set:
  @DF-RHF Final Energy:  -309.05629950148494
    Total Energy =                       -309.0562995014848866
    Molecular point group: c1
  Basis Set: 6-31G*
  Basis Set:
  Basis Set: 6-31G*
  Basis Set:
  @DF-RHF Final Energy:  -309.05937983431920
    Total Energy =                       -309.0593798343192589
  Basis Set: 6-31G*
  Basis Set:
  Basis Set: 6-31G*
  Basis Set:
  @DF-RHF Final Energy:  -309.05847892935060
    Total Energy =                       -309.0584789293504286
  Basis Set: 6-31G*
  Basis Set:
  Basis Set: 6-31G*
  Basis Set:
  @DF-RHF Final Energy:  -309.05996382753244
    Total Energy =                       -309.0599638275322150
  Basis Set: 6-31G*
  Basis Set:
  @DF-RHF Final Energy:  -309.06009149875808
    Total Energy =                       -309.0600914987579699
  @DF-RHF Final Energy:  -309.06013928252469
    Total Energy =                       -309.0601392825252560
  @DF-RHF Final Energy:  -309.06021861513881
    Total Energy =                       -309.0602186151384103
  @DF-RHF Final Energy:  -309.06025174345422
    Total Energy =                       -309.0602517434541596
  @DF-RHF Final Energy:  -309.06027723025130
    Total Energy =                       -309.0602772302514722
  @DF-RHF Final Energy:  -309.06030008558213
    Total Energy =                       -309.0603000855822415
  @DF-RHF Final Energy:  -309.06035872652279
    Total Energy =                       -309.0603587265230203
  @DF-RHF Final Energy:  -309.06048925099952
    Total Energy =                       -309.0604892509996375
  @DF-RHF Final Energy:  -309.06057992575086
    Total Energy =                       -309.0605799257505737
  @DF-RHF Final Energy:  -309.04964145295452
    Total Energy =                       -309.0496414529549725
  @DF-RHF Final Energy:  -309.06029833815762
    Total Energy =                       -309.0602983381577360
  @DF-RHF Final Energy:  -309.06071828118314
    Total Energy =                       -309.0607182811829716
  @DF-RHF Final Energy:  -309.06074353996831
    Total Energy =                       -309.0607435399683709
  @DF-RHF Final Energy:  -309.06080400546102
    Total Energy =                       -309.0608040054609091
  Basis Set: 6-31G*
  Basis Set:
  @DF-RHF Final Energy:  -309.06081449631029
    Total Energy =                       -309.0608144963101722
  Basis Set: 6-31G*
  Basis Set:
  Basis Set: 6-31G*
  Basis Set:
  @DF-RHF Final Energy:  -309.06082033483239
    Total Energy =                       -309.0608203348324992
  Basis Set: 6-31G*
  Basis Set:
  Basis Set: 6-31G*
  Basis Set:
  @DF-RHF Final Energy:  -309.06082223911181
    Total Energy =                       -309.0608222391116442
  Basis Set: 6-31G*
  Basis Set:
  Charge       = 0
  Multiplicity = 1
  Basis Set: 6-31G*
  Basis Set:

    Orbital Energies (a.u.)
    -----------------------

    Doubly Occupied:

       1A    -20.549086     2A    -11.326821     3A    -11.232998
       4A    -11.228699     5A    -11.222734     6A    -11.212214
       7A    -11.207202     8A     -1.395076     9A     -1.082116
      10A     -1.028788    11A     -0.981887    12A     -0.886111
      13A     -0.805891    14A     -0.725034    15A     -0.659873
      16A     -0.635880    17A     -0.624374    18A     -0.612995
      19A     -0.575378    20A     -0.571342    21A     -0.564911
      22A     -0.528192    23A     -0.510992    24A     -0.489715
      25A     -0.476995    26A     -0.464610    27A     -0.462543
      28A     -0.397353

  @DF-RHF Final Energy:  -309.06082215841036

   => Energetics <=

    Nuclear Repulsion Energy =            307.7012900389962624
    One-Electron Energy =               -1028.6046042576258515
    Two-Electron Energy =                 411.8424920602192287
    DFT Exchange-Correlation Energy =       0.0000000000000000
    Empirical Dispersion Energy =           0.0000000000000000
    PCM Polarization Energy =               0.0000000000000000
    EFP Energy =                            0.0000000000000000
    Total Energy =                       -309.0608221584103603
    Molecular point group: c1
  Basis Set: 6-31G*
  Basis Set:

  -Total Gradient:
     Atom            X                  Y                   Z
    ------   -----------------  -----------------  -----------------
       1       -0.000035427214    -0.000041686323    -0.000022666654
       2        0.000061044414     0.004916819944    -0.001343364148
       3        0.000982258672    -0.006484241714     0.003250289649
       4        0.000016909696     0.000059471572    -0.000015682804
       5       -0.004960257388     0.000208899395    -0.007197508113
       6        0.000113265187    -0.000062824912     0.000170649812
       7       -0.000199254056    -0.000157586222    -0.000131275672
       8       -0.000045170228    -0.000050604866    -0.000022812071
       9        0.004096742665     0.001510870674     0.005410529781
      10       -0.000042488762     0.000153009447    -0.000105793670
      11       -0.000018160922     0.000004861039     0.000001993676
      12        0.000018189411     0.000003739705    -0.000001126503
      13        0.000011324525    -0.000012550957     0.000008605279
      14       -0.000001235944     0.000003337894     0.000004616603
      15       -0.000002131220     0.000002203640    -0.000000136776
      16        0.000003272880    -0.000002531181    -0.000006228376
      17        0.000003803113    -0.000010671838    -0.000002250374
      18       -0.000011287477    -0.000024585833     0.000007665910
      19        0.000008602650    -0.000015929462    -0.000005505549

  **** Optimization is complete! (in 22 steps) ****
    Final optimized geometry and variables:
    Molecular point group: c1

    Geometry (in Angstrom), charge = 0, multiplicity = 1:

    O           -1.487262733826    -0.942940198291    -0.256355437976
    C           -1.289521360391    -0.116138507203     0.581180044854
    C            0.069136544302     0.064342225688     1.238957889550
    C           -2.401977113593     0.781218417872     1.079012612265
    C            1.308000247141    -0.196804735653     0.361495027098
    H            0.116621921454     1.072489883336     1.642329340336
    H            0.080208213525    -0.598346492377     2.102374743518
    C            1.221925478998     0.255546667830    -1.097312413869
    H            1.599739974350    -1.240207842521     0.432790437813
    H            2.128177919017     0.342279191640     0.832644661719
    C            2.568648402656     0.141072226198    -1.811130487802
    H            0.480583738767    -0.330688502963    -1.623091784349
    H            0.885840246022     1.291323166649    -1.132697206670
    H            2.926709414112    -0.884601378835    -1.806119449821
    H            3.325444891548     0.757661515113    -1.333941863740
    H            2.489126608054     0.456578457043    -2.846711268014
    H           -3.346481266855     0.461802368874     0.661218026636
    H           -2.205356768231     1.807967995940     0.782354976681
    H           -2.453681781590     0.764629491790     2.163779340535

  Mulliken Charges: (a.u.)
   Center  Symbol    Alpha    Beta     Spin     Total
       1     O     4.26373  4.26373  0.00000 -0.52746
       2     C     2.73339  2.73339  0.00000  0.53323
       3     C     3.21145  3.21145  0.00000 -0.42290
       4     C     3.28934  3.28934  0.00000 -0.57868
       5     C     3.14603  3.14603  0.00000 -0.29207
       6     H     0.41465  0.41465  0.00000  0.17070
       7     H     0.40104  0.40104  0.00000  0.19793
       8     C     3.16162  3.16162  0.00000 -0.32325
       9     H     0.41391  0.41391  0.00000  0.17219
      10     H     0.42155  0.42155  0.00000  0.15690
      11     C     3.24088  3.24088  0.00000 -0.48175
      12     H     0.39805  0.39805  0.00000  0.20390
      13     H     0.42876  0.42876  0.00000  0.14249
      14     H     0.42027  0.42027  0.00000  0.15947
      15     H     0.42389  0.42389  0.00000  0.15221
      16     H     0.41815  0.41815  0.00000  0.16370
      17     H     0.39697  0.39697  0.00000  0.20605
      18     H     0.40684  0.40684  0.00000  0.18632
      19     H     0.40948  0.40948  0.00000  0.18104

   Total alpha = 28.00000, Total beta = 28.00000, Total charge =  0.00000
