  ==> Input File <==

--------------------------------------------------------------------------
set {
	reference rhf
	basis cc-pvtz
}

set_num_threads( 4 )
memory 2 gb

molecule MOL {
0 1

O	 -2.440701	 -0.934798	 -0.415053
C	 -1.922978	 0.063265	 -0.045005
C	 -2.632749	 1.372204	 0.158357
O	 -0.637375	 0.157174	 0.243149
H	 -2.187724	 2.129143	 -0.474664
H	 -3.677681	 1.257276	 -0.079438
H	 -2.516788	 1.693160	 1.185542
C	 0.162530	 -1.009518	 0.097799
C	 1.587210	 -0.664190	 0.477086
H	 0.096803	 -1.356267	 -0.924704
H	 -0.233803	 -1.785900	 0.736810
C	 2.256770	 0.342732	 -0.454344
H	 2.154716	 -1.590834	 0.479041
H	 1.598751	 -0.289614	 1.496104
C	 3.743973	 0.514144	 -0.163724
H	 2.124941	 0.018639	 -1.483268
H	 1.757587	 1.300843	 -0.366687
H	 4.194643	 1.230209	 -0.840874
H	 4.277033	 -0.424664	 -0.272717
H	 3.906120	 0.869436	 0.848448

	symmetry c1
}
set optking {
	frozen_dihedral = ("
		16 12 9 8
	")
}

ee = optimize('scf')
oeprop('DIPOLE', 'QUADRUPOLE', 'MULLIKEN_CHARGES')
f=open( 'psi4out.xyz', 'w' )
f.write( "20  " )
f.write( str(ee) + "\n" )
f.write( MOL.save_string_xyz() )
f.close()
--------------------------------------------------------------------------

    Molecular point group: c1
  Charge       = 0
  Multiplicity = 1
  Basis Set: CC-PVTZ
  Basis Set:
  @DF-RHF Final Energy:  -384.08737533210643
    Total Energy =                       -384.0873753321062622
    Molecular point group: c1
  Basis Set: CC-PVTZ
  Basis Set:
  Basis Set: CC-PVTZ
  Basis Set:
  @DF-RHF Final Energy:  -384.08739179665878
    Total Energy =                       -384.0873917966588351
  Basis Set: CC-PVTZ
  Basis Set:
  Basis Set: CC-PVTZ
  Basis Set:
  @DF-RHF Final Energy:  -384.08727939643177
    Total Energy =                       -384.0872793964315406
  Basis Set: CC-PVTZ
  Basis Set:
  Basis Set: CC-PVTZ
  Basis Set:
  @DF-RHF Final Energy:  -384.08740597110125
    Total Energy =                       -384.0874059711012478
  Basis Set: CC-PVTZ
  Basis Set:
  Charge       = 0
  Multiplicity = 1
  Basis Set: CC-PVTZ
  Basis Set:

    Orbital Energies (a.u.)
    -----------------------

    Doubly Occupied:

       1A    -20.594261     2A    -20.532592     3A    -11.366587
       4A    -11.280202     5A    -11.231622     6A    -11.223601
       7A    -11.218949     8A    -11.211786     9A     -1.470969
      10A     -1.365086    11A     -1.087248    12A     -1.029262
      13A     -0.982403    14A     -0.881330    15A     -0.812733
      16A     -0.776402    17A     -0.692398    18A     -0.687089
      19A     -0.670256    20A     -0.632529    21A     -0.600942
      22A     -0.594417    23A     -0.572935    24A     -0.551290
      25A     -0.547609    26A     -0.532703    27A     -0.512413
      28A     -0.484645    29A     -0.475471    30A     -0.474050
      31A     -0.451874    32A     -0.441990

  @DF-RHF Final Energy:  -384.08740660652722

   => Energetics <=

    Nuclear Repulsion Energy =            385.5837192127838762
    One-Electron Energy =               -1287.3669703825084980
    Two-Electron Energy =                 517.6958445631975110
    DFT Exchange-Correlation Energy =       0.0000000000000000
    Empirical Dispersion Energy =           0.0000000000000000
    PCM Polarization Energy =               0.0000000000000000
    EFP Energy =                            0.0000000000000000
    Total Energy =                       -384.0874066065271109
    Molecular point group: c1
  Basis Set: CC-PVTZ
  Basis Set:

  -Total Gradient:
     Atom            X                  Y                   Z
    ------   -----------------  -----------------  -----------------
       1        0.000002013830    -0.000002506356     0.000006196356
       2        0.000012814927     0.000004436450    -0.000056082232
       3        0.000002929817    -0.000003513471     0.000014708204
       4       -0.000007065571     0.000026952763    -0.000030308799
       5        0.000002949425    -0.000006130255     0.000003534613
       6        0.000000920843    -0.000003125522     0.000003355978
       7       -0.000004583909     0.000004215997     0.000005497433
       8        0.000294959829    -0.000768167362    -0.000428840119
       9       -0.000696724629     0.001187008766     0.000747580186
      10       -0.000013404473     0.000017030112    -0.000025674336
      11        0.000021343389    -0.000005983509    -0.000024186906
      12        0.001522937667    -0.001112505608    -0.000130960993
      13        0.000008414684    -0.000006588422     0.000003196963
      14       -0.000017177056     0.000000304081    -0.000016613875
      15        0.000008957236    -0.000018323105    -0.000015732704
      16       -0.001125110089     0.000685428945    -0.000053103409
      17       -0.000000862635     0.000004995740     0.000000664402
      18       -0.000002614971    -0.000004094783    -0.000005110031
      19        0.000001467211    -0.000002277642     0.000006908800
      20       -0.000012165535     0.000002843181    -0.000005029534

  **** Optimization is complete! (in 5 steps) ****
    Final optimized geometry and variables:
    Molecular point group: c1

    Geometry (in Angstrom), charge = 0, multiplicity = 1:

    O           -2.444509251497    -0.914444526029    -0.404849315630
    C           -1.925488735484     0.082322422508    -0.033171171948
    C           -2.631622081100     1.393884155482     0.163762061231
    O           -0.641038972305     0.171871713384     0.261045212161
    H           -2.180849953634     2.147390709598    -0.469224083125
    H           -3.675879142143     1.282077613790    -0.078483390310
    H           -2.519009812612     1.716818509759     1.190644627053
    C            0.154565064729    -0.998795292069     0.122597290406
    C            1.582272314244    -0.656330435111     0.491500847628
    H            0.084445640679    -1.353050154369    -0.896901723371
    H           -0.241681071710    -1.768955225424     0.769123066073
    C            2.244758788280     0.356336124507    -0.439399440412
    H            2.145421814719    -1.585777923800     0.475213064389
    H            1.609790967595    -0.293640515828     1.514266802155
    C            3.730636372936     0.539028005816    -0.151971733056
    H            2.105190969923     0.040540687148    -1.469820440414
    H            1.738375360545     1.310419423587    -0.346615708359
    H            4.170480830171     1.272106929856    -0.817895929426
    H            4.273334466543    -0.391749852150    -0.279297949030
    H            3.892775529668     0.878401554685     0.865737722557

  Mulliken Charges: (a.u.)
   Center  Symbol    Alpha    Beta     Spin     Total
       1     O     4.19739  4.19739  0.00000 -0.39477
       2     C     2.80870  2.80870  0.00000  0.38260
       3     C     3.13843  3.13843  0.00000 -0.27686
       4     O     4.15340  4.15340  0.00000 -0.30681
       5     H     0.44604  0.44604  0.00000  0.10791
       6     H     0.43780  0.43780  0.00000  0.12439
       7     H     0.44573  0.44573  0.00000  0.10855
       8     C     2.99419  2.99419  0.00000  0.01161
       9     C     3.08432  3.08432  0.00000 -0.16864
      10     H     0.45073  0.45073  0.00000  0.09855
      11     H     0.44474  0.44474  0.00000  0.11052
      12     C     3.08538  3.08538  0.00000 -0.17076
      13     H     0.45262  0.45262  0.00000  0.09476
      14     H     0.45109  0.45109  0.00000  0.09783
      15     C     3.14995  3.14995  0.00000 -0.29990
      16     H     0.45515  0.45515  0.00000  0.08970
      17     H     0.44731  0.44731  0.00000  0.10539
      18     H     0.44732  0.44732  0.00000  0.10535
      19     H     0.45530  0.45530  0.00000  0.08939
      20     H     0.45441  0.45441  0.00000  0.09119

   Total alpha = 32.00000, Total beta = 32.00000, Total charge = -0.00000
