  ==> Input File <==

--------------------------------------------------------------------------
set {
	reference rhf
	basis 6-31G*
}

set_num_threads( 4 )
memory 2 gb

molecule MOL {
0 1

H	 -1.645228	 2.524172	 -0.290061
C	 -0.623028	 2.164135	 -0.300221
C	 -0.603454	 0.661669	 0.000000
H	 -0.058723	 2.715504	 0.442069
H	 -0.197242	 2.370669	 -1.274639
C	 0.763625	 0.112519	 0.000000
H	 -1.043655	 0.458321	 0.969248
H	 -1.181296	 0.115671	 -0.736582
N	 1.813038	 -0.320305	 0.000000

	symmetry c1
}
set optking {
	frozen_dihedral = ("
		7 3 6 9
	")
}

ee = optimize('scf')
oeprop('DIPOLE', 'QUADRUPOLE', 'MULLIKEN_CHARGES')
f=open( 'psi4out.xyz', 'w' )
f.write( "9  " )
f.write( str(ee) + "\n" )
f.write( MOL.save_string_xyz() )
f.close()
--------------------------------------------------------------------------

    Molecular point group: c1
  Charge       = 0
  Multiplicity = 1
  Basis Set: 6-31G*
  Basis Set:
  @DF-RHF Final Energy:  -170.96241454680825
    Total Energy =                       -170.9624145468082475
    Molecular point group: c1
  Basis Set: 6-31G*
  Basis Set:
  Basis Set: 6-31G*
  Basis Set:
  @DF-RHF Final Energy:  -170.92444698478536
    Total Energy =                       -170.9244469847853054
  Basis Set: 6-31G*
  Basis Set:
  Basis Set: 6-31G*
  Basis Set:
  @DF-RHF Final Energy:  -170.95099887519996
    Total Energy =                       -170.9509988751999572
  Basis Set: 6-31G*
  Basis Set:
  Basis Set: 6-31G*
  Basis Set:
  @DF-RHF Final Energy:  -170.96222232302944
    Total Energy =                       -170.9622223230294935
  Basis Set: 6-31G*
  Basis Set:
  @DF-RHF Final Energy:  -170.96235181584888
    Total Energy =                       -170.9623518158488764
  @DF-RHF Final Energy:  -170.95588265332756
    Total Energy =                       -170.9558826533274782
  @DF-RHF Final Energy:  -170.96095714711799
    Total Energy =                       -170.9609571471180516
  @DF-RHF Final Energy:  -170.96220059384615
    Total Energy =                       -170.9622005938461768
  @DF-RHF Final Energy:  -170.96219850230585
    Total Energy =                       -170.9621985023059096
  @DF-RHF Final Energy:  -170.96241978417484
    Total Energy =                       -170.9624197841748128
  @DF-RHF Final Energy:  -170.96236554543376
    Total Energy =                       -170.9623655454336415
  @DF-RHF Final Energy:  -170.96189823279909
    Total Energy =                       -170.9618982327989727
  @DF-RHF Final Energy:  -170.96217212431060
    Total Energy =                       -170.9621721243106549
  @DF-RHF Final Energy:  -170.96234066508543
    Total Energy =                       -170.9623406650854349
  @DF-RHF Final Energy:  -170.96199505818981
    Total Energy =                       -170.9619950581898706
  @DF-RHF Final Energy:  -170.96198399632971
    Total Energy =                       -170.9619839963297352
  @DF-RHF Final Energy:  -170.96185160662458
    Total Energy =                       -170.9618516066246627
  @DF-RHF Final Energy:  -170.96033054320685
    Total Energy =                       -170.9603305432067941
  @DF-RHF Final Energy:  -170.96194036540908
    Total Energy =                       -170.9619403654091343
  @DF-RHF Final Energy:  -170.96218220121989
    Total Energy =                       -170.9621822012200028
  @DF-RHF Final Energy:  -170.96215951825204
    Total Energy =                       -170.9621595182519513
  @DF-RHF Final Energy:  -170.91074118296422
    Total Energy =                       -170.9107411829643581
  @DF-RHF Final Energy:  -170.95434148635445
    Total Energy =                       -170.9543414863544513
  @DF-RHF Final Energy:  -170.96103817907505
    Total Energy =                       -170.9610381790750466
  @DF-RHF Final Energy:  -170.96050745707794
    Total Energy =                       -170.9605074570778243
  @DF-RHF Final Energy:  -170.95549132223189
    Total Energy =                       -170.9554913222320067
  @DF-RHF Final Energy:  -170.96106973998667
    Total Energy =                       -170.9610697399867547
  @DF-RHF Final Energy:  -170.95758049113260
    Total Energy =                       -170.9575804911326884
  @DF-RHF Final Energy:  -170.96084255203635
    Total Energy =                       -170.9608425520363539
  @DF-RHF Final Energy:  -170.95800429822773
    Total Energy =                       -170.9580042982277632
  @DF-RHF Final Energy:  -170.96072489748764
    Total Energy =                       -170.9607248974876939
  @DF-RHF Final Energy:  -170.96202576343467
    Total Energy =                       -170.9620257634345535
  @DF-RHF Final Energy:  -170.96219628137081
    Total Energy =                       -170.9621962813706659
  @DF-RHF Final Energy:  -170.96225136987272
    Total Energy =                       -170.9622513698726607
  @DF-RHF Final Energy:  -170.96228638983774
    Total Energy =                       -170.9622863898377432
  @DF-RHF Final Energy:  -170.96232068074156
    Total Energy =                       -170.9623206807415556
  Basis Set: 6-31G*
  Basis Set:
  @DF-RHF Final Energy:  -170.96232868620871
    Total Energy =                       -170.9623286862088207
  Basis Set: 6-31G*
  Basis Set:
  Basis Set: 6-31G*
  Basis Set:
  @DF-RHF Final Energy:  -170.96232996210432
    Total Energy =                       -170.9623299621043202
  Basis Set: 6-31G*
  Basis Set:
  Basis Set: 6-31G*
  Basis Set:
  @DF-RHF Final Energy:  -170.96231438185885
    Total Energy =                       -170.9623143818587891
  Basis Set: 6-31G*
  Basis Set:
  Charge       = 0
  Multiplicity = 1
  Basis Set: 6-31G*
  Basis Set:

    Orbital Energies (a.u.)
    -----------------------

    Doubly Occupied:

       1A    -15.567292     2A    -11.283795     3A    -11.269773
       4A    -11.246508     5A     -1.224145     6A     -1.081811
       7A     -0.912592     8A     -0.698532     9A     -0.658885
      10A     -0.588180    11A     -0.561037    12A     -0.544234
      13A     -0.536442    14A     -0.458410    15A     -0.458027

  @DF-RHF Final Energy:  -170.96232495280844

   => Energetics <=

    Nuclear Repulsion Energy =            103.2182625413967543
    One-Electron Energy =                -434.1818490134262447
    Two-Electron Energy =                 160.0012615192210319
    DFT Exchange-Correlation Energy =       0.0000000000000000
    Empirical Dispersion Energy =           0.0000000000000000
    PCM Polarization Energy =               0.0000000000000000
    EFP Energy =                            0.0000000000000000
    Total Energy =                       -170.9623249528084443
    Molecular point group: c1
  Basis Set: 6-31G*
  Basis Set:

  -Total Gradient:
     Atom            X                  Y                   Z
    ------   -----------------  -----------------  -----------------
       1       -0.000570517986     0.000297134867     0.000600043666
       2       -0.001045956537     0.000182905457    -0.000411310482
       3        0.001695395512     0.002061883541     0.000702328078
       4       -0.000052049936     0.000562708092     0.000280846433
       5        0.000036657392    -0.000029617033    -0.000070989134
       6       -0.002127330279    -0.001728023560    -0.001258000294
       7       -0.000790929499     0.000372784081    -0.000391799071
       8        0.001049064505    -0.001007679179     0.000143758274
       9        0.001805666829    -0.000712096265     0.000405122530

    Molecular point group: c1

    Geometry (in Angstrom), charge = 0, multiplicity = 1:

    H           -1.946925644692     1.809962067377    -0.173060001780
    C           -0.920083541760     1.463147585060    -0.216451904944
    C           -0.879219388932    -0.039402045065     0.082100858430
    H           -0.343563151527     2.022616149351     0.511256586930
    H           -0.525510861371     1.676385035783    -1.202141502254
    C            0.482544334289    -0.602660627379     0.079588215090
    H           -1.325110364108    -0.243732134587     1.048600212822
    H           -1.451275016673    -0.593933493388    -0.652929188502
    N            1.530895914722    -1.039833798256     0.080631733269

  Mulliken Charges: (a.u.)
   Center  Symbol    Alpha    Beta     Spin     Total
       1     H     0.40907  0.40907  0.00000  0.18186
       2     C     3.24209  3.24209  0.00000 -0.48418
       3     C     3.18247  3.18247  0.00000 -0.36494
       4     H     0.40544  0.40544  0.00000  0.18912
       5     H     0.40554  0.40554  0.00000  0.18892
       6     C     2.84824  2.84824  0.00000  0.30352
       7     H     0.38853  0.38853  0.00000  0.22294
       8     H     0.38879  0.38879  0.00000  0.22243
       9     N     3.72983  3.72983  0.00000 -0.45966

   Total alpha = 15.00000, Total beta = 15.00000, Total charge = -0.00000
