  ==> Input File <==

--------------------------------------------------------------------------
set {
	reference rhf
	basis 6-31G*
}

set_num_threads( 1 )
memory 2 gb

molecule MOL {
0 1

H	 2.342343	 -1.901597	 -0.226578
O	 2.826016	 -1.159218	 0.122261
C	 2.077727	 -0.067559	 -0.035091
C	 0.624473	 -0.343591	 0.253101
O	 2.542965	 0.974826	 -0.363729
C	 -0.265902	 0.883932	 0.072916
H	 0.324016	 -1.163849	 -0.390541
H	 0.565024	 -0.726111	 1.268924
C	 -1.728698	 0.646073	 0.462102
H	 -0.209144	 1.219470	 -0.958188
H	 0.135059	 1.692851	 0.673903
C	 -2.482460	 -0.343073	 -0.431425
H	 -2.245265	 1.602650	 0.432430
H	 -1.779332	 0.308348	 1.496285
C	 -3.960546	 -0.461025	 -0.060175
H	 -2.395034	 -0.026811	 -1.468912
H	 -2.024850	 -1.327147	 -0.371646
H	 -4.472726	 -1.168004	 -0.705284
H	 -4.465146	 0.496508	 -0.151489
H	 -4.081218	 -0.800940	 0.964585

	symmetry c1
}
set optking {
	frozen_dihedral = ("
		16 12 9 6,
		7 4 6 10,
		12 9 6 10,
		5 3 4 7
	")
}

ee = energy('scf')
oeprop('DIPOLE', 'QUADRUPOLE', 'MULLIKEN_CHARGES')
f=open( 'psi4out.xyz', 'w' )
f.write( "20  " )
f.write( str(ee) + "\n" )
f.write( MOL.save_string_xyz() )
f.close()
--------------------------------------------------------------------------

    Molecular point group: c1

    Geometry (in Angstrom), charge = 0, multiplicity = 1:

       Center              X                  Y                   Z               Mass
    ------------   -----------------  -----------------  -----------------  -----------------
           H          2.354386026950    -1.893146846368    -0.225223583456     1.007825032070
           O          2.838059026950    -1.150767846368     0.123615416544    15.994914619560
           C          2.089770026950    -0.059108846368    -0.033736583456    12.000000000000
           C          0.636516026950    -0.335140846368     0.254455416544    12.000000000000
           O          2.555008026950     0.983276153632    -0.362374583456    15.994914619560
           C         -0.253858973050     0.892382153632     0.074270416544    12.000000000000
           H          0.336059026950    -1.155398846368    -0.389186583456     1.007825032070
           H          0.577067026950    -0.717660846368     1.270278416544     1.007825032070
           C         -1.716654973050     0.654523153632     0.463456416544    12.000000000000
           H         -0.197100973050     1.227920153632    -0.956833583456     1.007825032070
           H          0.147102026950     1.701301153632     0.675257416544     1.007825032070
           C         -2.470416973050    -0.334622846368    -0.430070583456    12.000000000000
           H         -2.233221973050     1.611100153632     0.433784416544     1.007825032070
           H         -1.767288973050     0.316798153632     1.497639416544     1.007825032070
           C         -3.948502973050    -0.452574846368    -0.058820583456    12.000000000000
           H         -2.382990973050    -0.018360846368    -1.467557583456     1.007825032070
           H         -2.012806973050    -1.318696846368    -0.370291583456     1.007825032070
           H         -4.460682973050    -1.159553846368    -0.703929583456     1.007825032070
           H         -4.453102973050     0.504958153632    -0.150134583456     1.007825032070
           H         -4.069174973050    -0.792489846368     0.965939416544     1.007825032070

  Charge       = 0
  Multiplicity = 1
  Basis Set: 6-31G*
  Basis Set:

    Orbital Energies (a.u.)
    -----------------------

    Doubly Occupied:

       1A    -20.608851     2A    -20.553629     3A    -11.380492
       4A    -11.249290     5A    -11.228190     6A    -11.225946
       7A    -11.224853     8A    -11.216730     9A     -1.469645
      10A     -1.370615    11A     -1.101514    12A     -1.045042
      13A     -0.961896    14A     -0.866286    15A     -0.826973
      16A     -0.792344    17A     -0.720270    18A     -0.674023
      19A     -0.662219    20A     -0.639501    21A     -0.615511
      22A     -0.592200    23A     -0.574375    24A     -0.564862
      25A     -0.537237    26A     -0.518428    27A     -0.499352
      28A     -0.485424    29A     -0.474750    30A     -0.469010
      31A     -0.462569    32A     -0.441250

  @DF-RHF Final Energy:  -383.93122444814827

   => Energetics <=

    Nuclear Repulsion Energy =            376.5177951636863440
    One-Electron Energy =               -1268.7914525061946733
    Two-Electron Energy =                 508.3424328943599448
    DFT Exchange-Correlation Energy =       0.0000000000000000
    Empirical Dispersion Energy =           0.0000000000000000
    PCM Polarization Energy =               0.0000000000000000
    EFP Energy =                            0.0000000000000000
    Total Energy =                       -383.9312244481484413

  Mulliken Charges: (a.u.)
   Center  Symbol    Alpha    Beta     Spin     Total
       1     H     0.26900  0.26900  0.00000  0.46199
       2     O     4.35071  4.35071  0.00000 -0.70142
       3     C     2.61418  2.61418  0.00000  0.77163
       4     C     3.23010  3.23010  0.00000 -0.46019
       5     O     4.26170  4.26170  0.00000 -0.52341
       6     C     3.15403  3.15403  0.00000 -0.30807
       7     H     0.41230  0.41230  0.00000  0.17541
       8     H     0.39682  0.39682  0.00000  0.20637
       9     C     3.15610  3.15610  0.00000 -0.31220
      10     H     0.41117  0.41117  0.00000  0.17765
      11     H     0.40462  0.40462  0.00000  0.19077
      12     C     3.15456  3.15456  0.00000 -0.30911
      13     H     0.41661  0.41661  0.00000  0.16677
      14     H     0.42344  0.42344  0.00000  0.15312
      15     C     3.23926  3.23926  0.00000 -0.47851
      16     H     0.42096  0.42096  0.00000  0.15808
      17     H     0.42574  0.42574  0.00000  0.14853
      18     H     0.41811  0.41811  0.00000  0.16378
      19     H     0.41958  0.41958  0.00000  0.16084
      20     H     0.42102  0.42102  0.00000  0.15797

   Total alpha = 32.00000, Total beta = 32.00000, Total charge =  0.00000
