  ==> Input File <==

--------------------------------------------------------------------------
set {
	reference rhf
	basis 6-31G*
}

set_num_threads( 4 )
memory 2 gb

molecule MOL {
0 1

H	 3.463771	 0.168298	 -0.756243
C	 2.752674	 -0.045734	 0.033351
C	 1.322923	 0.120767	 -0.479465
H	 2.934561	 -1.059086	 0.377456
H	 2.958358	 0.631174	 0.856809
C	 0.306652	 -0.176050	 0.621399
H	 1.144658	 -0.551717	 -1.312180
H	 1.166477	 1.131798	 -0.836680
N	 -1.068537	 -0.011044	 0.085269
H	 0.372515	 -1.192590	 0.973735
H	 0.391664	 0.520566	 1.441230
O	 -1.704685	 0.918105	 0.476895
O	 -1.454347	 -0.841910	 -0.679476

	symmetry c1
}
set optking {
	frozen_dihedral = ("
		12 9 6 3
	")
}

ee = optimize('scf')
oeprop('DIPOLE', 'QUADRUPOLE', 'MULLIKEN_CHARGES')
f=open( 'psi4out.xyz', 'w' )
f.write( "13  " )
f.write( str(ee) + "\n" )
f.write( MOL.save_string_xyz() )
f.close()
--------------------------------------------------------------------------

    Molecular point group: c1
  Charge       = 0
  Multiplicity = 1
  Basis Set: 6-31G*
  Basis Set:
  @DF-RHF Final Energy:  -321.73532698374754
    Total Energy =                       -321.7353269837475409
    Molecular point group: c1
  Basis Set: 6-31G*
  Basis Set:
  Basis Set: 6-31G*
  Basis Set:
  @DF-RHF Final Energy:  -321.73016309866159
    Total Energy =                       -321.7301630986618193
  Basis Set: 6-31G*
  Basis Set:
  Basis Set: 6-31G*
  Basis Set:
  @DF-RHF Final Energy:  -321.73543795956573
    Total Energy =                       -321.7354379595658429
  Basis Set: 6-31G*
  Basis Set:
  Basis Set: 6-31G*
  Basis Set:
  @DF-RHF Final Energy:  -321.73541418498309
    Total Energy =                       -321.7354141849833695
  Basis Set: 6-31G*
  Basis Set:
  Basis Set: 6-31G*
  Basis Set:
  @DF-RHF Final Energy:  -321.73545310108892
    Total Energy =                       -321.7354531010888650
  Basis Set: 6-31G*
  Basis Set:
  Basis Set: 6-31G*
  Basis Set:
  @DF-RHF Final Energy:  -321.73557042870834
    Total Energy =                       -321.7355704287083427
  Basis Set: 6-31G*
  Basis Set:
  Charge       = 0
  Multiplicity = 1
  Basis Set: 6-31G*
  Basis Set:

    Orbital Energies (a.u.)
    -----------------------

    Doubly Occupied:

       1A    -20.602555     2A    -20.598865     3A    -15.847100
       4A    -11.299407     5A    -11.256246     6A    -11.239733
       7A     -1.630746     8A     -1.416110     9A     -1.135089
      10A     -1.028403    11A     -0.884262    12A     -0.832401
      13A     -0.758805    14A     -0.735693    15A     -0.723326
      16A     -0.670971    17A     -0.604724    18A     -0.587795
      19A     -0.550794    20A     -0.522081    21A     -0.513849
      22A     -0.483893    23A     -0.473615    24A     -0.448041

  @DF-RHF Final Energy:  -321.73557067599882

   => Energetics <=

    Nuclear Repulsion Energy =            247.3396724562137479
    One-Electron Energy =                -928.4614751656481531
    Two-Electron Energy =                 359.3862320334355900
    DFT Exchange-Correlation Energy =       0.0000000000000000
    Empirical Dispersion Energy =           0.0000000000000000
    PCM Polarization Energy =               0.0000000000000000
    EFP Energy =                            0.0000000000000000
    Total Energy =                       -321.7355706759988152
    Molecular point group: c1
  Basis Set: 6-31G*
  Basis Set:

  -Total Gradient:
     Atom            X                  Y                   Z
    ------   -----------------  -----------------  -----------------
       1        0.000016478829     0.000017134257     0.000008755976
       2        0.000023189499     0.000027030900    -0.000017093711
       3        0.000010111925    -0.000022659652     0.000038292432
       4       -0.000001803673     0.000000630761    -0.000020856896
       5       -0.000008768151    -0.000011209489     0.000012580575
       6       -0.000010871939    -0.000014618549    -0.000004899850
       7        0.000005632737    -0.000057364011     0.000016598222
       8       -0.000011654512    -0.000025667415    -0.000006278092
       9        0.000119473952     0.000023909537     0.000008423320
      10        0.000021746880     0.000022772795    -0.000015278378
      11        0.000036281311     0.000014218635     0.000010193812
      12       -0.000104425839    -0.000134700790    -0.000071846031
      13       -0.000095391013     0.000160523016     0.000041408621

  **** Optimization is complete! (in 7 steps) ****
    Final optimized geometry and variables:
    Molecular point group: c1

    Geometry (in Angstrom), charge = 0, multiplicity = 1:

    H            3.468508478172     0.170121267847    -0.765008111833
    C            2.756894733910    -0.038685287381     0.025524635756
    C            1.327181457225     0.108157178551    -0.493721911716
    H            2.945537184329    -1.046342730116     0.382993448155
    H            2.955940791819     0.649839408582     0.840841832340
    C            0.311971027917    -0.178003732706     0.609749907806
    H            1.152430188133    -0.573826048924    -1.316501540523
    H            1.169020156745     1.115613828980    -0.865559720577
    N           -1.069216961428    -0.007569453300     0.088448857236
    H            0.372619915422    -1.202049573645     0.947865039681
    H            0.404427144082     0.501226069556     1.441214769307
    O           -1.699343840425     0.924160508962     0.482268343770
    O           -1.448299878397    -0.811824092039    -0.707855259493

  Mulliken Charges: (a.u.)
   Center  Symbol    Alpha    Beta     Spin     Total
       1     H     0.40732  0.40732  0.00000  0.18536
       2     C     3.24835  3.24835  0.00000 -0.49670
       3     C     3.17277  3.17277  0.00000 -0.34554
       4     H     0.41484  0.41484  0.00000  0.17033
       5     H     0.41485  0.41485  0.00000  0.17031
       6     C     3.08412  3.08412  0.00000 -0.16824
       7     H     0.39514  0.39514  0.00000  0.20972
       8     H     0.40309  0.40309  0.00000  0.19381
       9     N     3.22327  3.22327  0.00000  0.55345
      10     H     0.38893  0.38893  0.00000  0.22214
      11     H     0.38697  0.38697  0.00000  0.22606
      12     O     4.22874  4.22874  0.00000 -0.45748
      13     O     4.23162  4.23162  0.00000 -0.46323

   Total alpha = 24.00000, Total beta = 24.00000, Total charge =  0.00000
