  ==> Input File <==

--------------------------------------------------------------------------
set {
	reference rhf
	basis 6-31G*
}

set_num_threads( 4 )
memory 2 gb

molecule MOL {
0 1

H	 -2.153054	 -2.250733	 0.000000
O	 -2.462445	 -1.355403	 0.000000
C	 -1.434260	 -0.483044	 0.000000
C	 -1.747402	 0.872187	 0.000000
C	 -0.112826	 -0.887672	 -0.000000
H	 -2.781042	 1.162947	 0.000000
C	 -0.737782	 1.812486	 0.000000
H	 0.142965	 -1.932242	 -0.000000
C	 0.894804	 0.073633	 -0.000000
H	 -0.988012	 2.857452	 0.000000
C	 0.595063	 1.425424	 -0.000000
C	 2.274807	 -0.357748	 -0.000000
H	 1.382498	 2.154482	 -0.000000
N	 3.358461	 -0.699213	 -0.000000

	symmetry c1
}
set optking {
	frozen_dihedral = ("
		5 3 2 1
	")
}

ee = optimize('scf')
oeprop('DIPOLE', 'QUADRUPOLE', 'MULLIKEN_CHARGES')
f=open( 'psi4out.xyz', 'w' )
f.write( "14  " )
f.write( str(ee) + "\n" )
f.write( MOL.save_string_xyz() )
f.close()
--------------------------------------------------------------------------

    Molecular point group: c1
  Charge       = 0
  Multiplicity = 1
  Basis Set: 6-31G*
  Basis Set:

    Orbital Energies (a.u.)
    -----------------------

    Doubly Occupied:

       1A    -20.613349     2A    -15.576084     3A    -11.326471
       4A    -11.295188     5A    -11.277359     6A    -11.263914
       7A    -11.262487     8A    -11.259242     9A    -11.253963
      10A     -1.433718    11A     -1.233856    12A     -1.182279
      13A     -1.063261    14A     -1.039162    15A     -0.896240
      16A     -0.867775    17A     -0.778123    18A     -0.726556
      19A     -0.700223    20A     -0.664099    21A     -0.627028
      22A     -0.613996    23A     -0.592980    24A     -0.562269
      25A     -0.550742    26A     -0.538996    27A     -0.527026
      28A     -0.473335    29A     -0.473309    30A     -0.363595
      31A     -0.336675

  @DF-RHF Final Energy:  -397.29196376628863

   => Energetics <=

    Nuclear Repulsion Energy =            379.4054396342402242
    One-Electron Energy =               -1290.6482117382981869
    Two-Electron Energy =                 513.9508083377694447
    DFT Exchange-Correlation Energy =       0.0000000000000000
    Empirical Dispersion Energy =           0.0000000000000000
    PCM Polarization Energy =               0.0000000000000000
    EFP Energy =                            0.0000000000000000
    Total Energy =                       -397.2919637662885179
    Molecular point group: c1
  Basis Set: 6-31G*
  Basis Set:

  -Total Gradient:
     Atom            X                  Y                   Z
    ------   -----------------  -----------------  -----------------
       1       -0.000033468471     0.000027765375    -0.000000000000
       2       -0.000006285534    -0.000065621198     0.000000000000
       3        0.000040413173    -0.000063148541    -0.000000000000
       4       -0.000038119212     0.000122910456     0.000000000000
       5       -0.000061144709    -0.000045393963     0.000000000000
       6        0.000035135495    -0.000008458082    -0.000000000000
       7       -0.000102787133     0.000069656973     0.000000000000
       8        0.000037722955    -0.000011037455    -0.000000000000
       9        0.000144705412     0.000176212838     0.000000000000
      10       -0.000019537368     0.000003771439    -0.000000000000
      11        0.000090150008    -0.000083216505    -0.000000000000
      12       -0.000020793465    -0.000148220699    -0.000000000000
      13       -0.000045743654    -0.000035261183    -0.000000000000
      14       -0.000020247487     0.000060040544    -0.000000000000

  **** Optimization is complete! (in 1 steps) ****
    Final optimized geometry and variables:
    Molecular point group: c1

    Geometry (in Angstrom), charge = 0, multiplicity = 1:

    H           -2.153053827841    -2.250732983905     0.000000000000
    O           -2.462444827841    -1.355402983905     0.000000000000
    C           -1.434259827841    -0.483043983905     0.000000000000
    C           -1.747401827841     0.872187016095     0.000000000000
    C           -0.112825827841    -0.887671983905     0.000000000000
    H           -2.781041827841     1.162947016095     0.000000000000
    C           -0.737781827841     1.812486016095     0.000000000000
    H            0.142965172159    -1.932241983905     0.000000000000
    C            0.894804172159     0.073633016095     0.000000000000
    H           -0.988011827841     2.857452016095     0.000000000000
    C            0.595063172159     1.425424016095     0.000000000000
    C            2.274807172159    -0.357747983905     0.000000000000
    H            1.382498172159     2.154482016095     0.000000000000
    N            3.358461172159    -0.699212983905     0.000000000000

  Mulliken Charges: (a.u.)
   Center  Symbol    Alpha    Beta     Spin     Total
       1     H     0.26830  0.26830  0.00000  0.46340
       2     O     4.37595  4.37595  0.00000 -0.75190
       3     C     2.79155  2.79155  0.00000  0.41689
       4     C     3.11409  3.11409  0.00000 -0.22818
       5     C     3.13439  3.13439  0.00000 -0.26877
       6     H     0.38291  0.38291  0.00000  0.23418
       7     C     3.09574  3.09574  0.00000 -0.19149
       8     H     0.38532  0.38532  0.00000  0.22936
       9     C     2.99115  2.99115  0.00000  0.01771
      10     H     0.38857  0.38857  0.00000  0.22287
      11     C     3.09896  3.09896  0.00000 -0.19792
      12     C     2.86663  2.86663  0.00000  0.26673
      13     H     0.38127  0.38127  0.00000  0.23746
      14     N     3.72517  3.72517  0.00000 -0.45034

   Total alpha = 31.00000, Total beta = 31.00000, Total charge =  0.00000
