  ==> Input File <==

--------------------------------------------------------------------------
set {
	reference rhf
	basis 6-31G*
}

set_num_threads( 4 )
memory 2 gb

molecule MOL {
0 1

O	 -0.682937	 1.318834	 -0.186099
C	 -0.860635	 0.152188	 -0.042321
C	 -2.173363	 -0.477127	 0.338347
O	 0.083258	 -0.765189	 -0.202595
H	 -2.477673	 -1.180929	 -0.427595
H	 -2.923125	 0.290956	 0.455536
H	 -2.058825	 -1.029004	 1.264191
C	 1.391937	 -0.334737	 -0.569838
C	 1.371744	 0.474948	 -1.853057
H	 2.036658	 -1.195821	 -0.659337
H	 1.722615	 0.268373	 0.263475
H	 2.367663	 0.851554	 -2.065294
H	 1.053605	 -0.134990	 -2.689198
H	 0.700163	 1.321484	 -1.759411

	symmetry c1
}
set optking {
	frozen_dihedral = ("
		10 8 4 2
	")
}

ee = optimize('scf')
oeprop('DIPOLE', 'QUADRUPOLE', 'MULLIKEN_CHARGES')
f=open( 'psi4out.xyz', 'w' )
f.write( "14  " )
f.write( str(ee) + "\n" )
f.write( MOL.save_string_xyz() )
f.close()
--------------------------------------------------------------------------

    Molecular point group: c1
  Charge       = 0
  Multiplicity = 1
  Basis Set: 6-31G*
  Basis Set:
  @DF-RHF Final Energy:  -305.86763612111673
    Total Energy =                       -305.8676361211167887
    Molecular point group: c1
  Basis Set: 6-31G*
  Basis Set:
  Basis Set: 6-31G*
  Basis Set:
  @DF-RHF Final Energy:  -305.87275481020015
    Total Energy =                       -305.8727548101999787
  Basis Set: 6-31G*
  Basis Set:
  Basis Set: 6-31G*
  Basis Set:
  @DF-RHF Final Energy:  -305.87216329353043
    Total Energy =                       -305.8721632935304910
  Basis Set: 6-31G*
  Basis Set:
  Basis Set: 6-31G*
  Basis Set:
  @DF-RHF Final Energy:  -305.87320090770964
    Total Energy =                       -305.8732009077096450
  Basis Set: 6-31G*
  Basis Set:
  Basis Set: 6-31G*
  Basis Set:
  @DF-RHF Final Energy:  -305.87340550372005
    Total Energy =                       -305.8734055037198232
  Basis Set: 6-31G*
  Basis Set:
  Basis Set: 6-31G*
  Basis Set:
  @DF-RHF Final Energy:  -305.87340731703421
    Total Energy =                       -305.8734073170340935
  Basis Set: 6-31G*
  Basis Set:
  Charge       = 0
  Multiplicity = 1
  Basis Set: 6-31G*
  Basis Set:

    Orbital Energies (a.u.)
    -----------------------

    Doubly Occupied:

       1A    -20.601570     2A    -20.544317     3A    -11.375707
       4A    -11.287766     5A    -11.232959     6A    -11.216131
       7A     -1.466849     8A     -1.362886     9A     -1.054517
      10A     -0.998139    11A     -0.886250    12A     -0.758142
      13A     -0.698986    14A     -0.681195    15A     -0.660224
      16A     -0.613125    17A     -0.587370    18A     -0.570269
      19A     -0.554067    20A     -0.530370    21A     -0.512997
      22A     -0.496020    23A     -0.451308    24A     -0.435730

  @DF-RHF Final Energy:  -305.87340795150567

   => Energetics <=

    Nuclear Repulsion Energy =            249.6987026017073674
    One-Electron Energy =                -911.9904342702556050
    Two-Electron Energy =                 356.4183237170427674
    DFT Exchange-Correlation Energy =       0.0000000000000000
    Empirical Dispersion Energy =           0.0000000000000000
    PCM Polarization Energy =               0.0000000000000000
    EFP Energy =                            0.0000000000000000
    Total Energy =                       -305.8734079515054418
    Molecular point group: c1
  Basis Set: 6-31G*
  Basis Set:

  -Total Gradient:
     Atom            X                  Y                   Z
    ------   -----------------  -----------------  -----------------
       1       -0.000000834811    -0.000060156174     0.000030517390
       2       -0.001171756119    -0.000351942005    -0.004443998989
       3       -0.000014722670     0.000003472379    -0.000066084020
       4        0.001507597590     0.000542216574     0.005522675836
       5        0.000017660184    -0.000007427427     0.000029345709
       6       -0.000008664336    -0.000001679381     0.000013952109
       7        0.000002791289     0.000015551599     0.000027097700
       8        0.001024824627     0.000249286845     0.003704611774
       9        0.000001267148     0.000044545237    -0.000012370042
      10       -0.001317043744    -0.000414847754    -0.004823230029
      11        0.000002292166     0.000012666453    -0.000019255402
      12       -0.000020377544    -0.000010765103     0.000018853416
      13       -0.000009586101    -0.000011633276     0.000005121337
      14       -0.000013447677    -0.000009287967     0.000012763208

  **** Optimization is complete! (in 7 steps) ****
    Final optimized geometry and variables:
    Molecular point group: c1

    Geometry (in Angstrom), charge = 0, multiplicity = 1:

    O           -0.584351139415     1.264378164504     0.392003060791
    C           -0.732697789232     0.085220539534     0.416454734293
    C           -2.039115057819    -0.609395643517     0.692366023305
    O            0.243475842403    -0.790403226492     0.225683726320
    H           -2.305277132127    -1.236778014378    -0.150464339516
    H           -2.810880007791     0.125631488924     0.865619402751
    H           -1.935661288344    -1.251481862310     1.559387083487
    C            1.535606972419    -0.331162944445    -0.167203829370
    C            1.547747587461     0.367316654898    -1.518490743246
    H            2.112926211924    -1.240594193730    -0.246048927205
    H            1.942047013007     0.298651891329     0.611710862302
    H            2.578158105346     0.541514085517    -1.813822874327
    H            1.086387225494    -0.264183163801    -2.271134225896
    H            1.032764400702     1.315700673801    -1.489646849768

  Mulliken Charges: (a.u.)
   Center  Symbol    Alpha    Beta     Spin     Total
       1     O     4.28436  4.28436  0.00000 -0.56873
       2     C     2.61836  2.61836  0.00000  0.76327
       3     C     3.28150  3.28150  0.00000 -0.56301
       4     O     4.30936  4.30936  0.00000 -0.61872
       5     H     0.40114  0.40114  0.00000  0.19772
       6     H     0.39725  0.39725  0.00000  0.20551
       7     H     0.39992  0.39992  0.00000  0.20015
       8     C     2.99966  2.99966  0.00000  0.00068
       9     C     3.26326  3.26326  0.00000 -0.52653
      10     H     0.40948  0.40948  0.00000  0.18105
      11     H     0.40865  0.40865  0.00000  0.18270
      12     H     0.41781  0.41781  0.00000  0.16438
      13     H     0.41616  0.41616  0.00000  0.16768
      14     H     0.39308  0.39308  0.00000  0.21385

   Total alpha = 24.00000, Total beta = 24.00000, Total charge =  0.00000
