                              Psi4 1.0.54 Driver

  ==> Input File <==

--------------------------------------------------------------------------
set {
	reference rhf
	basis cc-pvtz
}

set_num_threads( 4 )
memory 2 gb

molecule MOL {
0 1

H	 -3.162190	 0.493205	 -0.000107
C	 -2.363908	 -0.234727	 0.000005
O	 -1.158738	 0.454634	 -0.000087
H	 -2.464314	 -0.863616	 -0.882153
H	 -2.464327	 -0.863359	 0.882345
C	 -0.028611	 -0.359694	 0.000037
C	 1.202683	 0.495175	 -0.222461
H	 -0.110127	 -1.112467	 -0.784391
H	 0.049282	 -0.890975	 0.948887
C	 2.487121	 -0.326042	 -0.235634
H	 1.089340	 1.026467	 -1.160975
H	 1.247504	 1.246153	 0.558548
H	 2.473503	 -1.068677	 -1.026452
H	 3.349822	 0.308761	 -0.396239
H	 2.632877	 -0.847277	 0.704652

	symmetry c1
}
set optking {
	frozen_dihedral = ("
		8 6 3 2
	")
}

ee,wfn = optimize('scf', return_wfn=True)
oeprop( wfn, 'DIPOLE', 'QUADRUPOLE', 'MULLIKEN_CHARGES')
f=open( 'psi4out.xyz', 'w' )
f.write( "15  " )
f.write( str(ee) + "\n" )
f.write( MOL.save_string_xyz() )
f.close()
--------------------------------------------------------------------------

    Molecular point group: c1
  Charge       = 0
  Multiplicity = 1
  Basis Set: CC-PVTZ
  Basis Set:
  @DF-RHF Final Energy:  -232.22801857601792
    Total Energy =                       -232.2280185760180302
    Molecular point group: c1
  Basis Set: CC-PVTZ
  Basis Set:
  Basis Set: CC-PVTZ
  Basis Set:
  @DF-RHF Final Energy:  -232.22802975706298
    Total Energy =                       -232.2280297570629841
  Basis Set: CC-PVTZ
  Basis Set:
  Charge       = 0
  Multiplicity = 1
  Basis Set: CC-PVTZ
  Basis Set:

    Orbital Energies (a.u.)
    -----------------------

    Doubly Occupied:

       1A    -20.547410     2A    -11.264398     3A    -11.261861
       4A    -11.212905     5A    -11.210795     6A     -1.381637
       7A     -1.058494     8A     -0.956195     9A     -0.877453
      10A     -0.809737    11A     -0.676762    12A     -0.655920
      13A     -0.632499    14A     -0.608339    15A     -0.565472
      16A     -0.540657    17A     -0.503844    18A     -0.490445
      19A     -0.478593    20A     -0.463391    21A     -0.416149

  @DF-RHF Final Energy:  -232.22803223831988

   => Energetics <=

    Nuclear Repulsion Energy =            189.9934001460831041
    One-Electron Energy =                -691.2169542059100422
    Two-Electron Energy =                 268.9955218215069408
    DFT Exchange-Correlation Energy =       0.0000000000000000
    Empirical Dispersion Energy =           0.0000000000000000
    PCM Polarization Energy =               0.0000000000000000
    EFP Energy =                            0.0000000000000000
    Total Energy =                       -232.2280322383199973
    Molecular point group: c1
  Basis Set: CC-PVTZ
  Basis Set:

  -Total Gradient:
     Atom            X                  Y                   Z
    ------   -----------------  -----------------  -----------------
       1        0.000019055979     0.000015186146     0.000001332464
       2       -0.000030969990    -0.000053293184    -0.001014124665
       3       -0.000151778369    -0.000168656924     0.001624399849
       4       -0.000001434896     0.000006385736    -0.000000187306
       5       -0.000001819779     0.000004406509     0.000002537113
       6        0.000729781617     0.000939033495    -0.001422821968
       7        0.000040557660     0.000047971414    -0.000007795694
       8       -0.000563936681    -0.000755065320     0.000853948188
       9       -0.000005098459    -0.000027644482    -0.000028938769
      10       -0.000035388447    -0.000013386712    -0.000012999322
      11       -0.000000378887     0.000008590254    -0.000012026025
      12        0.000000424231    -0.000004202417     0.000003824625
      13        0.000003026624    -0.000011630576    -0.000002657003
      14       -0.000002533472     0.000013230642     0.000003808060
      15        0.000000492868    -0.000000924581     0.000011700453

  **** Optimization is complete! (in 3 steps) ****
    Final optimized geometry and variables:
    Molecular point group: c1

    Geometry (in Angstrom), charge = 0, multiplicity = 1:

    H           -3.158549962198     0.500548768625     0.113630758241
    C           -2.361163473823    -0.228311489614     0.097082111260
    O           -1.155271650373     0.459424428450     0.089034538369
    H           -2.471938397086    -0.848315797151    -0.789927007781
    H           -2.453426290936    -0.865646167949     0.974392009902
    C           -0.024392991086    -0.354281217428     0.079115739437
    C            1.207488684286     0.500710043264    -0.138245425198
    H           -0.110137212988    -1.106045198401    -0.705478504201
    H            0.053955888925    -0.892730665274     1.024271166922
    C            2.492832533278    -0.319263617245    -0.136994515045
    H            1.101263969348     1.028124996188    -1.079874082334
    H            1.245230699971     1.254981539229     0.640044749321
    H            2.485825804218    -1.066866468227    -0.923334404806
    H            3.356176862675     0.315439081984    -0.295099926579
    H            2.631919420241    -0.834509119363     0.807609699338

  Mulliken Charges: (a.u.)
   Center  Symbol    Alpha    Beta     Spin     Total
       1     H     0.44706  0.44706  0.00000  0.10589
       2     C     3.03343  3.03343  0.00000 -0.06686
       3     O     4.17181  4.17181  0.00000 -0.34362
       4     H     0.47158  0.47158  0.00000  0.05685
       5     H     0.47255  0.47255  0.00000  0.05491
       6     C     2.95623  2.95623  0.00000  0.08755
       7     C     3.08014  3.08014  0.00000 -0.16028
       8     H     0.47719  0.47719  0.00000  0.04562
       9     H     0.47410  0.47410  0.00000  0.05180
      10     C     3.15579  3.15579  0.00000 -0.31157
      11     H     0.45156  0.45156  0.00000  0.09688
      12     H     0.45069  0.45069  0.00000  0.09862
      13     H     0.45593  0.45593  0.00000  0.08815
      14     H     0.44628  0.44628  0.00000  0.10744
      15     H     0.45568  0.45568  0.00000  0.08864

   Total alpha = 21.00000, Total beta = 21.00000, Total charge = -0.00000

*** Psi4 exiting successfully. Buy a developer a beer!
