  ==> Input File <==

--------------------------------------------------------------------------
set {
	reference rhf
	basis 6-31G*
}

set_num_threads( 1 )
memory 2 gb

molecule MOL {
0 1

H	 3.306779	 1.332375	 -0.036821
O	 2.382423	 1.215268	 0.159667
C	 2.077727	 -0.067559	 -0.035091
C	 0.624473	 -0.343591	 0.253101
O	 2.885955	 -0.861213	 -0.392719
C	 -0.265902	 0.883932	 0.072916
H	 0.324016	 -1.163849	 -0.390541
H	 0.565024	 -0.726111	 1.268924
C	 -1.728698	 0.646073	 0.462102
H	 -0.209144	 1.219470	 -0.958188
H	 0.135059	 1.692851	 0.673903
C	 -2.482460	 -0.343073	 -0.431425
H	 -2.245265	 1.602650	 0.432430
H	 -1.779332	 0.308348	 1.496285
C	 -3.960546	 -0.461025	 -0.060175
H	 -2.395034	 -0.026811	 -1.468912
H	 -2.024850	 -1.327147	 -0.371646
H	 -4.472726	 -1.168004	 -0.705284
H	 -4.465146	 0.496508	 -0.151489
H	 -4.081218	 -0.800940	 0.964585

	symmetry c1
}
set optking {
	frozen_dihedral = ("
		16 12 9 6,
		7 4 6 10,
		12 9 6 10,
		1 2 3 5
	")
}

ee = energy('scf')
oeprop('DIPOLE', 'QUADRUPOLE', 'MULLIKEN_CHARGES')
f=open( 'psi4out.xyz', 'w' )
f.write( "20  " )
f.write( str(ee) + "\n" )
f.write( MOL.save_string_xyz() )
f.close()
--------------------------------------------------------------------------

    Molecular point group: c1

    Geometry (in Angstrom), charge = 0, multiplicity = 1:

       Center              X                  Y                   Z               Mass
    ------------   -----------------  -----------------  -----------------  -----------------
           H          3.324310769040     1.238556801596    -0.038273652605     1.007825032070
           O          2.399954769040     1.121449801596     0.158214347395    15.994914619560
           C          2.095258769040    -0.161377198404    -0.036543652605    12.000000000000
           C          0.642004769040    -0.437409198404     0.251648347395    12.000000000000
           O          2.903486769040    -0.955031198404    -0.394171652605    15.994914619560
           C         -0.248370230960     0.790113801596     0.071463347395    12.000000000000
           H          0.341547769040    -1.257667198404    -0.391993652605     1.007825032070
           H          0.582555769040    -0.819929198404     1.267471347395     1.007825032070
           C         -1.711166230960     0.552254801596     0.460649347395    12.000000000000
           H         -0.191612230960     1.125651801596    -0.959640652605     1.007825032070
           H          0.152590769040     1.599032801596     0.672450347395     1.007825032070
           C         -2.464928230960    -0.436891198404    -0.432877652605    12.000000000000
           H         -2.227733230960     1.508831801596     0.430977347395     1.007825032070
           H         -1.761800230960     0.214529801596     1.494832347395     1.007825032070
           C         -3.943014230960    -0.554843198404    -0.061627652605    12.000000000000
           H         -2.377502230960    -0.120629198404    -1.470364652605     1.007825032070
           H         -2.007318230960    -1.420965198404    -0.373098652605     1.007825032070
           H         -4.455194230960    -1.261822198404    -0.706736652605     1.007825032070
           H         -4.447614230960     0.402689801596    -0.152941652605     1.007825032070
           H         -4.063686230960    -0.894758198404     0.963132347395     1.007825032070

  Charge       = 0
  Multiplicity = 1
  Basis Set: 6-31G*
  Basis Set:

    Orbital Energies (a.u.)
    -----------------------

    Doubly Occupied:

       1A    -20.613625     2A    -20.549251     3A    -11.381206
       4A    -11.239571     5A    -11.225490     6A    -11.221835
       7A    -11.220823     8A    -11.212861     9A     -1.474964
      10A     -1.364889    11A     -1.098545    12A     -1.042332
      13A     -0.959115    14A     -0.860793    15A     -0.826310
      16A     -0.791124    17A     -0.700955    18A     -0.683310
      19A     -0.654681    20A     -0.636391    21A     -0.604417
      22A     -0.589788    23A     -0.577364    24A     -0.554500
      25A     -0.543149    26A     -0.517458    27A     -0.502921
      28A     -0.482492    29A     -0.475046    30A     -0.467520
      31A     -0.457437    32A     -0.433527

  @DF-RHF Final Energy:  -383.94525293992541

   => Energetics <=

    Nuclear Repulsion Energy =            377.6068431683714266
    One-Electron Energy =               -1271.1768044579607704
    Two-Electron Energy =                 509.6247083496643882
    DFT Exchange-Correlation Energy =       0.0000000000000000
    Empirical Dispersion Energy =           0.0000000000000000
    PCM Polarization Energy =               0.0000000000000000
    EFP Energy =                            0.0000000000000000
    Total Energy =                       -383.9452529399250125

  Mulliken Charges: (a.u.)
   Center  Symbol    Alpha    Beta     Spin     Total
       1     H     0.26752  0.26752  0.00000  0.46496
       2     O     4.34873  4.34873  0.00000 -0.69745
       3     C     2.62045  2.62045  0.00000  0.75910
       4     C     3.21612  3.21612  0.00000 -0.43223
       5     O     4.28164  4.28164  0.00000 -0.56327
       6     C     3.15914  3.15914  0.00000 -0.31827
       7     H     0.39450  0.39450  0.00000  0.21099
       8     H     0.39840  0.39840  0.00000  0.20320
       9     C     3.15516  3.15516  0.00000 -0.31031
      10     H     0.41666  0.41666  0.00000  0.16668
      11     H     0.40247  0.40247  0.00000  0.19506
      12     C     3.15493  3.15493  0.00000 -0.30986
      13     H     0.41848  0.41848  0.00000  0.16303
      14     H     0.42306  0.42306  0.00000  0.15387
      15     C     3.23934  3.23934  0.00000 -0.47868
      16     H     0.42179  0.42179  0.00000  0.15642
      17     H     0.42147  0.42147  0.00000  0.15707
      18     H     0.41794  0.41794  0.00000  0.16413
      19     H     0.42100  0.42100  0.00000  0.15801
      20     H     0.42122  0.42122  0.00000  0.15757

   Total alpha = 32.00000, Total beta = 32.00000, Total charge =  0.00000
