                              Psi4 1.0.54 Driver

  ==> Input File <==

--------------------------------------------------------------------------
set {
	reference rhf
	basis cc-pvtz
}

set_num_threads( 4 )
memory 2 gb

molecule MOL {
0 1

H	 -3.642953	 0.223825	 0.000000
C	 -2.571844	 0.155001	 0.000000
C	 -1.957580	 -1.086132	 0.000000
C	 -1.807160	 1.303787	 0.000000
H	 -2.551493	 -1.979629	 0.000000
C	 -0.582719	 -1.174294	 0.000000
H	 -2.279934	 2.266806	 0.000000
C	 -0.427220	 1.213406	 0.000000
H	 -0.094904	 -2.127556	 0.000000
C	 0.196908	 -0.024061	 0.000000
H	 0.151409	 2.115254	 0.000000
C	 1.690041	 -0.173233	 0.000000
C	 2.297411	 -1.481515	 0.451841
O	 2.386848	 0.725064	 -0.350546
H	 2.014634	 -1.703048	 1.474064
H	 3.370712	 -1.402685	 0.384457
H	 1.955095	 -2.299005	 -0.171465

	symmetry c1
}
set optking {
	frozen_dihedral = ("
		13 12 10 8
	")
}

ee,wfn = optimize('scf', return_wfn=True)
oeprop( wfn, 'DIPOLE', 'QUADRUPOLE', 'MULLIKEN_CHARGES')
f=open( 'psi4out.xyz', 'w' )
f.write( "17  " )
f.write( str(ee) + "\n" )
f.write( MOL.save_string_xyz() )
f.close()
--------------------------------------------------------------------------

    Molecular point group: c1
  Charge       = 0
  Multiplicity = 1
  Basis Set: CC-PVTZ
  Basis Set:
  @DF-RHF Final Energy:  -382.60306486307593
    Total Energy =                       -382.6030648630759288
    Molecular point group: c1
  Basis Set: CC-PVTZ
  Basis Set:
  Basis Set: CC-PVTZ
  Basis Set:
  @DF-RHF Final Energy:  -382.59800351760475
    Total Energy =                       -382.5980035176047522
  Basis Set: CC-PVTZ
  Basis Set:
  Basis Set: CC-PVTZ
  Basis Set:
  @DF-RHF Final Energy:  -382.60438290804234
    Total Energy =                       -382.6043829080423393
  Basis Set: CC-PVTZ
  Basis Set:
  Basis Set: CC-PVTZ
  Basis Set:
  @DF-RHF Final Energy:  -382.59817865557375
    Total Energy =                       -382.5981786555737472
  Basis Set: CC-PVTZ
  Basis Set:
  @DF-RHF Final Energy:  -382.60387794221543
    Total Energy =                       -382.6038779422151492
  Basis Set: CC-PVTZ
  Basis Set:
  @DF-RHF Final Energy:  -382.60504639982156
    Total Energy =                       -382.6050463998216173
  Basis Set: CC-PVTZ
  Basis Set:
  Basis Set: CC-PVTZ
  Basis Set:
  @DF-RHF Final Energy:  -382.60505935133398
    Total Energy =                       -382.6050593513340345
  Basis Set: CC-PVTZ
  Basis Set:
  Basis Set: CC-PVTZ
  Basis Set:
  @DF-RHF Final Energy:  -382.60506103879641
    Total Energy =                       -382.6050610387960660
  Basis Set: CC-PVTZ
  Basis Set:
  Charge       = 0
  Multiplicity = 1
  Basis Set: CC-PVTZ
  Basis Set:

    Orbital Energies (a.u.)
    -----------------------

    Doubly Occupied:

       1A    -20.540939     2A    -11.327918     3A    -11.246596
       4A    -11.243947     5A    -11.242901     6A    -11.239275
       7A    -11.239024     8A    -11.236830     9A    -11.229117
      10A     -1.402243    11A     -1.171250    12A     -1.053478
      13A     -1.030722    14A     -0.998983    15A     -0.864480
      16A     -0.839210    17A     -0.763738    18A     -0.712636
      19A     -0.659276    20A     -0.651958    21A     -0.628355
      22A     -0.613134    23A     -0.602718    24A     -0.598532
      25A     -0.556462    26A     -0.529932    27A     -0.520875
      28A     -0.504054    29A     -0.497488    30A     -0.414453
      31A     -0.350707    32A     -0.346909

  @DF-RHF Final Energy:  -382.60506137053039

   => Energetics <=

    Nuclear Repulsion Energy =            404.4511468747264189
    One-Electron Energy =               -1320.3961352834771787
    Two-Electron Energy =                 533.3399270382203667
    DFT Exchange-Correlation Energy =       0.0000000000000000
    Empirical Dispersion Energy =           0.0000000000000000
    PCM Polarization Energy =               0.0000000000000000
    EFP Energy =                            0.0000000000000000
    Total Energy =                       -382.6050613705303931
    Molecular point group: c1
  Basis Set: CC-PVTZ
  Basis Set:

  -Total Gradient:
     Atom            X                  Y                   Z
    ------   -----------------  -----------------  -----------------
       1       -0.000003168599    -0.000001967114    -0.000002468072
       2        0.000005126346     0.000051470541     0.000011190512
       3        0.000043481712    -0.000018142622    -0.000008535827
       4       -0.000032468309    -0.000010434169     0.000004450995
       5       -0.000003811784     0.000002935441     0.000001285100
       6       -0.000031197969    -0.000025950722     0.000007380852
       7       -0.000004458690     0.000002532119    -0.000000254253
       8       -0.000147366268     0.000010363199     0.001867172071
       9        0.000000290424     0.000003267986    -0.000006707010
      10        0.000110763360     0.000266522311    -0.001928391845
      11        0.000001184404    -0.000000670445     0.000005825098
      12        0.000214141970    -0.000873373483    -0.001583006678
      13       -0.000128003104     0.000619251791     0.001639755283
      14       -0.000020436029    -0.000007953517    -0.000002481094
      15       -0.000004901197     0.000007321354     0.000003841817
      16        0.000002954998    -0.000011575788     0.000003805246
      17       -0.000002131263    -0.000013596878    -0.000012862195

  **** Optimization is complete! (in 9 steps) ****
    Final optimized geometry and variables:
    Molecular point group: c1

    Geometry (in Angstrom), charge = 0, multiplicity = 1:

    H           -3.638661635919     0.052036924108    -0.261851564555
    C           -2.567689257159     0.038810149825    -0.192013955933
    C           -1.895125469840    -1.165223512757    -0.132566556377
    C           -1.861249066893     1.228999570963    -0.158625980525
    H           -2.439650658560    -2.089282541257    -0.158781285738
    C           -0.516097804608    -1.180727018927    -0.033243025319
    H           -2.383552512216     2.165345891764    -0.199144986132
    C           -0.485651094017     1.211795390615    -0.074506758175
    H           -0.008817932286    -2.123502461311     0.020246287213
    C            0.200017483842     0.005523039391    -0.014329344464
    H            0.073054934882     2.125500565488    -0.056508806130
    C            1.696138240494     0.040292305407     0.098610111387
    C            2.416187731677    -1.184092687191     0.615864683694
    O            2.299790057394     1.026229460324    -0.180254790834
    H            1.992844344454    -1.507455947860     1.558819536151
    H            3.459468022378    -0.942352125692     0.743802542034
    H            2.326840252544    -2.005425430045    -0.085904176987

  Mulliken Charges: (a.u.)
   Center  Symbol    Alpha    Beta     Spin     Total
       1     H     0.42033  0.42033  0.00000  0.15933
       2     C     3.07397  3.07397  0.00000 -0.14794
       3     C     3.07480  3.07480  0.00000 -0.14961
       4     C     3.07306  3.07306  0.00000 -0.14611
       5     H     0.42219  0.42219  0.00000  0.15562
       6     C     3.08701  3.08701  0.00000 -0.17402
       7     H     0.42037  0.42037  0.00000  0.15926
       8     C     3.07794  3.07794  0.00000 -0.15588
       9     H     0.42185  0.42185  0.00000  0.15629
      10     C     3.00432  3.00432  0.00000 -0.00864
      11     H     0.40827  0.40827  0.00000  0.18346
      12     C     2.84181  2.84181  0.00000  0.31637
      13     C     3.16569  3.16569  0.00000 -0.33139
      14     O     4.18187  4.18187  0.00000 -0.36374
      15     H     0.44521  0.44521  0.00000  0.10957
      16     H     0.43227  0.43227  0.00000  0.13546
      17     H     0.44903  0.44903  0.00000  0.10194

   Total alpha = 32.00000, Total beta = 32.00000, Total charge = -0.00000

*** Psi4 exiting successfully. Buy a developer a beer!
