                              Psi4 1.0.54 Driver

  ==> Input File <==

--------------------------------------------------------------------------
set {
	reference rhf
	basis cc-pvtz
}

set_num_threads( 4 )
memory 2 gb

molecule MOL {
0 1

H	 -4.230259	 0.539112	 0.036360
O	 -3.515113	 -0.019339	 -0.206321
C	 -2.302264	 0.528872	 0.237390
C	 -1.175688	 -0.398187	 -0.171891
H	 -2.148018	 1.514076	 -0.197759
H	 -2.310727	 0.646384	 1.319032
C	 0.196029	 0.106276	 0.266738
H	 -1.201873	 -0.515469	 -1.250677
H	 -1.365975	 -1.378728	 0.252664
C	 1.330220	 -0.826136	 -0.155230
H	 0.359542	 1.097229	 -0.145561
H	 0.212134	 0.218135	 1.348778
C	 2.719700	 -0.407669	 0.328325
H	 1.339388	 -0.911200	 -1.239363
H	 1.119001	 -1.821953	 0.224128
C	 3.840939	 -1.379410	 -0.032094
H	 2.687938	 -0.299262	 1.408115
H	 2.955340	 0.576993	 -0.067083
H	 3.629267	 -2.375042	 0.344700
H	 3.984228	 -1.455074	 -1.103276
H	 4.781885	 -1.057417	 0.399314

	symmetry c1
}
set optking {
	frozen_dihedral = ("
		16 13 10 14
	")
}

ee,wfn = optimize('scf', return_wfn=True)
oeprop( wfn, 'DIPOLE', 'QUADRUPOLE', 'MULLIKEN_CHARGES')
f=open( 'psi4out.xyz', 'w' )
f.write( "21  " )
f.write( str(ee) + "\n" )
f.write( MOL.save_string_xyz() )
f.close()
--------------------------------------------------------------------------

    Molecular point group: c1
  Charge       = 0
  Multiplicity = 1
  Basis Set: CC-PVTZ
  Basis Set:
  @DF-RHF Final Energy:  -310.33436531979424
    Total Energy =                       -310.3343653197943013
    Molecular point group: c1
  Basis Set: CC-PVTZ
  Basis Set:
  Basis Set: CC-PVTZ
  Basis Set:
  @DF-RHF Final Energy:  -310.33466702279537
    Total Energy =                       -310.3346670227955997
  Basis Set: CC-PVTZ
  Basis Set:
  Basis Set: CC-PVTZ
  Basis Set:
  @DF-RHF Final Energy:  -310.33476258169890
    Total Energy =                       -310.3347625816985556
  Basis Set: CC-PVTZ
  Basis Set:
  Basis Set: CC-PVTZ
  Basis Set:
  @DF-RHF Final Energy:  -310.33476379629019
    Total Energy =                       -310.3347637962901899
  Basis Set: CC-PVTZ
  Basis Set:
  Charge       = 0
  Multiplicity = 1
  Basis Set: CC-PVTZ
  Basis Set:

    Orbital Energies (a.u.)
    -----------------------

    Doubly Occupied:

       1A    -20.545402     2A    -11.265009     3A    -11.213571
       4A    -11.212685     5A    -11.210980     6A    -11.208999
       7A    -11.205950     8A     -1.363247     9A     -1.087657
      10A     -1.035969    11A     -0.957881    12A     -0.868008
      13A     -0.802213    14A     -0.790835    15A     -0.695663
      16A     -0.665407    17A     -0.633783    18A     -0.598087
      19A     -0.581035    20A     -0.564278    21A     -0.549634
      22A     -0.521589    23A     -0.508718    24A     -0.484263
      25A     -0.477646    26A     -0.462367    27A     -0.462094
      28A     -0.444486    29A     -0.437405

  @DF-RHF Final Energy:  -310.33476433891178

   => Energetics <=

    Nuclear Repulsion Energy =            309.4301038949063241
    One-Electron Energy =               -1033.8200117971150576
    Two-Electron Energy =                 414.0551435632970652
    DFT Exchange-Correlation Energy =       0.0000000000000000
    Empirical Dispersion Energy =           0.0000000000000000
    PCM Polarization Energy =               0.0000000000000000
    EFP Energy =                            0.0000000000000000
    Total Energy =                       -310.3347643389116683
    Molecular point group: c1
  Basis Set: CC-PVTZ
  Basis Set:

  -Total Gradient:
     Atom            X                  Y                   Z
    ------   -----------------  -----------------  -----------------
       1       -0.000001715325     0.000001497146    -0.000000426400
       2       -0.000014422130    -0.000016703276    -0.000009728380
       3        0.000022950713     0.000007946249     0.000002968932
       4       -0.000027062980    -0.000000867083    -0.000001661215
       5        0.000005022295     0.000002078823     0.000000868841
       6        0.000006483948    -0.000003728896    -0.000000377797
       7       -0.000000671013     0.000001587268    -0.000000882835
       8       -0.000002492250     0.000003390381     0.000000831874
       9        0.000000917329    -0.000002201478     0.000003886423
      10        0.000143171320    -0.000557992416     0.000157515517
      11        0.000001789644     0.000002881091    -0.000006487655
      12        0.000013850772    -0.000001611119    -0.000000807431
      13        0.000020869956     0.000291313097    -0.000372480474
      14       -0.000130674247     0.000407038123    -0.000036497689
      15       -0.000008733598    -0.000002495057    -0.000008471218
      16       -0.000035316479    -0.000121204390     0.000277773782
      17        0.000003903486     0.000007026114     0.000002702080
      18        0.000008387474    -0.000006192294     0.000001545086
      19       -0.000006494040    -0.000007024961     0.000006087542
      20       -0.000005049612    -0.000002816426    -0.000016918117
      21        0.000005284739    -0.000001920895     0.000000559136

  **** Optimization is complete! (in 5 steps) ****
    Final optimized geometry and variables:
    Molecular point group: c1

    Geometry (in Angstrom), charge = 0, multiplicity = 1:

    H           -4.304495489166     0.907883745824    -0.046298795541
    O           -3.592802643748     0.346012246347    -0.291072293840
    C           -2.381184955557     0.862921431836     0.191830012397
    C           -1.260107517209    -0.068550546498    -0.222330357227
    H           -2.204029176539     1.857809511959    -0.211398201684
    H           -2.409307672911     0.949333199629     1.276037970292
    C            0.109631419992     0.403911096130     0.254892929391
    H           -1.268069338361    -0.156275213540    -1.304107200337
    H           -1.471407814730    -1.057423284034     0.172040728699
    C            1.243469482476    -0.530741424239    -0.157496752396
    H            0.307022362686     1.398811469624    -0.137561785868
    H            0.102977558556     0.499954965501     1.338126915702
    C            2.617329467548    -0.059905130512     0.310929607104
    H            1.248648259671    -0.628174060704    -1.240383533629
    H            1.050274596677    -1.524972266513     0.237648053756
    C            3.740514959124    -1.021033430551    -0.063824172838
    H            2.602998400316     0.070932508346     1.389670739560
    H            2.824435701643     0.919692435715    -0.111215659230
    H            3.581502015189    -1.999042178186     0.378072032977
    H            3.801509968999    -1.152085203794    -1.139190795632
    H            4.701666453931    -0.655651864423     0.279328774295

  Mulliken Charges: (a.u.)
   Center  Symbol    Alpha    Beta     Spin     Total
       1     H     0.39761  0.39761  0.00000  0.20478
       2     O     4.19433  4.19433  0.00000 -0.38866
       3     C     2.96390  2.96390  0.00000  0.07220
       4     C     3.08453  3.08453  0.00000 -0.16907
       5     H     0.47484  0.47484  0.00000  0.05032
       6     H     0.47482  0.47482  0.00000  0.05036
       7     C     3.10067  3.10067  0.00000 -0.20134
       8     H     0.45100  0.45100  0.00000  0.09800
       9     H     0.45100  0.45100  0.00000  0.09800
      10     C     3.08535  3.08535  0.00000 -0.17071
      11     H     0.45554  0.45554  0.00000  0.08892
      12     H     0.45550  0.45550  0.00000  0.08899
      13     C     3.08347  3.08347  0.00000 -0.16695
      14     H     0.45408  0.45408  0.00000  0.09185
      15     H     0.45423  0.45423  0.00000  0.09154
      16     C     3.15038  3.15038  0.00000 -0.30076
      17     H     0.45529  0.45529  0.00000  0.08942
      18     H     0.45480  0.45480  0.00000  0.09040
      19     H     0.45499  0.45499  0.00000  0.09002
      20     H     0.45501  0.45501  0.00000  0.08998
      21     H     0.44865  0.44865  0.00000  0.10271

   Total alpha = 29.00000, Total beta = 29.00000, Total charge = -0.00000

*** Psi4 exiting successfully. Buy a developer a beer!
