                              Psi4 1.0.54 Driver

  ==> Input File <==

--------------------------------------------------------------------------
set {
	reference rhf
	basis cc-pvtz
}

set_num_threads( 4 )
memory 2 gb

molecule MOL {
0 1

H	 -5.622760	 -3.353358	 -1.617591
O	 -5.963806	 -3.991409	 -1.018919
C	 -4.934390	 -4.829786	 -0.564276
C	 -3.986844	 -4.151157	 0.413633
H	 -5.424524	 -5.660947	 -0.075483
H	 -4.375517	 -5.234992	 -1.405655
C	 -3.170697	 -3.011547	 -0.192207
H	 -4.565555	 -3.780020	 1.254173
H	 -3.311794	 -4.908537	 0.804887
C	 -2.207645	 -2.376492	 0.809828
H	 -3.844330	 -2.252920	 -0.576533
H	 -2.604061	 -3.386900	 -1.042689
C	 -1.311023	 -1.277304	 0.237018
H	 -2.775494	 -1.976661	 1.646433
H	 -1.573535	 -3.157014	 1.221119
C	 -2.041121	 -0.006551	 -0.194127
H	 -0.572852	 -1.013080	 0.989226
H	 -0.751646	 -1.674548	 -0.607049
C	 -3.489218	 0.042606	 0.286507
H	 -2.022185	 0.066287	 -1.279394
H	 -1.518764	 0.869305	 0.178730
C	 -4.219984	 1.311773	 -0.139038
H	 -4.022855	 -0.824300	 -0.093339
H	 -3.510372	 -0.038577	 1.370031
H	 -4.244251	 1.405725	 -1.219696
H	 -5.244345	 1.313233	 0.215630
H	 -3.732090	 2.196311	 0.257073

	symmetry c1
}
set optking {
	frozen_dihedral = ("
		10 13 16 20
	")
}

ee,wfn = optimize('scf', return_wfn=True)
oeprop( wfn, 'DIPOLE', 'QUADRUPOLE', 'MULLIKEN_CHARGES')
f=open( 'psi4out.xyz', 'w' )
f.write( "27  " )
f.write( str(ee) + "\n" )
f.write( MOL.save_string_xyz() )
f.close()
--------------------------------------------------------------------------

    Molecular point group: c1
  Charge       = 0
  Multiplicity = 1
  Basis Set: CC-PVTZ
  Basis Set:
  @DF-RHF Final Energy:  -388.40506337220666
    Total Energy =                       -388.4050633722059729
    Molecular point group: c1
  Basis Set: CC-PVTZ
  Basis Set:
  Basis Set: CC-PVTZ
  Basis Set:
  @DF-RHF Final Energy:  -388.41535699855325
    Total Energy =                       -388.4153569985543299
  Basis Set: CC-PVTZ
  Basis Set:
  Basis Set: CC-PVTZ
  Basis Set:
  @DF-RHF Final Energy:  -388.41718940546832
    Total Energy =                       -388.4171894054675249
  Basis Set: CC-PVTZ
  Basis Set:
  Basis Set: CC-PVTZ
  Basis Set:
  @DF-RHF Final Energy:  -388.41784713451551
    Total Energy =                       -388.4178471345153412
  Basis Set: CC-PVTZ
  Basis Set:
  @DF-RHF Final Energy:  -388.41798978824204
    Total Energy =                       -388.4179897882418118
  Basis Set: CC-PVTZ
  Basis Set:
  @DF-RHF Final Energy:  -388.41808090013774
    Total Energy =                       -388.4180809001372836
  Basis Set: CC-PVTZ
  Basis Set:
  Basis Set: CC-PVTZ
  Basis Set:
  @DF-RHF Final Energy:  -388.41809413132489
    Total Energy =                       -388.4180941313247786
  Basis Set: CC-PVTZ
  Basis Set:
  Basis Set: CC-PVTZ
  Basis Set:
  @DF-RHF Final Energy:  -388.41809540627912
    Total Energy =                       -388.4180954062791216
  Basis Set: CC-PVTZ
  Basis Set:
  Charge       = 0
  Multiplicity = 1
  Basis Set: CC-PVTZ
  Basis Set:

    Orbital Energies (a.u.)
    -----------------------

    Doubly Occupied:

       1A    -20.545426     2A    -11.264971     3A    -11.216158
       4A    -11.214020     5A    -11.213943     6A    -11.213413
       7A    -11.213033     8A    -11.212440     9A    -11.206860
      10A     -1.363300    11A     -1.093846    12A     -1.059840
      13A     -1.010709    14A     -0.949906    15A     -0.887821
      16A     -0.834889    17A     -0.800122    18A     -0.763994
      19A     -0.696634    20A     -0.647728    21A     -0.642419
      22A     -0.615691    23A     -0.602173    24A     -0.583502
      25A     -0.575074    26A     -0.571982    27A     -0.532805
      28A     -0.517019    29A     -0.511484    30A     -0.498337
      31A     -0.486772    32A     -0.483064    33A     -0.469099
      34A     -0.449060    35A     -0.447326    36A     -0.444698
      37A     -0.423338

  @DF-RHF Final Energy:  -388.41809630924888

   => Energetics <=

    Nuclear Repulsion Energy =            471.0719367370068085
    One-Electron Energy =               -1460.4542711169044651
    Two-Electron Energy =                 600.9642380706488893
    DFT Exchange-Correlation Energy =       0.0000000000000000
    Empirical Dispersion Energy =           0.0000000000000000
    PCM Polarization Energy =               0.0000000000000000
    EFP Energy =                            0.0000000000000000
    Total Energy =                       -388.4180963092487673
    Molecular point group: c1
  Basis Set: CC-PVTZ
  Basis Set:

  -Total Gradient:
     Atom            X                  Y                   Z
    ------   -----------------  -----------------  -----------------
       1       -0.000017048704    -0.000004748697     0.000009894368
       2        0.000052613206     0.000028641400    -0.000031482952
       3       -0.000067852208    -0.000013062242     0.000038043964
       4        0.000035845049    -0.000000219867    -0.000015335348
       5        0.000032034760    -0.000006931134     0.000012684239
       6        0.000002380216     0.000020591254     0.000011135566
       7        0.000004036888    -0.000011257751     0.000005844461
       8       -0.000005845725    -0.000018283788    -0.000021443283
       9       -0.000011999350     0.000004906139    -0.000006099681
      10        0.000986901208     0.001697391716     0.004650063279
      11       -0.000004920782     0.000007221513    -0.000001224913
      12       -0.000007063259     0.000000410021     0.000014794808
      13       -0.000072643490    -0.001675645306    -0.006824297511
      14       -0.000001254874    -0.000012175453    -0.000004186739
      15       -0.000000483073    -0.000016962863    -0.000001203498
      16       -0.006639691996    -0.003393713737     0.002142866839
      17        0.000000678650    -0.000015301796     0.000002037075
      18        0.000003468245    -0.000004420522     0.000002715385
      19       -0.000005014954     0.000015731689    -0.000022143188
      20        0.005745981888     0.003390405858     0.000039778721
      21        0.000003967274     0.000000877175    -0.000014365171
      22       -0.000003044803    -0.000006383220     0.000027581569
      23       -0.000032212449    -0.000022552899    -0.000017046641
      24        0.000010270334     0.000008451832     0.000016773100
      25       -0.000006558128     0.000000963833    -0.000022862883
      26       -0.000010882851     0.000010576963     0.000006478815
      27        0.000008338925     0.000015489880     0.000000999622

  **** Optimization is complete! (in 9 steps) ****
    Final optimized geometry and variables:
    Molecular point group: c1

    Geometry (in Angstrom), charge = 0, multiplicity = 1:

    H           -1.841888996791    -1.720586458011    -1.818197768982
    O           -2.211978198736    -2.312953275003    -1.190714519235
    C           -1.195859869373    -3.037571131270    -0.549008775696
    C           -0.394375874941    -2.207974759089     0.442762688365
    H           -1.691987331484    -3.845419181189    -0.028243928464
    H           -0.530148977391    -3.487922113538    -1.282664769671
    C            0.409692025916    -1.075739789925    -0.191286183926
    H           -1.076227971990    -1.801747724698     1.183783076459
    H            0.281461398980    -2.877590433601     0.969573353634
    C            1.265375127875    -0.310776732216     0.819018877313
    H           -0.264101783465    -0.388665968403    -0.692820341991
    H            1.061230954482    -1.484263341851    -0.961515367275
    C            2.047638266597     0.865788753105     0.225550422277
    H            0.646054583417     0.026972291166     1.642081800897
    H            1.980773674802    -1.005665932690     1.249493074415
    C            1.276693750068     2.174597455508    -0.088506500178
    H            2.831450822517     1.109188441358     0.935354536562
    H            2.560596474724     0.532216750301    -0.670606523581
    C           -0.086247093702     2.385495075140     0.566621640822
    H            1.203066801847     2.308509902836    -1.163943043487
    H            1.911497564768     2.999122819586     0.225183111456
    C           -0.691223850999     3.739215795259     0.206468948495
    H           -0.778461937686     1.603070987041     0.278436043202
    H            0.015637553041     2.320460154280     1.645768436102
    H           -0.839486089775     3.829119426795    -0.864607232127
    H           -1.653434883205     3.877793033569     0.685903713382
    H           -0.045444174524     4.553244466149     0.518457944278

  Mulliken Charges: (a.u.)
   Center  Symbol    Alpha    Beta     Spin     Total
       1     H     0.39215  0.39215  0.00000  0.21569
       2     O     4.20586  4.20586  0.00000 -0.41171
       3     C     2.97963  2.97963  0.00000  0.04074
       4     C     3.08925  3.08925  0.00000 -0.17849
       5     H     0.44867  0.44867  0.00000  0.10267
       6     H     0.46931  0.46931  0.00000  0.06137
       7     C     3.10407  3.10407  0.00000 -0.20814
       8     H     0.45067  0.45067  0.00000  0.09867
       9     H     0.45546  0.45546  0.00000  0.08907
      10     C     3.10969  3.10969  0.00000 -0.21938
      11     H     0.45637  0.45637  0.00000  0.08727
      12     H     0.45042  0.45042  0.00000  0.09915
      13     C     3.10385  3.10385  0.00000 -0.20769
      14     H     0.44750  0.44750  0.00000  0.10501
      15     H     0.44245  0.44245  0.00000  0.11510
      16     C     3.09877  3.09877  0.00000 -0.19754
      17     H     0.44629  0.44629  0.00000  0.10741
      18     H     0.44979  0.44979  0.00000  0.10042
      19     C     3.08982  3.08982  0.00000 -0.17965
      20     H     0.45020  0.45020  0.00000  0.09959
      21     H     0.45028  0.45028  0.00000  0.09945
      22     C     3.15188  3.15188  0.00000 -0.30376
      23     H     0.44867  0.44867  0.00000  0.10267
      24     H     0.45218  0.45218  0.00000  0.09563
      25     H     0.45529  0.45529  0.00000  0.08942
      26     H     0.44737  0.44737  0.00000  0.10526
      27     H     0.45410  0.45410  0.00000  0.09179

   Total alpha = 37.00000, Total beta = 37.00000, Total charge = -0.00000

*** Psi4 exiting successfully. Buy a developer a beer!
