  ==> Input File <==

--------------------------------------------------------------------------
set {
	reference rhf
	basis 6-31G*
}

set_num_threads( 4 )
memory 2 gb

molecule MOL {
0 1

H	 1.418883	 0.877495	 -0.828300
C	 0.850167	 0.441173	 0.000644
C	 -0.623425	 0.760064	 0.000248
O	 1.398468	 -0.229608	 0.813764
C	 -1.518387	 -0.473136	 -0.000101
H	 -0.818289	 1.390622	 -0.866171
H	 -0.818694	 1.390413	 0.866696
H	 -1.333417	 -1.085530	 -0.874338
H	 -2.563510	 -0.183466	 -0.000351
H	 -1.333864	 -1.085676	 0.874123

	symmetry c1
}
set optking {
	frozen_dihedral = ("
		4 2 3 6
	")
}

ee = optimize('scf')
oeprop('DIPOLE', 'QUADRUPOLE', 'MULLIKEN_CHARGES')
f=open( 'psi4out.xyz', 'w' )
f.write( "10  " )
f.write( str(ee) + "\n" )
f.write( MOL.save_string_xyz() )
f.close()
--------------------------------------------------------------------------

    Molecular point group: c1
  Charge       = 0
  Multiplicity = 1
  Basis Set: 6-31G*
  Basis Set:
  @DF-RHF Final Energy:  -191.94825693107444
    Total Energy =                       -191.9482569310745248
    Molecular point group: c1
  Basis Set: 6-31G*
  Basis Set:
  Basis Set: 6-31G*
  Basis Set:
  @DF-RHF Final Energy:  -191.94834118839469
    Total Energy =                       -191.9483411883946928
  Basis Set: 6-31G*
  Basis Set:
  Basis Set: 6-31G*
  Basis Set:
  @DF-RHF Final Energy:  -191.94792200264479
    Total Energy =                       -191.9479220026447024
  Basis Set: 6-31G*
  Basis Set:
  Basis Set: 6-31G*
  Basis Set:
  @DF-RHF Final Energy:  -191.94886483564761
    Total Energy =                       -191.9488648356474982
  Basis Set: 6-31G*
  Basis Set:
  Basis Set: 6-31G*
  Basis Set:
  @DF-RHF Final Energy:  -191.94886852355276
    Total Energy =                       -191.9488685235527612
  Basis Set: 6-31G*
  Basis Set:
  Charge       = 0
  Multiplicity = 1
  Basis Set: 6-31G*
  Basis Set:

    Orbital Energies (a.u.)
    -----------------------

    Doubly Occupied:

       1A    -20.563941     2A    -11.328794     3A    -11.238735
       4A    -11.226168     5A     -1.404426     6A     -1.059810
       7A     -0.905961     8A     -0.782310     9A     -0.683090
      10A     -0.638364    11A     -0.611154    12A     -0.564588
      13A     -0.536283    14A     -0.511786    15A     -0.491289
      16A     -0.412322

  @DF-RHF Final Energy:  -191.94886907274781

   => Energetics <=

    Nuclear Repulsion Energy =            118.6232013528071008
    One-Electron Energy =                -495.2260964883864744
    Two-Electron Energy =                 184.6540260628316048
    DFT Exchange-Correlation Energy =       0.0000000000000000
    Empirical Dispersion Energy =           0.0000000000000000
    PCM Polarization Energy =               0.0000000000000000
    EFP Energy =                            0.0000000000000000
    Total Energy =                       -191.9488690727477831
    Molecular point group: c1
  Basis Set: 6-31G*
  Basis Set:

  -Total Gradient:
     Atom            X                  Y                   Z
    ------   -----------------  -----------------  -----------------
       1       -0.000017717707    -0.000003176813     0.000001649777
       2       -0.000221768766    -0.000991984064    -0.000673018753
       3       -0.000183769529    -0.000754834580    -0.000481655161
       4        0.000188849386     0.000851153259     0.000579191038
       5        0.000029451041     0.000026053072     0.000002025251
       6        0.000194514128     0.000860590085     0.000569028286
       7        0.000019153579     0.000010101425    -0.000003573582
       8       -0.000000288062     0.000000487917     0.000008087392
       9       -0.000008129443     0.000006145350     0.000001258010
      10       -0.000000294631    -0.000004535651    -0.000002992260

  **** Optimization is complete! (in 6 steps) ****
    Final optimized geometry and variables:
    Molecular point group: c1

    Geometry (in Angstrom), charge = 0, multiplicity = 1:

    H            1.449756830380     0.742042927208    -1.021023450036
    C            0.836194294707     0.326695588980    -0.214769345326
    C           -0.638859427922     0.667599204924    -0.234199309762
    O            1.337051522161    -0.345383559409     0.628119148767
    C           -1.520059946507    -0.584863894214    -0.212998100246
    H           -0.859774848695     1.289673396967    -1.095465718820
    H           -0.836431585799     1.267058192325     0.650900938860
    H           -1.370516535544    -1.186584042882    -1.103773044588
    H           -2.568021172872    -0.310472215000    -0.167195334394
    H           -1.285529698669    -1.195254112541     0.649774653277

  Mulliken Charges: (a.u.)
   Center  Symbol    Alpha    Beta     Spin     Total
       1     H     0.42593  0.42593  0.00000  0.14814
       2     C     2.84527  2.84527  0.00000  0.30946
       3     C     3.20085  3.20085  0.00000 -0.40169
       4     O     4.23588  4.23588  0.00000 -0.47177
       5     C     3.24387  3.24387  0.00000 -0.48774
       6     H     0.41548  0.41548  0.00000  0.16904
       7     H     0.40003  0.40003  0.00000  0.19993
       8     H     0.41650  0.41650  0.00000  0.16700
       9     H     0.41408  0.41408  0.00000  0.17184
      10     H     0.40211  0.40211  0.00000  0.19579

   Total alpha = 16.00000, Total beta = 16.00000, Total charge = -0.00000
