  ==> Input File <==

--------------------------------------------------------------------------
set {
	reference rhf
	basis 6-31G*
}

set_num_threads( 1 )
memory 2 gb

molecule MOL {
0 1

H	 -3.284186	 -2.886251	 -4.188567
O	 -3.722105	 -3.718341	 -4.084045
C	 -2.903645	 -4.595690	 -3.352994
C	 -2.816364	 -4.243048	 -1.872199
H	 -3.345898	 -5.576751	 -3.469630
H	 -1.905696	 -4.637346	 -3.787899
C	 -2.159636	 -2.889029	 -1.592545
H	 -3.820002	 -4.254967	 -1.455145
H	 -2.254433	 -5.028298	 -1.369224
C	 -2.037977	 -2.588680	 -0.095946
H	 -2.737992	 -2.105417	 -2.074023
H	 -1.167099	 -2.868110	 -2.042848
C	 -1.309753	 -1.282496	 0.241564
H	 -3.031828	 -2.571566	 0.347691
H	 -1.508160	 -3.411087	 0.380123
C	 -2.037799	 -0.007733	 -0.193645
H	 -1.157696	 -1.244418	 1.318247
H	 -0.315823	 -1.299929	 -0.202999
C	 -3.489788	 0.042957	 0.286558
H	 -2.017067	 0.064384	 -1.280144
H	 -1.513726	 0.868678	 0.179924
C	 -4.216917	 1.317354	 -0.141063
H	 -4.025645	 -0.823308	 -0.095450
H	 -3.513059	 -0.038752	 1.371301
H	 -4.239342	 1.411634	 -1.223113
H	 -5.243387	 1.322503	 0.212445
H	 -3.726170	 2.201406	 0.256408

	symmetry c1
}
set optking {
	frozen_dihedral = ("
		14 10 7 4,
		14 10 13 16,
		10 7 4 8,
		8 4 3 2,
		20 16 19 22,
		4 3 2 1
	")
}

ee = energy('scf')
oeprop('DIPOLE', 'QUADRUPOLE', 'MULLIKEN_CHARGES')
f=open( 'psi4out.xyz', 'w' )
f.write( "27  " )
f.write( str(ee) + "\n" )
f.write( MOL.save_string_xyz() )
f.close()
--------------------------------------------------------------------------

    Molecular point group: c1

    Geometry (in Angstrom), charge = 0, multiplicity = 1:

       Center              X                  Y                   Z               Mass
    ------------   -----------------  -----------------  -----------------  -----------------
           H         -0.514874841683    -0.876425802469    -2.934307026997     1.007825032070
           O         -0.952793841683    -1.708515802469    -2.829785026997    15.994914619560
           C         -0.134333841683    -2.585864802469    -2.098734026997    12.000000000000
           C         -0.047052841683    -2.233222802469    -0.617939026997    12.000000000000
           H         -0.576586841683    -3.566925802469    -2.215370026997     1.007825032070
           H          0.863615158317    -2.627520802469    -2.533639026997     1.007825032070
           C          0.609675158317    -0.879203802469    -0.338285026997    12.000000000000
           H         -1.050690841683    -2.245141802469    -0.200885026997     1.007825032070
           H          0.514878158317    -3.018472802469    -0.114964026997     1.007825032070
           C          0.731334158317    -0.578854802469     1.158313973003    12.000000000000
           H          0.031319158317    -0.095591802469    -0.819763026997     1.007825032070
           H          1.602212158317    -0.858284802469    -0.788588026997     1.007825032070
           C          1.459558158317     0.727329197531     1.495823973003    12.000000000000
           H         -0.262516841683    -0.561740802469     1.601950973003     1.007825032070
           H          1.261151158317    -1.401261802469     1.634382973003     1.007825032070
           C          0.731512158317     2.002092197531     1.060614973003    12.000000000000
           H          1.611615158317     0.765407197531     2.572506973003     1.007825032070
           H          2.453488158317     0.709896197531     1.051260973003     1.007825032070
           C         -0.720476841683     2.052782197531     1.540817973003    12.000000000000
           H          0.752244158317     2.074209197531    -0.025884026997     1.007825032070
           H          1.255585158317     2.878503197531     1.434183973003     1.007825032070
           C         -1.447605841683     3.327179197531     1.113196973003    12.000000000000
           H         -1.256333841683     1.186517197531     1.158809973003     1.007825032070
           H         -0.743747841683     1.971073197531     2.625560973003     1.007825032070
           H         -1.470030841683     3.421459197531     0.031146973003     1.007825032070
           H         -2.474075841683     3.332328197531     1.466704973003     1.007825032070
           H         -0.956858841683     4.211231197531     1.510667973003     1.007825032070

  Charge       = 0
  Multiplicity = 1
  Basis Set: 6-31G*
  Basis Set:

    Orbital Energies (a.u.)
    -----------------------

    Doubly Occupied:

       1A    -20.552611     2A    -11.267336     3A    -11.220314
       4A    -11.216359     5A    -11.215656     6A    -11.215507
       7A    -11.214977     8A    -11.214159     9A    -11.208841
      10A     -1.359355    11A     -1.097567    12A     -1.059925
      13A     -1.009422    14A     -0.949476    15A     -0.887008
      16A     -0.832432    17A     -0.802983    18A     -0.763134
      19A     -0.693870    20A     -0.654038    21A     -0.638865
      22A     -0.612477    23A     -0.600530    24A     -0.588082
      25A     -0.576886    26A     -0.567667    27A     -0.531413
      28A     -0.522229    29A     -0.510773    30A     -0.495951
      31A     -0.489632    32A     -0.478366    33A     -0.469150
      34A     -0.452189    35A     -0.448108    36A     -0.443347
      37A     -0.423594

  @DF-RHF Final Energy:  -388.27856153590074

   => Energetics <=

    Nuclear Repulsion Energy =            471.4827210409087002
    One-Electron Energy =               -1460.9541723775344053
    Two-Electron Energy =                 601.1928898007253110
    DFT Exchange-Correlation Energy =       0.0000000000000000
    Empirical Dispersion Energy =           0.0000000000000000
    PCM Polarization Energy =               0.0000000000000000
    EFP Energy =                            0.0000000000000000
    Total Energy =                       -388.2785615359003941

  Mulliken Charges: (a.u.)
   Center  Symbol    Alpha    Beta     Spin     Total
       1     H     0.27989  0.27989  0.00000  0.44022
       2     O     4.37098  4.37098  0.00000 -0.74197
       3     C     2.99741  2.99741  0.00000  0.00518
       4     C     3.16081  3.16081  0.00000 -0.32161
       5     H     0.41438  0.41438  0.00000  0.17124
       6     H     0.43192  0.43192  0.00000  0.13616
       7     C     3.16277  3.16277  0.00000 -0.32554
       8     H     0.41525  0.41525  0.00000  0.16949
       9     H     0.42405  0.42405  0.00000  0.15189
      10     C     3.15802  3.15802  0.00000 -0.31604
      11     H     0.42380  0.42380  0.00000  0.15240
      12     H     0.42493  0.42493  0.00000  0.15014
      13     C     3.15398  3.15398  0.00000 -0.30796
      14     H     0.41821  0.41821  0.00000  0.16358
      15     H     0.42072  0.42072  0.00000  0.15856
      16     C     3.15293  3.15293  0.00000 -0.30586
      17     H     0.42138  0.42138  0.00000  0.15723
      18     H     0.42237  0.42237  0.00000  0.15526
      19     C     3.15605  3.15605  0.00000 -0.31211
      20     H     0.42511  0.42511  0.00000  0.14977
      21     H     0.42058  0.42058  0.00000  0.15883
      22     C     3.23806  3.23806  0.00000 -0.47612
      23     H     0.41983  0.41983  0.00000  0.16035
      24     H     0.42307  0.42307  0.00000  0.15386
      25     H     0.42237  0.42237  0.00000  0.15526
      26     H     0.41897  0.41897  0.00000  0.16206
      27     H     0.42214  0.42214  0.00000  0.15571

   Total alpha = 37.00000, Total beta = 37.00000, Total charge = -0.00000
