                              Psi4 1.0.54 Driver

  ==> Input File <==

--------------------------------------------------------------------------
set {
	reference rhf
	basis cc-pvtz
}

set_num_threads( 4 )
memory 2 gb

molecule MOL {
0 1

H	 2.190573	 -0.629143	 -0.208718
O	 1.355408	 -0.529451	 0.208662
C	 0.700177	 0.619554	 -0.266242
C	 -0.713111	 0.588314	 0.266177
H	 0.678680	 0.627133	 -1.351786
H	 1.199747	 1.521489	 0.077736
O	 -1.421673	 -0.521378	 -0.196983
H	 -1.244794	 1.469161	 -0.069059
H	 -0.685100	 0.604721	 1.352683
H	 -1.068537	 -1.293151	 0.210060

	symmetry c1
}
set optking {
	frozen_dihedral = ("
		10 7 4 3
	")
}

ee,wfn = optimize('scf', return_wfn=True)
oeprop( wfn, 'DIPOLE', 'QUADRUPOLE', 'MULLIKEN_CHARGES')
f=open( 'psi4out.xyz', 'w' )
f.write( "10  " )
f.write( str(ee) + "\n" )
f.write( MOL.save_string_xyz() )
f.close()
--------------------------------------------------------------------------

    Molecular point group: c1
  Charge       = 0
  Multiplicity = 1
  Basis Set: CC-PVTZ
  Basis Set:
  @DF-RHF Final Energy:  -229.02833642662708
    Total Energy =                       -229.0283364266269928
    Molecular point group: c1
  Basis Set: CC-PVTZ
  Basis Set:
  Basis Set: CC-PVTZ
  Basis Set:
  @DF-RHF Final Energy:  -229.02838589049924
    Total Energy =                       -229.0283858904992940
  Basis Set: CC-PVTZ
  Basis Set:
  Basis Set: CC-PVTZ
  Basis Set:
  @DF-RHF Final Energy:  -229.02842082569620
    Total Energy =                       -229.0284208256962586
  Basis Set: CC-PVTZ
  Basis Set:
  Charge       = 0
  Multiplicity = 1
  Basis Set: CC-PVTZ
  Basis Set:

    Orbital Energies (a.u.)
    -----------------------

    Doubly Occupied:

       1A    -20.557102     2A    -20.543922     3A    -11.271204
       4A    -11.267038     5A     -1.382058     6A     -1.356377
       7A     -1.003413     8A     -0.842646     9A     -0.728351
      10A     -0.687634    11A     -0.643859    12A     -0.606839
      13A     -0.578404    14A     -0.528197    15A     -0.495214
      16A     -0.453592    17A     -0.436820

  @DF-RHF Final Energy:  -229.02842151630384

   => Energetics <=

    Nuclear Repulsion Energy =            134.2129010817729693
    One-Electron Energy =                -579.7173068185931015
    Two-Electron Energy =                 216.4759842205164091
    DFT Exchange-Correlation Energy =       0.0000000000000000
    Empirical Dispersion Energy =           0.0000000000000000
    PCM Polarization Energy =               0.0000000000000000
    EFP Energy =                            0.0000000000000000
    Total Energy =                       -229.0284215163036947
    Molecular point group: c1
  Basis Set: CC-PVTZ
  Basis Set:

  -Total Gradient:
     Atom            X                  Y                   Z
    ------   -----------------  -----------------  -----------------
       1       -0.000004050447     0.000030992215    -0.000008143680
       2       -0.000022259620    -0.000047336131     0.000053340496
       3       -0.000421461806     0.000759271042    -0.001074743831
       4        0.000326566122    -0.000971867580     0.001764534250
       5        0.000004095563    -0.000005780412     0.000013056015
       6       -0.000027608292    -0.000044735029     0.000005864527
       7        0.001425885198     0.000086445977    -0.002247759277
       8        0.000001559433    -0.000038974659    -0.000013442291
       9       -0.000005244412    -0.000008390461    -0.000003777435
      10       -0.001277481732     0.000240375037     0.001511071227

  **** Optimization is complete! (in 4 steps) ****
    Final optimized geometry and variables:
    Molecular point group: c1

    Geometry (in Angstrom), charge = 0, multiplicity = 1:

    H            2.204113110950    -0.615415639829    -0.217942371054
    O            1.377979892708    -0.513005502756     0.216396502250
    C            0.695925894682     0.609581711731    -0.281112512772
    C           -0.709233201926     0.576556815893     0.271080638760
    H            0.655107287093     0.586934571294    -1.365647007039
    H            1.186723061344     1.529151288132     0.028890505234
    O           -1.434269002769    -0.518091637037    -0.204633909751
    H           -1.237725779284     1.466500237436    -0.045627308278
    H           -0.669526605651     0.578532470532     1.356761107766
    H           -1.086894222197    -1.304591313856     0.176331999735

  Mulliken Charges: (a.u.)
   Center  Symbol    Alpha    Beta     Spin     Total
       1     H     0.39163  0.39163  0.00000  0.21674
       2     O     4.20590  4.20590  0.00000 -0.41181
       3     C     2.96965  2.96965  0.00000  0.06070
       4     C     2.96935  2.96935  0.00000  0.06130
       5     H     0.47022  0.47022  0.00000  0.05956
       6     H     0.47386  0.47386  0.00000  0.05229
       7     O     4.20809  4.20809  0.00000 -0.41617
       8     H     0.45719  0.45719  0.00000  0.08562
       9     H     0.46774  0.46774  0.00000  0.06451
      10     H     0.38637  0.38637  0.00000  0.22726

   Total alpha = 17.00000, Total beta = 17.00000, Total charge =  0.00000

*** Psi4 exiting successfully. Buy a developer a beer!
