  ==> Input File <==

--------------------------------------------------------------------------
set {
	reference rhf
	basis 6-31G*
}

set_num_threads( 1 )
memory 2 gb

molecule MOL {
0 1

O	 0.749854	 1.307668	 -0.000040
C	 0.576249	 0.131685	 -0.000108
C	 -0.766779	 -0.556801	 -0.000461
O	 1.568443	 -0.749345	 -0.000005
C	 -1.945214	 0.412366	 0.000161
H	 -0.796911	 -1.211249	 -0.867467
H	 -0.796854	 -1.212390	 0.865687
C	 -1.494795	 1.862989	 0.165640
H	 -2.629167	 0.143822	 0.798092
H	 -2.500996	 0.300677	 -0.924613
H	 -0.961920	 2.007671	 1.101356
H	 -2.346539	 2.535247	 0.164061
H	 -0.833268	 2.166606	 -0.641003
C	 2.886820	 -0.232538	 0.000322
H	 3.059106	 0.369571	 -0.880203
H	 3.540187	 -1.091012	 0.000050
H	 3.059019	 0.368956	 0.881266

	symmetry c1
}
set optking {
	frozen_dihedral = ("
		1 2 3 6,
		14 4 2 1
	")
}

ee = energy('scf')
oeprop('DIPOLE', 'QUADRUPOLE', 'MULLIKEN_CHARGES')
f=open( 'psi4out.xyz', 'w' )
f.write( "17  " )
f.write( str(ee) + "\n" )
f.write( MOL.save_string_xyz() )
f.close()
--------------------------------------------------------------------------

    Molecular point group: c1

    Geometry (in Angstrom), charge = 0, multiplicity = 1:

       Center              X                  Y                   Z               Mass
    ------------   -----------------  -----------------  -----------------  -----------------
           O          0.485916986624     0.986755751465    -0.024406531133    15.994914619560
           C          0.312311986624    -0.189227248535    -0.024474531133    12.000000000000
           C         -1.030716013376    -0.877713248535    -0.024827531133    12.000000000000
           O          1.304505986624    -1.070257248535    -0.024371531133    15.994914619560
           C         -2.209151013376     0.091453751465    -0.024205531133    12.000000000000
           H         -1.060848013376    -1.532161248535    -0.891833531133     1.007825032070
           H         -1.060791013376    -1.533302248535     0.841320468867     1.007825032070
           C         -1.758732013376     1.542076751465     0.141273468867    12.000000000000
           H         -2.893104013376    -0.177090248535     0.773725468867     1.007825032070
           H         -2.764933013376    -0.020235248535    -0.948979531133     1.007825032070
           H         -1.225857013376     1.686758751465     1.076989468867     1.007825032070
           H         -2.610476013376     2.214334751465     0.139694468867     1.007825032070
           H         -1.097205013376     1.845693751465    -0.665369531133     1.007825032070
           C          2.622882986624    -0.553450248535    -0.024044531133    12.000000000000
           H          2.795168986624     0.048658751465    -0.904569531133     1.007825032070
           H          3.276249986624    -1.411924248535    -0.024316531133     1.007825032070
           H          2.795081986624     0.048043751465     0.856899468867     1.007825032070

  Charge       = 0
  Multiplicity = 1
  Basis Set: 6-31G*
  Basis Set:

    Orbital Energies (a.u.)
    -----------------------

    Doubly Occupied:

       1A    -20.605265     2A    -20.540877     3A    -11.375373
       4A    -11.282251     5A    -11.235668     6A    -11.218366
       7A    -11.184274     8A     -1.472505     9A     -1.368715
      10A     -1.077311    11A     -0.998018    12A     -0.930991
      13A     -0.825089    14A     -0.773867    15A     -0.697232
      16A     -0.685942    17A     -0.667656    18A     -0.633103
      19A     -0.613688    20A     -0.556069    21A     -0.549471
      22A     -0.536160    23A     -0.522554    24A     -0.511423
      25A     -0.475675    26A     -0.468487    27A     -0.446078
      28A     -0.407895

  @DF-RHF Final Energy:  -344.86891022380235

   => Energetics <=

    Nuclear Repulsion Energy =            325.4986499284715364
    One-Electron Energy =               -1115.4150103541908265
    Two-Electron Energy =                 445.0474502019187639
    DFT Exchange-Correlation Energy =       0.0000000000000000
    Empirical Dispersion Energy =           0.0000000000000000
    PCM Polarization Energy =               0.0000000000000000
    EFP Energy =                            0.0000000000000000
    Total Energy =                       -344.8689102238005262

  Mulliken Charges: (a.u.)
   Center  Symbol    Alpha    Beta     Spin     Total
       1     O     4.28403  4.28403  0.00000 -0.56805
       2     C     2.60925  2.60925  0.00000  0.78151
       3     C     3.21075  3.21075  0.00000 -0.42151
       4     O     4.30614  4.30614  0.00000 -0.61229
       5     C     3.15790  3.15790  0.00000 -0.31581
       6     H     0.39672  0.39672  0.00000  0.20656
       7     H     0.39700  0.39700  0.00000  0.20600
       8     C     3.23390  3.23390  0.00000 -0.46780
       9     H     0.41753  0.41753  0.00000  0.16493
      10     H     0.41763  0.41763  0.00000  0.16474
      11     H     0.41825  0.41825  0.00000  0.16350
      12     H     0.43089  0.43089  0.00000  0.13822
      13     H     0.40113  0.40113  0.00000  0.19775
      14     C     3.09232  3.09232  0.00000 -0.18463
      15     H     0.40927  0.40927  0.00000  0.18145
      16     H     0.40813  0.40813  0.00000  0.18374
      17     H     0.40916  0.40916  0.00000  0.18168

   Total alpha = 28.00000, Total beta = 28.00000, Total charge =  0.00000
