  ==> Input File <==

--------------------------------------------------------------------------
set {
	reference rhf
	basis 6-31G*
}

set_num_threads( 4 )
memory 2 gb

molecule MOL {
0 1

H	 2.591676	 2.013956	 0.335017
O	 3.341076	 1.666752	 -0.126416
C	 3.569581	 0.339145	 0.272707
C	 3.606294	 0.164521	 1.786935
H	 2.752842	 -0.237576	 -0.142026
H	 4.489998	 -0.039013	 -0.170700
C	 4.758457	 0.904422	 2.470992
H	 2.659113	 0.505824	 2.196480
H	 3.680611	 -0.899821	 2.003778
C	 4.799814	 0.665459	 3.982946
H	 4.666014	 1.968908	 2.274300
H	 5.704372	 0.585447	 2.032995
C	 5.985728	 1.315147	 4.705341
H	 3.870778	 1.018700	 4.426749
H	 4.832665	 -0.407008	 4.163041
C	 5.976316	 2.846275	 4.711451
H	 5.992208	 0.964441	 5.735283
H	 6.914814	 0.961872	 4.260558
C	 7.119768	 3.446153	 5.532487
H	 5.025918	 3.197852	 5.110511
H	 6.038374	 3.225007	 3.694094
C	 7.116461	 4.974435	 5.534966
H	 7.056332	 3.083837	 6.556299
H	 8.069902	 3.088264	 5.141277
H	 6.191586	 5.363810	 5.951160
H	 7.936903	 5.369007	 6.126425
H	 7.215920	 5.368771	 4.527509

	symmetry c1
}
set optking {
	frozen_dihedral = ("
		4 3 2 1
	")
}

ee = optimize('scf')
oeprop('DIPOLE', 'QUADRUPOLE', 'MULLIKEN_CHARGES')
f=open( 'psi4out.xyz', 'w' )
f.write( "27  " )
f.write( str(ee) + "\n" )
f.write( MOL.save_string_xyz() )
f.close()
--------------------------------------------------------------------------

    Molecular point group: c1
  Charge       = 0
  Multiplicity = 1
  Basis Set: 6-31G*
  Basis Set:
  @DF-RHF Final Energy:  -388.28012700846347
    Total Energy =                       -388.2801270084636371
    Molecular point group: c1
  Basis Set: 6-31G*
  Basis Set:
  Basis Set: 6-31G*
  Basis Set:
  @DF-RHF Final Energy:  -388.28149693306432
    Total Energy =                       -388.2814969330637496
  Basis Set: 6-31G*
  Basis Set:
  Basis Set: 6-31G*
  Basis Set:
  @DF-RHF Final Energy:  -388.28196714389134
    Total Energy =                       -388.2819671438916203
  Basis Set: 6-31G*
  Basis Set:
  Basis Set: 6-31G*
  Basis Set:
  @DF-RHF Final Energy:  -388.28196827562306
    Total Energy =                       -388.2819682756228303
  Basis Set: 6-31G*
  Basis Set:
  Basis Set: 6-31G*
  Basis Set:
  @DF-RHF Final Energy:  -388.28196412262224
    Total Energy =                       -388.2819641226221847
  Basis Set: 6-31G*
  Basis Set:
  Basis Set: 6-31G*
  Basis Set:
  @DF-RHF Final Energy:  -388.28197659826299
    Total Energy =                       -388.2819765982629860
  Basis Set: 6-31G*
  Basis Set:
  Charge       = 0
  Multiplicity = 1
  Basis Set: 6-31G*
  Basis Set:

    Orbital Energies (a.u.)
    -----------------------

    Doubly Occupied:

       1A    -20.553050     2A    -11.267435     3A    -11.220036
       4A    -11.214746     5A    -11.213553     6A    -11.213196
       7A    -11.212953     8A    -11.211242     9A    -11.207077
      10A     -1.359738    11A     -1.092624    12A     -1.059842
      13A     -1.010383    14A     -0.945733    15A     -0.884969
      16A     -0.822629    17A     -0.802302    18A     -0.776233
      19A     -0.673673    20A     -0.652173    21A     -0.641345
      22A     -0.618891    23A     -0.604963    24A     -0.584723
      25A     -0.570873    26A     -0.559844    27A     -0.536831
      28A     -0.519915    29A     -0.512876    30A     -0.487892
      31A     -0.479204    32A     -0.475545    33A     -0.465675
      34A     -0.457617    35A     -0.453243    36A     -0.442095
      37A     -0.420456

  @DF-RHF Final Energy:  -388.28197616294574

   => Energetics <=

    Nuclear Repulsion Energy =            460.0066091461711721
    One-Electron Energy =               -1438.1260299815946837
    Two-Electron Energy =                 589.8374446724778863
    DFT Exchange-Correlation Energy =       0.0000000000000000
    Empirical Dispersion Energy =           0.0000000000000000
    PCM Polarization Energy =               0.0000000000000000
    EFP Energy =                            0.0000000000000000
    Total Energy =                       -388.2819761629456252
    Molecular point group: c1
  Basis Set: 6-31G*
  Basis Set:

  -Total Gradient:
     Atom            X                  Y                   Z
    ------   -----------------  -----------------  -----------------
       1        0.000961198048     0.000485343817     0.001152285791
       2       -0.001637367394    -0.000492175267    -0.001455708747
       3        0.001682491784     0.000302783992     0.000199409405
       4       -0.001068159613    -0.000203051288     0.000060048344
       5        0.000047170931    -0.000074484328     0.000029278651
       6       -0.000008076210    -0.000020090045    -0.000023392150
       7        0.000012652526     0.000004405536    -0.000037678169
       8        0.000009506408    -0.000005995980     0.000055560576
       9       -0.000001162894     0.000007032475    -0.000001124691
      10       -0.000007651603    -0.000027232425    -0.000001749913
      11        0.000035612610    -0.000007814529     0.000016510395
      12       -0.000006809203     0.000031700998     0.000012429852
      13        0.000006803443    -0.000015303452    -0.000021401857
      14        0.000003859125     0.000002892825     0.000016382550
      15       -0.000007050042    -0.000000047507    -0.000012003880
      16       -0.000015911179     0.000002668800     0.000017485940
      17       -0.000022395452     0.000000118740    -0.000007287048
      18        0.000010310129    -0.000003851536     0.000021789573
      19        0.000010471993     0.000005759199    -0.000017714095
      20        0.000004230075     0.000005261042     0.000018617403
      21       -0.000014019957     0.000002657749    -0.000010659932
      22        0.000007803339    -0.000000877441    -0.000008652256
      23       -0.000008286749     0.000004703941    -0.000005466405
      24        0.000004141502    -0.000005188708     0.000004367480
      25       -0.000000760613    -0.000002595188     0.000000593732
      26        0.000000352324     0.000000348660    -0.000001476266
      27        0.000001046669     0.000003029919    -0.000000444280

  **** Optimization is complete! (in 7 steps) ****
    Final optimized geometry and variables:
    Molecular point group: c1

    Geometry (in Angstrom), charge = 0, multiplicity = 1:

    H           -2.502136409137     0.218673695001    -2.734858349835
    O           -1.763297670968    -0.114000997750    -3.225740212213
    C           -1.544494546648    -1.459019730128    -2.883203534318
    C           -1.484284760980    -1.694966004136    -1.378087694765
    H           -2.317284628856    -2.088719177368    -3.321086027025
    H           -0.604311429541    -1.732671139727    -3.345796258323
    C           -0.346384462802    -0.943972837641    -0.683842724748
    H           -2.439041741860    -1.407059588221    -0.935975423060
    H           -1.382738569931    -2.764320251536    -1.203454895489
    C           -0.325735056147    -1.170103422461     0.830250399618
    H           -0.433356344542     0.113445839295    -0.907619891034
    H            0.602244047230    -1.268708346894    -1.108636042163
    C            0.857075938297    -0.521239741757     1.558537888486
    H           -1.256366791128    -0.805254890565     1.262800750438
    H           -0.303093302075    -2.240899694076     1.023546851244
    C            0.859007467629     1.009782247540     1.544114724607
    H            0.850311975522    -0.859016511807     2.592903105879
    H            1.787688201773    -0.886778009791     1.127391323832
    C            2.005544733124     1.612153591682     2.358970992418
    H           -0.089357408124     1.373445259934     1.937857606181
    H            0.924984717394     1.373648671484     0.521942853399
    C            2.012846515413     3.140329155515     2.341535598919
    H            1.938846420004     1.263521551328     3.387424128275
    H            2.953478069699     1.242938875286     1.973119781088
    H            1.090527667109     3.541476268954     2.752402889372
    H            2.835796155160     3.536989854330     2.928180842091
    H            2.115184005213     3.520488004996     1.329028479554

  Mulliken Charges: (a.u.)
   Center  Symbol    Alpha    Beta     Spin     Total
       1     H     0.28342  0.28342  0.00000  0.43315
       2     O     4.36961  4.36961  0.00000 -0.73922
       3     C     2.99028  2.99028  0.00000  0.01945
       4     C     3.17532  3.17532  0.00000 -0.35065
       5     H     0.42808  0.42808  0.00000  0.14384
       6     H     0.41702  0.41702  0.00000  0.16596
       7     C     3.15386  3.15386  0.00000 -0.30773
       8     H     0.42783  0.42783  0.00000  0.14434
       9     H     0.42046  0.42046  0.00000  0.15908
      10     C     3.15301  3.15301  0.00000 -0.30602
      11     H     0.41202  0.41202  0.00000  0.17596
      12     H     0.42298  0.42298  0.00000  0.15404
      13     C     3.15292  3.15292  0.00000 -0.30584
      14     H     0.42523  0.42523  0.00000  0.14955
      15     H     0.42292  0.42292  0.00000  0.15416
      16     C     3.15320  3.15320  0.00000 -0.30640
      17     H     0.42229  0.42229  0.00000  0.15542
      18     H     0.42363  0.42363  0.00000  0.15274
      19     C     3.15110  3.15110  0.00000 -0.30220
      20     H     0.42554  0.42554  0.00000  0.14892
      21     H     0.42025  0.42025  0.00000  0.15951
      22     C     3.23921  3.23921  0.00000 -0.47842
      23     H     0.42362  0.42362  0.00000  0.15275
      24     H     0.42296  0.42296  0.00000  0.15408
      25     H     0.42228  0.42228  0.00000  0.15544
      26     H     0.41965  0.41965  0.00000  0.16070
      27     H     0.42130  0.42130  0.00000  0.15740

   Total alpha = 37.00000, Total beta = 37.00000, Total charge =  0.00000
