  ==> Input File <==

--------------------------------------------------------------------------
set {
	reference rhf
	basis cc-pvtz
}

set_num_threads( 4 )
memory 2 gb

molecule MOL {
0 1

H	 -0.337318	 -1.237776	 0.751943
N	 -0.625934	 -0.663929	 -0.000707
C	 -1.978635	 -0.158664	 0.001017
C	 0.271616	 -0.394720	 -0.974624
H	 -2.519057	 -0.493535	 -0.876362
H	 -1.938890	 0.917202	 -0.004137
H	 -2.514266	 -0.485137	 0.884506
C	 1.631478	 -1.025388	 -0.770042
O	 0.024962	 0.290147	 -1.922883
H	 1.545335	 -2.104968	 -0.728992
H	 2.272850	 -0.747399	 -1.590061
H	 2.069681	 -0.687522	 0.161861

	symmetry c1
}
set optking {
	frozen_dihedral = ("
		4 2 3 5
	")
}

ee = optimize('scf')
oeprop('DIPOLE', 'QUADRUPOLE', 'MULLIKEN_CHARGES')
f=open( 'psi4out.xyz', 'w' )
f.write( "12  " )
f.write( str(ee) + "\n" )
f.write( MOL.save_string_xyz() )
f.close()
--------------------------------------------------------------------------

    Molecular point group: c1
  Charge       = 0
  Multiplicity = 1
  Basis Set: CC-PVTZ
  Basis Set:
  @DF-RHF Final Energy:  -247.10056206410201
    Total Energy =                       -247.1005620641017231
    Molecular point group: c1
  Basis Set: CC-PVTZ
  Basis Set:
  Basis Set: CC-PVTZ
  Basis Set:
  @DF-RHF Final Energy:  -247.10118461629912
    Total Energy =                       -247.1011846162989514
  Basis Set: CC-PVTZ
  Basis Set:
  Basis Set: CC-PVTZ
  Basis Set:
  @DF-RHF Final Energy:  -247.10110754424667
    Total Energy =                       -247.1011075442465881
  Basis Set: CC-PVTZ
  Basis Set:
  Charge       = 0
  Multiplicity = 1
  Basis Set: CC-PVTZ
  Basis Set:

    Orbital Energies (a.u.)
    -----------------------

    Doubly Occupied:

       1A    -20.507089     2A    -15.574254     3A    -11.334912
       4A    -11.254083     5A    -11.228094     6A     -1.388825
       7A     -1.230399     8A     -1.016370     9A     -0.933027
      10A     -0.789547    11A     -0.690477    12A     -0.650838
      13A     -0.636454    14A     -0.584365    15A     -0.582615
      16A     -0.558607    17A     -0.546952    18A     -0.507142
      19A     -0.417261    20A     -0.390424

  @DF-RHF Final Energy:  -247.10128183315678

   => Energetics <=

    Nuclear Repulsion Energy =            181.8878142509893507
    One-Electron Energy =                -696.3347182487528926
    Two-Electron Energy =                 267.3456221646068798
    DFT Exchange-Correlation Energy =       0.0000000000000000
    Empirical Dispersion Energy =           0.0000000000000000
    PCM Polarization Energy =               0.0000000000000000
    EFP Energy =                            0.0000000000000000
    Total Energy =                       -247.1012818331566905
    Molecular point group: c1
  Basis Set: CC-PVTZ
  Basis Set:

  -Total Gradient:
     Atom            X                  Y                   Z
    ------   -----------------  -----------------  -----------------
       1       -0.000044050464     0.000007473835     0.000002929722
       2       -0.000176978154     0.000124942934     0.000120597881
       3        0.000189656274    -0.000190597910    -0.000069812672
       4       -0.000248545911     0.000044262862    -0.000155386999
       5       -0.000012162508     0.000032465485     0.000019340427
       6       -0.000001191453     0.000056998987     0.000010588253
       7        0.000023546475    -0.000018723537     0.000021009258
       8        0.000136707890    -0.000053730929     0.000041435656
       9        0.000118181444    -0.000036177423     0.000075639555
      10       -0.000010931489     0.000012130258    -0.000023348301
      11        0.000042436695    -0.000005931591    -0.000019167322
      12       -0.000016668798     0.000026887030    -0.000023825461

  **** Optimization is complete! (in 4 steps) ****
    Final optimized geometry and variables:
    Molecular point group: c1

    Geometry (in Angstrom), charge = 0, multiplicity = 1:

    H           -0.198684749158    -0.853682533172     1.493326509949
    N           -0.471911271644    -0.276636502757     0.738815256981
    C           -1.818794475463     0.244194326435     0.705447419425
    C            0.419476088192    -0.009453613612    -0.238389950937
    H           -2.346502908652    -0.094734071376    -0.175720356194
    H           -1.817820448674     1.325806687770     0.701522830908
    H           -2.345030199296    -0.102042894646     1.583721720914
    C            1.783910332009    -0.636443144615    -0.056584253209
    O            0.147230402784     0.675579941726    -1.179674865919
    H            1.701717306079    -1.716451385908    -0.017876344967
    H            2.412478999101    -0.354026739173    -0.885233954713
    H            2.234818770620    -0.300126491469     0.869763567551

  Mulliken Charges: (a.u.)
   Center  Symbol    Alpha    Beta     Spin     Total
       1     H     0.41155  0.41155  0.00000  0.17691
       2     N     3.61766  3.61766  0.00000 -0.23532
       3     C     3.07593  3.07593  0.00000 -0.15187
       4     C     2.83773  2.83773  0.00000  0.32455
       5     H     0.44965  0.44965  0.00000  0.10070
       6     H     0.44941  0.44941  0.00000  0.10118
       7     H     0.45620  0.45620  0.00000  0.08760
       8     C     3.15352  3.15352  0.00000 -0.30705
       9     O     4.21499  4.21499  0.00000 -0.42998
      10     H     0.44983  0.44983  0.00000  0.10034
      11     H     0.43368  0.43368  0.00000  0.13263
      12     H     0.44985  0.44985  0.00000  0.10029

   Total alpha = 20.00000, Total beta = 20.00000, Total charge =  0.00000
