                              Psi4 1.0.54 Driver

  ==> Input File <==

--------------------------------------------------------------------------
set {
	reference rhf
	basis cc-pvtz
}

set_num_threads( 4 )
memory 2 gb

molecule MOL {
0 1

H	 -1.752232	 -2.214755	 -0.011938
C	 -1.343852	 -1.221619	 -0.018179
N	 -0.058800	 -1.097635	 -0.261688
C	 -2.148159	 -0.124236	 0.219734
C	 0.449026	 0.119242	 -0.273393
H	 -3.196988	 -0.237571	 0.417076
N	 -1.655094	 1.094230	 0.209506
C	 -0.370318	 1.215445	 -0.035100
C	 1.924033	 0.265863	 -0.538106
H	 0.033214	 2.210441	 -0.046812
C	 2.219049	 0.867803	 -1.912909
H	 2.343442	 0.903146	 0.231134
H	 2.402926	 -0.702187	 -0.450037
H	 3.286622	 0.989095	 -2.052587
H	 1.750332	 1.838045	 -2.012472
H	 1.846745	 0.229617	 -2.706416

	symmetry c1
}
set optking {
	frozen_dihedral = ("
		12 9 5 3
	")
}

ee,wfn = optimize('scf', return_wfn=True)
oeprop( wfn, 'DIPOLE', 'QUADRUPOLE', 'MULLIKEN_CHARGES')
f=open( 'psi4out.xyz', 'w' )
f.write( "16  " )
f.write( str(ee) + "\n" )
f.write( MOL.save_string_xyz() )
f.close()
--------------------------------------------------------------------------

    Molecular point group: c1
  Charge       = 0
  Multiplicity = 1
  Basis Set: CC-PVTZ
  Basis Set:
  @DF-RHF Final Energy:  -340.87109234660829
    Total Energy =                       -340.8710923466085205
    Molecular point group: c1
  Basis Set: CC-PVTZ
  Basis Set:
  Basis Set: CC-PVTZ
  Basis Set:
  @DF-RHF Final Energy:  -340.87136339942356
    Total Energy =                       -340.8713633994238421
  Basis Set: CC-PVTZ
  Basis Set:
  Basis Set: CC-PVTZ
  Basis Set:
  @DF-RHF Final Energy:  -340.87141233789532
    Total Energy =                       -340.8714123378950944
  Basis Set: CC-PVTZ
  Basis Set:
  Basis Set: CC-PVTZ
  Basis Set:
  @DF-RHF Final Energy:  -340.87142675326123
    Total Energy =                       -340.8714267532614031
  Basis Set: CC-PVTZ
  Basis Set:
  Basis Set: CC-PVTZ
  Basis Set:
  @DF-RHF Final Energy:  -340.87143240966697
    Total Energy =                       -340.8714324096674773
  Basis Set: CC-PVTZ
  Basis Set:
  Charge       = 0
  Multiplicity = 1
  Basis Set: CC-PVTZ
  Basis Set:

    Orbital Energies (a.u.)
    -----------------------

    Doubly Occupied:

       1A    -15.580533     2A    -15.575842     3A    -11.278898
       4A    -11.270909     5A    -11.269403     6A    -11.266881
       7A    -11.231375     8A    -11.221011     9A     -1.315713
      10A     -1.223760    11A     -1.086722    12A     -1.016367
      13A     -0.905527    14A     -0.897056    15A     -0.831364
      16A     -0.717639    17A     -0.713837    18A     -0.658430
      19A     -0.613293    20A     -0.606763    21A     -0.585309
      22A     -0.564666    23A     -0.524785    24A     -0.510526
      25A     -0.504906    26A     -0.484761    27A     -0.434013
      28A     -0.397725    29A     -0.346443

  @DF-RHF Final Energy:  -340.87143308946133

   => Energetics <=

    Nuclear Repulsion Energy =            350.3029925268431271
    One-Electron Energy =               -1155.0799304795705211
    Two-Electron Energy =                 463.9055048632660032
    DFT Exchange-Correlation Energy =       0.0000000000000000
    Empirical Dispersion Energy =           0.0000000000000000
    PCM Polarization Energy =               0.0000000000000000
    EFP Energy =                            0.0000000000000000
    Total Energy =                       -340.8714330894613909
    Molecular point group: c1
  Basis Set: CC-PVTZ
  Basis Set:

  -Total Gradient:
     Atom            X                  Y                   Z
    ------   -----------------  -----------------  -----------------
       1       -0.000017228547     0.000007127973    -0.000087437101
       2       -0.000000426400    -0.000017023045     0.000217427432
       3        0.000244263930    -0.000078205732     0.001002360787
       4        0.000014038714    -0.000036314068     0.000025781388
       5       -0.000269097387    -0.000129381239    -0.001440436755
       6       -0.000014356472     0.000012439548    -0.000047890368
       7        0.000042220083     0.000029350611    -0.000018246988
       8       -0.000053713339     0.000011164215     0.000035429384
       9       -0.000216842425     0.001186779199    -0.000394594452
      10        0.000003721165     0.000004453994     0.000000635805
      11        0.000010348170    -0.000012985108     0.000018445577
      12        0.000245344287    -0.000957328597     0.000689735293
      13        0.000019974871    -0.000023799812     0.000009348670
      14       -0.000027114870    -0.000002718165    -0.000017322934
      15        0.000005526675    -0.000023212514     0.000002073382
      16        0.000013341542     0.000029652743     0.000004690879

  **** Optimization is complete! (in 6 steps) ****
    Final optimized geometry and variables:
    Molecular point group: c1

    Geometry (in Angstrom), charge = 0, multiplicity = 1:

    H           -1.661261862709    -2.375097282287     0.335848885409
    C           -1.259758248443    -1.379511599332     0.334605015138
    N            0.029479554902    -1.248454856727     0.086422208615
    C           -2.064337611931    -0.291987858728     0.584555673816
    C            0.529917629785    -0.033629294625     0.080534994326
    H           -3.111777641203    -0.408959728477     0.785533113526
    N           -1.573234827004     0.932920243211     0.589779185641
    C           -0.294884761882     1.059970480132     0.342387468130
    C            1.999228269930     0.137898955929    -0.207858749945
    H            0.109044703957     2.055418065727     0.352316203716
    C            2.278467796846     0.723224236692    -1.593534295376
    H            2.442620914654     0.769600537254     0.554949106140
    H            2.461971664297    -0.835294452640    -0.122086242323
    H            3.345423545433     0.812522210494    -1.758478390331
    H            1.840664368559     1.708262701641    -1.705696493588
    H            1.869940402682     0.086239085343    -2.368840986753

  Mulliken Charges: (a.u.)
   Center  Symbol    Alpha    Beta     Spin     Total
       1     H     0.41366  0.41366  0.00000  0.17267
       2     C     3.04173  3.04173  0.00000 -0.08345
       3     N     3.59317  3.59317  0.00000 -0.18633
       4     C     3.04831  3.04831  0.00000 -0.09662
       5     C     2.94141  2.94141  0.00000  0.11717
       6     H     0.41345  0.41345  0.00000  0.17310
       7     N     3.58708  3.58708  0.00000 -0.17416
       8     C     3.07846  3.07846  0.00000 -0.15692
       9     C     3.08677  3.08677  0.00000 -0.17353
      10     H     0.41463  0.41463  0.00000  0.17075
      11     C     3.14446  3.14446  0.00000 -0.28891
      12     H     0.44623  0.44623  0.00000  0.10753
      13     H     0.44076  0.44076  0.00000  0.11849
      14     H     0.44761  0.44761  0.00000  0.10477
      15     H     0.45388  0.45388  0.00000  0.09224
      16     H     0.44840  0.44840  0.00000  0.10320

   Total alpha = 29.00000, Total beta = 29.00000, Total charge = -0.00000

*** Psi4 exiting successfully. Buy a developer a beer!
