                              Psi4 1.0.54 Driver

  ==> Input File <==

--------------------------------------------------------------------------
set {
	reference rhf
	basis cc-pvtz
}

set_num_threads( 4 )
memory 2 gb

molecule MOL {
0 1

H	 5.269878	 0.195679	 1.068175
C	 4.673900	 -0.208485	 0.258034
C	 3.190199	 -0.204714	 0.610086
H	 4.865136	 0.391893	 -0.624684
H	 5.027838	 -1.214511	 0.056939
C	 2.319208	 -0.778154	 -0.505491
H	 2.876954	 0.809861	 0.827925
H	 3.035335	 -0.782733	 1.518235
C	 3.052779	 -0.955397	 -1.831141
H	 1.915863	 -1.734108	 -0.195180
H	 1.473594	 -0.116576	 -0.669914
C	 4.063402	 -2.089750	 -1.850311
H	 2.338756	 -1.173825	 -2.621221
H	 3.547171	 -0.035111	 -2.128073
C	 5.096751	 -2.086893	 -2.960064
O	 4.038778	 -2.961305	 -1.042189
C	 4.496893	 -2.235966	 -4.362316
H	 5.780364	 -2.900479	 -2.758592
H	 5.656951	 -1.157208	 -2.904774
C	 5.567235	 -2.325655	 -5.446749
H	 3.879316	 -3.129419	 -4.392905
H	 3.841921	 -1.398096	 -4.579079
C	 4.983766	 -2.481774	 -6.846862
H	 6.223099	 -3.164219	 -5.232915
H	 6.188558	 -1.435000	 -5.411203
H	 4.382353	 -3.381408	 -6.921965
H	 4.350774	 -1.639099	 -7.104313
H	 5.767935	 -2.545490	 -7.592067

	symmetry c1
}
set optking {
	frozen_dihedral = ("
		10 6 3 2
	")
}

ee,wfn = optimize('scf', return_wfn=True)
oeprop( wfn, 'DIPOLE', 'QUADRUPOLE', 'MULLIKEN_CHARGES')
f=open( 'psi4out.xyz', 'w' )
f.write( "28  " )
f.write( str(ee) + "\n" )
f.write( MOL.save_string_xyz() )
f.close()
--------------------------------------------------------------------------

    Molecular point group: c1
  Charge       = 0
  Multiplicity = 1
  Basis Set: CC-PVTZ
  Basis Set:
  @DF-RHF Final Energy:  -426.30259000078695
    Total Energy =                       -426.3025900007871769
    Molecular point group: c1
  Basis Set: CC-PVTZ
  Basis Set:
  Basis Set: CC-PVTZ
  Basis Set:
  @DF-RHF Final Energy:  -426.30643205211425
    Total Energy =                       -426.3064320521148147
  Basis Set: CC-PVTZ
  Basis Set:
  Basis Set: CC-PVTZ
  Basis Set:
  @DF-RHF Final Energy:  -426.30881933926423
    Total Energy =                       -426.3088193392638914
  Basis Set: CC-PVTZ
  Basis Set:
  Basis Set: CC-PVTZ
  Basis Set:
  @DF-RHF Final Energy:  -426.30924830461129
    Total Energy =                       -426.3092483046111738
  Basis Set: CC-PVTZ
  Basis Set:
  @DF-RHF Final Energy:  -426.30953728971292
    Total Energy =                       -426.3095372897123525
  @DF-RHF Final Energy:  -426.30977525356423
    Total Energy =                       -426.3097752535641121
  @DF-RHF Final Energy:  -426.31002394384450
    Total Energy =                       -426.3100239438444987
  Basis Set: CC-PVTZ
  Basis Set:
  @DF-RHF Final Energy:  -426.31015899342322
    Total Energy =                       -426.3101589934231015
  Basis Set: CC-PVTZ
  Basis Set:
  Basis Set: CC-PVTZ
  Basis Set:
  @DF-RHF Final Energy:  -426.31017376339196
    Total Energy =                       -426.3101737633919583
  Basis Set: CC-PVTZ
  Basis Set:
  Basis Set: CC-PVTZ
  Basis Set:
  @DF-RHF Final Energy:  -426.31017759079043
    Total Energy =                       -426.3101775907908859
  Basis Set: CC-PVTZ
  Basis Set:
  Charge       = 0
  Multiplicity = 1
  Basis Set: CC-PVTZ
  Basis Set:

    Orbital Energies (a.u.)
    -----------------------

    Doubly Occupied:

       1A    -20.535441     2A    -11.315972     3A    -11.229613
       4A    -11.228039     5A    -11.226489     6A    -11.223612
       7A    -11.215324     8A    -11.214077     9A    -11.213910
      10A    -11.205970    11A     -1.395722    12A     -1.095599
      13A     -1.075525    14A     -1.021554    15A     -0.990135
      16A     -0.913845    17A     -0.882122    18A     -0.808707
      19A     -0.791200    20A     -0.721081    21A     -0.669611
      22A     -0.652042    23A     -0.637240    24A     -0.625780
      25A     -0.607672    26A     -0.595130    27A     -0.579000
      28A     -0.553138    29A     -0.549605    30A     -0.535994
      31A     -0.529869    32A     -0.511178    33A     -0.506498
      34A     -0.484770    35A     -0.477961    36A     -0.475117
      37A     -0.470897    38A     -0.457604    39A     -0.453461
      40A     -0.393602

  @DF-RHF Final Energy:  -426.31017769635628

   => Energetics <=

    Nuclear Repulsion Energy =            542.5188121034885853
    One-Electron Energy =               -1653.5177660927934085
    Two-Electron Energy =                 684.6887762929490009
    DFT Exchange-Correlation Energy =       0.0000000000000000
    Empirical Dispersion Energy =           0.0000000000000000
    PCM Polarization Energy =               0.0000000000000000
    EFP Energy =                            0.0000000000000000
    Total Energy =                       -426.3101776963559360
    Molecular point group: c1
  Basis Set: CC-PVTZ
  Basis Set:

  -Total Gradient:
     Atom            X                  Y                   Z
    ------   -----------------  -----------------  -----------------
       1       -0.000011072721     0.000005041594     0.000009078646
       2       -0.000458201845     0.001743881300    -0.001072745183
       3        0.000195723709    -0.002339665653     0.001771332853
       4       -0.000000420597     0.000013057808    -0.000027712503
       5        0.000005221011     0.000030217921     0.000032133954
       6        0.002776987539    -0.000487345180    -0.001738837854
       7       -0.000013058679     0.000014389101    -0.000001687224
       8       -0.000004527589    -0.000000922367     0.000004863651
       9        0.000033971588     0.000043332015     0.000039124485
      10       -0.002430581595     0.000971376871     0.001046524854
      11        0.000002397805    -0.000032398495    -0.000065005849
      12        0.000012272740     0.000002415985    -0.000042252067
      13       -0.000039101168    -0.000029878109    -0.000012671863
      14        0.000052170171     0.000012546832     0.000013860009
      15       -0.000024653029     0.000076879331     0.000069657244
      16       -0.000088414323    -0.000003660519     0.000037739911
      17        0.000002647947     0.000028171871    -0.000020117752
      18       -0.000014518254    -0.000015477084     0.000028410361
      19        0.000018271212     0.000008360564    -0.000006543194
      20       -0.000028620057    -0.000003501180    -0.000015220140
      21        0.000012647835    -0.000023634644    -0.000006122209
      22       -0.000031514824    -0.000007350345    -0.000002207481
      23        0.000026899309     0.000004148308    -0.000023008984
      24        0.000012100547    -0.000017365122    -0.000006990897
      25        0.000010759654     0.000010528812     0.000004084531
      26       -0.000005289659    -0.000015595810    -0.000000278027
      27       -0.000013073323     0.000013375005     0.000000699642
      28        0.000000976599    -0.000000928811    -0.000016108910

  **** Optimization is complete! (in 11 steps) ****
    Final optimized geometry and variables:
    Molecular point group: c1

    Geometry (in Angstrom), charge = 0, multiplicity = 1:

    H            0.937117136599     2.411087094439     3.591516652655
    C            0.524232622902     1.823490079514     2.779547117592
    C           -0.956567059124     1.551228270487     3.041723169265
    H            0.678175273167     2.389300512153     1.867639588338
    H            1.099723188244     0.908990401873     2.715132933636
    C           -1.739980180605     0.736284117811     1.979785446606
    H           -1.446976400949     2.511631329358     3.164673259232
    H           -1.050191569706     1.047910712108     3.996494287708
    C           -1.096854951447     0.551755409360     0.606983081945
    H           -1.982292867326    -0.238980009574     2.378183324738
    H           -2.692702610745     1.229547382475     1.821200564641
    C           -0.000700477499    -0.498089530320     0.543862569531
    H           -1.860100812495     0.213820777403    -0.090102114768
    H           -0.728575404404     1.487064520872     0.201626503094
    C            0.953427193212    -0.442069220193    -0.632838491242
    O            0.090815533335    -1.353279545843     1.364550807234
    C            0.274825026479    -0.693839349791    -1.983906161977
    H            1.719536267232    -1.185032604387    -0.456938139905
    H            1.429228225891     0.534781481087    -0.644579425942
    C            1.269988937787    -0.712632388587    -3.141027611243
    H           -0.250477924607    -1.644152903181    -1.946803619429
    H           -0.474649148140     0.068224444586    -2.172899711749
    C            0.607719625114    -0.965709457119    -4.491021110386
    H            2.018236241333    -1.477619669702    -2.956453154232
    H            1.802015177881     0.234263018406    -3.171179778620
    H            0.094859341797    -1.921510481668    -4.502071685800
    H           -0.122452584264    -0.196617587656    -4.720062682057
    H            1.339859569641    -0.974374933023    -5.289917597360

  Mulliken Charges: (a.u.)
   Center  Symbol    Alpha    Beta     Spin     Total
       1     H     0.44182  0.44182  0.00000  0.11637
       2     C     3.16659  3.16659  0.00000 -0.33317
       3     C     3.08070  3.08070  0.00000 -0.16139
       4     H     0.45735  0.45735  0.00000  0.08530
       5     H     0.44478  0.44478  0.00000  0.11044
       6     C     3.10037  3.10037  0.00000 -0.20074
       7     H     0.45386  0.45386  0.00000  0.09229
       8     H     0.44938  0.44938  0.00000  0.10123
       9     C     3.13043  3.13043  0.00000 -0.26087
      10     H     0.44159  0.44159  0.00000  0.11683
      11     H     0.44550  0.44550  0.00000  0.10899
      12     C     2.86420  2.86420  0.00000  0.27161
      13     H     0.43144  0.43144  0.00000  0.13711
      14     H     0.44086  0.44086  0.00000  0.11829
      15     C     3.09215  3.09215  0.00000 -0.18431
      16     O     4.18060  4.18060  0.00000 -0.36119
      17     C     3.10040  3.10040  0.00000 -0.20081
      18     H     0.43819  0.43819  0.00000  0.12362
      19     H     0.44846  0.44846  0.00000  0.10307
      20     C     3.08721  3.08721  0.00000 -0.17442
      21     H     0.44542  0.44542  0.00000  0.10915
      22     H     0.45043  0.45043  0.00000  0.09914
      23     C     3.14938  3.14938  0.00000 -0.29875
      24     H     0.44980  0.44980  0.00000  0.10040
      25     H     0.45365  0.45365  0.00000  0.09271
      26     H     0.45341  0.45341  0.00000  0.09318
      27     H     0.45522  0.45522  0.00000  0.08955
      28     H     0.44681  0.44681  0.00000  0.10637

   Total alpha = 40.00000, Total beta = 40.00000, Total charge =  0.00000

*** Psi4 exiting successfully. Buy a developer a beer!
