  ==> Input File <==

--------------------------------------------------------------------------
set {
	reference rhf
	basis 6-31G*
}

set_num_threads( 4 )
memory 2 gb

molecule MOL {
0 1

O	 -2.821601	 1.309235	 -0.001213
C	 -2.668563	 0.129746	 -0.000350
C	 -3.801572	 -0.864014	 -0.000442
O	 -1.481751	 -0.454642	 0.000584
H	 -4.417280	 -0.689587	 -0.874708
H	 -3.443784	 -1.883046	 -0.000565
H	 -4.417179	 -0.689832	 0.873954
C	 -0.334255	 0.388708	 0.000906
C	 0.891947	 -0.504646	 0.000751
H	 -0.365390	 1.025305	 -0.873475
H	 -0.365484	 1.024911	 0.875569
C	 2.191998	 0.301789	 0.000897
H	 0.855148	 -1.151283	 -0.871571
H	 0.855132	 -1.151660	 0.872805
C	 3.206863	 -0.203586	 -1.026222
H	 1.970773	 1.348605	 -0.199901
H	 2.640091	 0.269363	 0.992484
C	 4.504814	 0.602757	 -1.026961
H	 2.760838	 -0.171523	 -2.017740
H	 3.430827	 -1.248898	 -0.825644
H	 4.317439	 1.647483	 -1.258157
H	 5.203446	 0.221066	 -1.764837
H	 4.992628	 0.561737	 -0.057237

	symmetry c1
}
set optking {
	frozen_dihedral = ("
		16 12 9 13
	")
}

ee = optimize('scf')
oeprop('DIPOLE', 'QUADRUPOLE', 'MULLIKEN_CHARGES')
f=open( 'psi4out.xyz', 'w' )
f.write( "23  " )
f.write( str(ee) + "\n" )
f.write( MOL.save_string_xyz() )
f.close()
--------------------------------------------------------------------------

    Molecular point group: c1
  Charge       = 0
  Multiplicity = 1
  Basis Set: 6-31G*
  Basis Set:
  @DF-RHF Final Energy:  -422.97499762883922
    Total Energy =                       -422.9749976288387643
    Molecular point group: c1
  Basis Set: 6-31G*
  Basis Set:
  Basis Set: 6-31G*
  Basis Set:
  @DF-RHF Final Energy:  -422.97522104577428
    Total Energy =                       -422.9752210457733099
  Basis Set: 6-31G*
  Basis Set:
  Basis Set: 6-31G*
  Basis Set:
  @DF-RHF Final Energy:  -422.97528315799832
    Total Energy =                       -422.9752831579988879
  Basis Set: 6-31G*
  Basis Set:
  Basis Set: 6-31G*
  Basis Set:
  @DF-RHF Final Energy:  -422.97528055229361
    Total Energy =                       -422.9752805522936114
  Basis Set: 6-31G*
  Basis Set:
  Basis Set: 6-31G*
  Basis Set:
  @DF-RHF Final Energy:  -422.97527821733826
    Total Energy =                       -422.9752782173379728
  Basis Set: 6-31G*
  Basis Set:
  Basis Set: 6-31G*
  Basis Set:
  @DF-RHF Final Energy:  -422.97528743159842
    Total Energy =                       -422.9752874315975077
  Basis Set: 6-31G*
  Basis Set:
  Charge       = 0
  Multiplicity = 1
  Basis Set: 6-31G*
  Basis Set:

    Orbital Energies (a.u.)
    -----------------------

    Doubly Occupied:

       1A    -20.603033     2A    -20.540643     3A    -11.374214
       4A    -11.282019     5A    -11.232429     6A    -11.224134
       7A    -11.223571     8A    -11.221999     9A    -11.212799
      10A     -1.468129    11A     -1.360893    12A     -1.092430
      13A     -1.042255    14A     -1.002998    15A     -0.930413
      16A     -0.843215    17A     -0.802487    18A     -0.776183
      19A     -0.689490    20A     -0.685042    21A     -0.670525
      22A     -0.639365    23A     -0.610157    24A     -0.586910
      25A     -0.581178    26A     -0.569352    27A     -0.558816
      28A     -0.535247    29A     -0.524786    30A     -0.502775
      31A     -0.494153    32A     -0.478551    33A     -0.467763
      34A     -0.464027    35A     -0.450492    36A     -0.435369

  @DF-RHF Final Energy:  -422.97528757413488

   => Energetics <=

    Nuclear Repulsion Energy =            450.2864778004168329
    One-Electron Energy =               -1468.1678383652611046
    Two-Electron Energy =                 594.9060729907096174
    DFT Exchange-Correlation Energy =       0.0000000000000000
    Empirical Dispersion Energy =           0.0000000000000000
    PCM Polarization Energy =               0.0000000000000000
    EFP Energy =                            0.0000000000000000
    Total Energy =                       -422.9752875741346543
    Molecular point group: c1
  Basis Set: 6-31G*
  Basis Set:

  -Total Gradient:
     Atom            X                  Y                   Z
    ------   -----------------  -----------------  -----------------
       1       -0.000004445377     0.000005068750     0.000004113316
       2        0.000009619730    -0.000002647335    -0.000002348135
       3        0.000001442192     0.000001087082     0.000003540590
       4       -0.000006412519    -0.000004564180     0.000004908673
       5        0.000001139929    -0.000000798417    -0.000001866314
       6        0.000000208585    -0.000000481076    -0.000000339392
       7        0.000000502708     0.000001660795    -0.000001523848
       8        0.000009967404     0.000002877519    -0.000019186947
       9       -0.001597524098     0.002593689740    -0.001126732727
      10       -0.000001617179    -0.000001848516     0.000002694763
      11       -0.000004195668    -0.000003274615     0.000002995342
      12        0.000673176347    -0.001045793495    -0.002964924398
      13        0.001219893368    -0.001989352573     0.001421823026
      14        0.000001166949    -0.000001515622     0.000003750772
      15       -0.000004437168     0.000000891715     0.000003857759
      16       -0.000300163008     0.000446521037     0.002664421901
      17        0.000004117278    -0.000002416449     0.000002259830
      18       -0.000001734527    -0.000000248760    -0.000000354610
      19        0.000000031785     0.000001010661     0.000002430485
      20       -0.000001153842     0.000000963430     0.000001237177
      21       -0.000000628758    -0.000000778928     0.000000360692
      22        0.000001789183     0.000001070964    -0.000000445236
      23       -0.000000743302    -0.000001121729    -0.000000672717

  **** Optimization is complete! (in 7 steps) ****
    Final optimized geometry and variables:
    Molecular point group: c1

    Geometry (in Angstrom), charge = 0, multiplicity = 1:

    O           -2.782937479744     1.220688816347     0.243085914598
    C           -2.628024221966     0.041457410208     0.246528018044
    C           -3.759179914952    -0.953944613951     0.275224404722
    O           -1.440390208041    -0.541109432633     0.225650231513
    H           -4.393867754239    -0.784324633759    -0.586313708673
    H           -3.399854350126    -1.972432387336     0.271929085708
    H           -4.356066734953    -0.776778759441     1.161916662493
    C           -0.294916252997     0.303460482314     0.197554499300
    C            0.933831841873    -0.584972260628     0.177588327090
    H           -0.342956003565     0.934831563906    -0.679958118285
    H           -0.307986347153     0.945251704451     1.068836799489
    C            2.244022786788     0.228828542813     0.189717390109
    H            0.894805147066    -1.232362186278    -0.693500866858
    H            0.895396397973    -1.247326184272     1.036736564005
    C            3.289793653397    -0.278816828358    -0.803971555578
    H            2.034414571632     1.278723683055    -0.008979492216
    H            2.668350778978     0.211511558039     1.190431099676
    C            4.596019216941     0.511310771899    -0.750902713027
    H            2.878513670905    -0.233820669250    -1.810036423011
    H            3.492526545618    -1.328852628120    -0.604234008432
    H            4.428875562490     1.560814673632    -0.976258515219
    H            5.315171243136     0.129510444766    -1.468730134013
    H            5.049621673388     0.453689357360     0.234489262818

  Mulliken Charges: (a.u.)
   Center  Symbol    Alpha    Beta     Spin     Total
       1     O     4.28379  4.28379  0.00000 -0.56759
       2     C     2.61545  2.61545  0.00000  0.76911
       3     C     3.28776  3.28776  0.00000 -0.57552
       4     O     4.31238  4.31238  0.00000 -0.62477
       5     H     0.39749  0.39749  0.00000  0.20503
       6     H     0.39986  0.39986  0.00000  0.20028
       7     H     0.39748  0.39748  0.00000  0.20503
       8     C     2.99957  2.99957  0.00000  0.00087
       9     C     3.16586  3.16586  0.00000 -0.33171
      10     H     0.41043  0.41043  0.00000  0.17914
      11     H     0.41018  0.41018  0.00000  0.17963
      12     C     3.16332  3.16332  0.00000 -0.32663
      13     H     0.41224  0.41224  0.00000  0.17551
      14     H     0.41206  0.41206  0.00000  0.17589
      15     C     3.15291  3.15291  0.00000 -0.30582
      16     H     0.41932  0.41932  0.00000  0.16135
      17     H     0.41763  0.41763  0.00000  0.16474
      18     C     3.24071  3.24071  0.00000 -0.48141
      19     H     0.42136  0.42136  0.00000  0.15728
      20     H     0.42085  0.42085  0.00000  0.15830
      21     H     0.42057  0.42057  0.00000  0.15885
      22     H     0.41789  0.41789  0.00000  0.16421
      23     H     0.42089  0.42089  0.00000  0.15822

   Total alpha = 36.00000, Total beta = 36.00000, Total charge = -0.00000
