  ==> Input File <==

--------------------------------------------------------------------------
set {
	reference rhf
	basis 6-31G*
}

set_num_threads( 4 )
memory 2 gb

molecule MOL {
0 1

H	 -0.364719	 2.284502	 -0.793731
C	 0.439071	 1.570208	 -0.978102
N	 0.538815	 0.649616	 0.000000
O	 1.130207	 1.633314	 -1.951527
C	 1.521968	 -0.411503	 0.000000
H	 -0.100777	 0.709336	 0.758709
H	 2.150599	 -0.357004	 -0.881901
H	 0.999455	 -1.354525	 0.000000
H	 2.150599	 -0.357004	 0.881901

	symmetry c1
}
set optking {
	frozen_dihedral = ("
		6 3 5 7
	")
}

ee = optimize('scf')
oeprop('DIPOLE', 'QUADRUPOLE', 'MULLIKEN_CHARGES')
f=open( 'psi4out.xyz', 'w' )
f.write( "9  " )
f.write( str(ee) + "\n" )
f.write( MOL.save_string_xyz() )
f.close()
--------------------------------------------------------------------------

    Molecular point group: c1
  Charge       = 0
  Multiplicity = 1
  Basis Set: 6-31G*
  Basis Set:
  @DF-RHF Final Energy:  -207.96039853200389
    Total Energy =                       -207.9603985320038078
    Molecular point group: c1
  Basis Set: 6-31G*
  Basis Set:
  Basis Set: 6-31G*
  Basis Set:
  @DF-RHF Final Energy:  -207.96087322875169
    Total Energy =                       -207.9608732287516659
  Basis Set: 6-31G*
  Basis Set:
  Basis Set: 6-31G*
  Basis Set:
  @DF-RHF Final Energy:  -207.96093340208878
    Total Energy =                       -207.9609334020888696
  Basis Set: 6-31G*
  Basis Set:
  Basis Set: 6-31G*
  Basis Set:
  @DF-RHF Final Energy:  -207.96096839824475
    Total Energy =                       -207.9609683982448303
  Basis Set: 6-31G*
  Basis Set:
  Charge       = 0
  Multiplicity = 1
  Basis Set: 6-31G*
  Basis Set:

    Orbital Energies (a.u.)
    -----------------------

    Doubly Occupied:

       1A    -20.525171     2A    -15.591267     3A    -11.344444
       4A    -11.260142     5A     -1.388780     6A     -1.236649
       7A     -0.968842     8A     -0.807265     9A     -0.746537
      10A     -0.641691    11A     -0.626090    12A     -0.593580
      13A     -0.553793    14A     -0.537869    15A     -0.423551
      16A     -0.390292

  @DF-RHF Final Energy:  -207.96097100375729

   => Energetics <=

    Nuclear Repulsion Energy =            122.4446327257046789
    One-Electron Energy =                -525.5392847711648301
    Two-Electron Energy =                 195.1336810417029142
    DFT Exchange-Correlation Energy =       0.0000000000000000
    Empirical Dispersion Energy =           0.0000000000000000
    PCM Polarization Energy =               0.0000000000000000
    EFP Energy =                            0.0000000000000000
    Total Energy =                       -207.9609710037572654
    Molecular point group: c1
  Basis Set: 6-31G*
  Basis Set:

  -Total Gradient:
     Atom            X                  Y                   Z
    ------   -----------------  -----------------  -----------------
       1       -0.000024552747     0.000033010851    -0.000029045574
       2       -0.000043028041     0.000048387906     0.000026786989
       3        0.000006991993    -0.000043299908     0.000083867444
       4        0.000010511560    -0.000020377578     0.000017307700
       5       -0.000048176500    -0.000036630147    -0.000045624639
       6        0.000014357383     0.000042291891    -0.000035087100
       7        0.000066150469    -0.000039040443    -0.000028300452
       8        0.000047893708     0.000003685330     0.000014502880
       9       -0.000030147826     0.000011972097    -0.000004407244

  **** Optimization is complete! (in 5 steps) ****
    Final optimized geometry and variables:
    Molecular point group: c1

    Geometry (in Angstrom), charge = 0, multiplicity = 1:

    H           -1.270533561382     1.444626643470    -0.070995790408
    C           -0.470755684665     0.724872141884    -0.251694975080
    N           -0.381512392207    -0.196456270768     0.726806442148
    O            0.224954456902     0.783304331709    -1.222233506640
    C            0.594957687233    -1.263545109966     0.731451819207
    H           -1.022920945650    -0.131427227550     1.483494651483
    H            1.196729261062    -1.173763305152    -0.158654463768
    H            0.109185585388    -2.232997875613     0.732143994083
    H            1.239364026399    -1.194527423371     1.600858474646

  Mulliken Charges: (a.u.)
   Center  Symbol    Alpha    Beta     Spin     Total
       1     H     0.42759  0.42759  0.00000  0.14482
       2     C     2.74438  2.74438  0.00000  0.51123
       3     N     3.87515  3.87515  0.00000 -0.75030
       4     O     4.28473  4.28473  0.00000 -0.56946
       5     C     3.14492  3.14492  0.00000 -0.28983
       6     H     0.30957  0.30957  0.00000  0.38087
       7     H     0.38562  0.38562  0.00000  0.22876
       8     H     0.41401  0.41401  0.00000  0.17198
       9     H     0.41404  0.41404  0.00000  0.17192

   Total alpha = 16.00000, Total beta = 16.00000, Total charge = -0.00000
