                              Psi4 1.0.54 Driver

  ==> Input File <==

--------------------------------------------------------------------------
set {
	reference rhf
	basis cc-pvtz
}

set_num_threads( 4 )
memory 2 gb

molecule MOL {
0 1

O	 1.528286	 0.915939	 0.857654
C	 1.704209	 0.119472	 -0.000093
C	 0.833241	 -0.064295	 -1.216352
O	 2.715427	 -0.733672	 0.000025
C	 -0.350292	 0.890859	 -1.273390
H	 1.470812	 0.047405	 -2.087257
H	 0.504462	 -1.098371	 -1.222165
C	 -1.209513	 0.677009	 -2.515979
H	 0.013076	 1.911938	 -1.248190
H	 -0.954264	 0.765006	 -0.381948
C	 -2.402213	 1.625891	 -2.590546
H	 -0.597276	 0.802184	 -3.406342
H	 -1.568083	 -0.349748	 -2.536813
C	 -3.260715	 1.412537	 -3.832668
H	 -2.045185	 2.651706	 -2.570775
H	 -3.015294	 1.500567	 -1.702523
H	 -2.683532	 1.564909	 -4.738690
H	 -4.097244	 2.101360	 -3.854485
H	 -3.661640	 0.404792	 -3.863378
C	 4.020999	 -0.192556	 0.000019
H	 4.182809	 0.412891	 -0.879449
H	 4.692590	 -1.035653	 0.000152
H	 4.182726	 0.413087	 0.879368

	symmetry c1
}
set optking {
	frozen_dihedral = ("
		1 2 4 20
	")
}

ee,wfn = optimize('scf', return_wfn=True)
oeprop( wfn, 'DIPOLE', 'QUADRUPOLE', 'MULLIKEN_CHARGES')
f=open( 'psi4out.xyz', 'w' )
f.write( "23  " )
f.write( str(ee) + "\n" )
f.write( MOL.save_string_xyz() )
f.close()
--------------------------------------------------------------------------

    Molecular point group: c1
  Charge       = 0
  Multiplicity = 1
  Basis Set: CC-PVTZ
  Basis Set:
  @DF-RHF Final Energy:  -423.11655347621814
    Total Energy =                       -423.1165534762183142
    Molecular point group: c1
  Basis Set: CC-PVTZ
  Basis Set:
  Basis Set: CC-PVTZ
  Basis Set:
  @DF-RHF Final Energy:  -423.11225143006828
    Total Energy =                       -423.1122514300682269
  Basis Set: CC-PVTZ
  Basis Set:
  Basis Set: CC-PVTZ
  Basis Set:
  @DF-RHF Final Energy:  -423.11733064189224
    Total Energy =                       -423.1173306418925222
  Basis Set: CC-PVTZ
  Basis Set:
  Basis Set: CC-PVTZ
  Basis Set:
  @DF-RHF Final Energy:  -423.11741563389859
    Total Energy =                       -423.1174156338986450
  Basis Set: CC-PVTZ
  Basis Set:
  Basis Set: CC-PVTZ
  Basis Set:
  @DF-RHF Final Energy:  -423.11756930176551
    Total Energy =                       -423.1175693017655703
  Basis Set: CC-PVTZ
  Basis Set:
  Basis Set: CC-PVTZ
  Basis Set:
  @DF-RHF Final Energy:  -423.11757395409091
    Total Energy =                       -423.1175739540909717
  Basis Set: CC-PVTZ
  Basis Set:
  Charge       = 0
  Multiplicity = 1
  Basis Set: CC-PVTZ
  Basis Set:

    Orbital Energies (a.u.)
    -----------------------

    Doubly Occupied:

       1A    -20.582050     2A    -20.542272     3A    -11.366965
       4A    -11.284318     5A    -11.235918     6A    -11.218618
       7A    -11.217143     8A    -11.215523     9A    -11.208592
      10A     -1.463603    11A     -1.368013    12A     -1.095415
      13A     -1.043703    14A     -0.983756    15A     -0.937622
      16A     -0.848099    17A     -0.796774    18A     -0.766409
      19A     -0.698323    20A     -0.680937    21A     -0.675961
      22A     -0.650870    23A     -0.613837    24A     -0.606657
      25A     -0.578007    26A     -0.568766    27A     -0.554485
      28A     -0.532187    29A     -0.510747    30A     -0.508421
      31A     -0.486516    32A     -0.474405    33A     -0.469666
      34A     -0.467072    35A     -0.454251    36A     -0.434315

  @DF-RHF Final Energy:  -423.11757437185389

   => Energetics <=

    Nuclear Repulsion Energy =            452.5049767338645665
    One-Electron Energy =               -1472.9646741364513218
    Two-Electron Energy =                 597.3421230307334326
    DFT Exchange-Correlation Energy =       0.0000000000000000
    Empirical Dispersion Energy =           0.0000000000000000
    PCM Polarization Energy =               0.0000000000000000
    EFP Energy =                            0.0000000000000000
    Total Energy =                       -423.1175743718532658
    Molecular point group: c1
  Basis Set: CC-PVTZ
  Basis Set:

  -Total Gradient:
     Atom            X                  Y                   Z
    ------   -----------------  -----------------  -----------------
       1       -0.005403994478    -0.005348320740     0.003775631713
       2        0.008187494147     0.007863070091    -0.008761860205
       3        0.000016442777     0.000039053325    -0.000009803371
       4       -0.003313713588    -0.002563350115     0.011660285758
       5       -0.000012285461    -0.000017136159    -0.000001166137
       6        0.000002481972    -0.000002557858     0.000001447978
       7       -0.000021271455     0.000008224343     0.000020582022
       8       -0.000006002300    -0.000003909541    -0.000005709235
       9        0.000003583223     0.000002188659    -0.000000830010
      10        0.000000589970    -0.000002811952     0.000001530386
      11        0.000003136145     0.000006242923     0.000005155370
      12        0.000000540612    -0.000000370639     0.000000557666
      13       -0.000001347598    -0.000001943677     0.000003439714
      14        0.000011058629    -0.000004692025     0.000000817687
      15       -0.000000351102     0.000003172022     0.000000753425
      16        0.000001110516    -0.000002773358    -0.000001008331
      17       -0.000001067777     0.000000556852    -0.000000970831
      18        0.000007099817    -0.000001010570     0.000005039420
      19       -0.000000388667     0.000000026993     0.000000529145
      20        0.000557345523     0.000054225562    -0.006687440745
      21        0.000001206513    -0.000014959583     0.000010740432
      22       -0.000024148109     0.000008785040    -0.000003411936
      23       -0.000007519308    -0.000021709591    -0.000014309910

  **** Optimization is complete! (in 7 steps) ****
    Final optimized geometry and variables:
    Molecular point group: c1

    Geometry (in Angstrom), charge = 0, multiplicity = 1:

    O            1.088080500119     0.451117601944     1.995802359448
    C            1.277669758670    -0.342782781981     1.145582034667
    C            0.420015940866    -0.529528006884    -0.077122324038
    O            2.253428393236    -1.262950133753     1.222606639889
    C           -0.785908524286     0.395800169992    -0.142125444726
    H            1.066101712318    -0.396443925470    -0.940874390182
    H            0.122692277069    -1.573030158188    -0.095944224820
    C           -1.625821654369     0.171039849821    -1.395970918390
    H           -0.448912156978     1.425598755570    -0.104137474013
    H           -1.396244441812     0.246801513950     0.741542289064
    C           -2.840388047714     1.091161661974    -1.476710682041
    H           -1.007000029034     0.318271659727    -2.278475910751
    H           -1.958807327992    -0.863916845785    -1.428602545679
    C           -3.679427065704     0.866786807017    -2.730089205820
    H           -2.508841854616     2.125214198658    -1.444924633160
    H           -3.460022160821     0.943653461993    -0.596732311112
    H           -3.096197461619     1.040728547767    -3.628345451800
    H           -4.532393425150     1.534965568890    -2.755861927847
    H           -4.054958171482    -0.150223376141    -2.773179025959
    C            3.578869085959    -0.788683226984     1.330710881946
    H            3.867441221356    -0.267440128577     0.425311569656
    H            4.207982706225    -1.654572312133     1.458195362769
    H            3.686333904086    -0.130288355521     2.180524549712

  Mulliken Charges: (a.u.)
   Center  Symbol    Alpha    Beta     Spin     Total
       1     O     4.17865  4.17865  0.00000 -0.35730
       2     C     2.79411  2.79411  0.00000  0.41178
       3     C     3.10874  3.10874  0.00000 -0.21747
       4     O     4.16518  4.16518  0.00000 -0.33035
       5     C     3.08506  3.08506  0.00000 -0.17012
       6     H     0.44459  0.44459  0.00000  0.11082
       7     H     0.43686  0.43686  0.00000  0.12629
       8     C     3.08886  3.08886  0.00000 -0.17773
       9     H     0.44654  0.44654  0.00000  0.10693
      10     H     0.44541  0.44541  0.00000  0.10918
      11     C     3.08410  3.08410  0.00000 -0.16820
      12     H     0.45611  0.45611  0.00000  0.08778
      13     H     0.45515  0.45515  0.00000  0.08971
      14     C     3.15035  3.15035  0.00000 -0.30071
      15     H     0.45335  0.45335  0.00000  0.09331
      16     H     0.45292  0.45292  0.00000  0.09416
      17     H     0.45547  0.45547  0.00000  0.08905
      18     H     0.44758  0.44758  0.00000  0.10483
      19     H     0.45512  0.45512  0.00000  0.08977
      20     C     3.03649  3.03649  0.00000 -0.07298
      21     H     0.46615  0.46615  0.00000  0.06771
      22     H     0.44536  0.44536  0.00000  0.10928
      23     H     0.44787  0.44787  0.00000  0.10426

   Total alpha = 36.00000, Total beta = 36.00000, Total charge = -0.00000

*** Psi4 exiting successfully. Buy a developer a beer!
