                              Psi4 1.0.54 Driver

  ==> Input File <==

--------------------------------------------------------------------------
set {
	reference rhf
	basis cc-pvtz
}

set_num_threads( 4 )
memory 2 gb

molecule MOL {
0 1

O	 -2.695451	 -1.003705	 0.823545
C	 -2.012348	 -1.832640	 0.315934
C	 -0.820454	 -1.448002	 -0.538169
C	 -2.280718	 -3.306352	 0.508074
C	 0.414662	 -1.177243	 0.330174
H	 -1.084355	 -0.551111	 -1.084114
H	 -0.602515	 -2.232403	 -1.255164
C	 1.630207	 -0.772146	 -0.501001
H	 0.165690	 -0.400234	 1.041862
H	 0.658033	 -2.065354	 0.908386
C	 2.907848	 -0.545876	 0.309149
H	 1.395315	 0.130323	 -1.059887
H	 1.821682	 -1.545915	 -1.239393
C	 3.373802	 0.906639	 0.372125
H	 3.699140	 -1.146831	 -0.127906
H	 2.764321	 -0.923458	 1.318191
H	 3.519798	 1.311927	 -0.623875
H	 4.316899	 0.983758	 0.900700
H	 2.661122	 1.540651	 0.885346
H	 -2.598850	 -3.737078	 -0.435994
H	 -3.052834	 -3.450509	 1.248092
H	 -1.376582	 -3.824341	 0.807764

	symmetry c1
}
set optking {
	frozen_dihedral = ("
		12 8 11 15
	")
}

ee,wfn = optimize('scf', return_wfn=True)
oeprop( wfn, 'DIPOLE', 'QUADRUPOLE', 'MULLIKEN_CHARGES')
f=open( 'psi4out.xyz', 'w' )
f.write( "22  " )
f.write( str(ee) + "\n" )
f.write( MOL.save_string_xyz() )
f.close()
--------------------------------------------------------------------------

    Molecular point group: c1
  Charge       = 0
  Multiplicity = 1
  Basis Set: CC-PVTZ
  Basis Set:
  @DF-RHF Final Energy:  -348.21932514378921
    Total Energy =                       -348.2193251437893196
    Molecular point group: c1
  Basis Set: CC-PVTZ
  Basis Set:
  Basis Set: CC-PVTZ
  Basis Set:
  @DF-RHF Final Energy:  -348.12804547868041
    Total Energy =                       -348.1280454786802920
  Basis Set: CC-PVTZ
  Basis Set:
  Basis Set: CC-PVTZ
  Basis Set:
  @DF-RHF Final Energy:  -348.20889574922319
    Total Energy =                       -348.2088957492236432
  Basis Set: CC-PVTZ
  Basis Set:
  Basis Set: CC-PVTZ
  Basis Set:
  @DF-RHF Final Energy:  -348.21985958010333
    Total Energy =                       -348.2198595801033889
  Basis Set: CC-PVTZ
  Basis Set:
  @DF-RHF Final Energy:  -348.21993247716455
    Total Energy =                       -348.2199324771647753
  @DF-RHF Final Energy:  -348.21927195082469
    Total Energy =                       -348.2192719508246341
  @DF-RHF Final Energy:  -348.21998299467754
    Total Energy =                       -348.2199829946775935
  Basis Set: CC-PVTZ
  Basis Set:
  @DF-RHF Final Energy:  -348.21998034044998
    Total Energy =                       -348.2199803404497516
  Basis Set: CC-PVTZ
  Basis Set:
  Basis Set: CC-PVTZ
  Basis Set:
  @DF-RHF Final Energy:  -348.21998854916757
    Total Energy =                       -348.2199885491676241
  Basis Set: CC-PVTZ
  Basis Set:
  Basis Set: CC-PVTZ
  Basis Set:
  @DF-RHF Final Energy:  -348.21999569198545
    Total Energy =                       -348.2199956919855026
  Basis Set: CC-PVTZ
  Basis Set:
  Charge       = 0
  Multiplicity = 1
  Basis Set: CC-PVTZ
  Basis Set:

    Orbital Energies (a.u.)
    -----------------------

    Doubly Occupied:

       1A    -20.536746     2A    -11.319340     3A    -11.228718
       4A    -11.227428     5A    -11.226911     6A    -11.220212
       7A    -11.218421     8A    -11.210510     9A     -1.396805
      10A     -1.096464    11A     -1.045552    12A     -1.001019
      13A     -0.939291    14A     -0.849913    15A     -0.797049
      16A     -0.734011    17A     -0.663864    18A     -0.647465
      19A     -0.628932    20A     -0.617065    21A     -0.599659
      22A     -0.582309    23A     -0.563334    24A     -0.550276
      25A     -0.531722    26A     -0.510837    27A     -0.505941
      28A     -0.490793    29A     -0.473275    30A     -0.463895
      31A     -0.460394    32A     -0.398331

  @DF-RHF Final Energy:  -348.21999602593485

   => Energetics <=

    Nuclear Repulsion Energy =            371.1342648344567579
    One-Electron Energy =               -1207.2355506700150727
    Two-Electron Energy =                 487.8812898096234676
    DFT Exchange-Correlation Energy =       0.0000000000000000
    Empirical Dispersion Energy =           0.0000000000000000
    PCM Polarization Energy =               0.0000000000000000
    EFP Energy =                            0.0000000000000000
    Total Energy =                       -348.2199960259348472
    Molecular point group: c1
  Basis Set: CC-PVTZ
  Basis Set:

  -Total Gradient:
     Atom            X                  Y                   Z
    ------   -----------------  -----------------  -----------------
       1       -0.000010596573     0.000110233260     0.000140389316
       2       -0.000009055306    -0.000090055439    -0.000143563659
       3        0.000030394882     0.000049870503    -0.000033802095
       4       -0.000021180834     0.000014526736     0.000029191217
       5        0.000024602008    -0.000091255446    -0.000043692822
       6       -0.000005072276    -0.000031187442    -0.000007568163
       7        0.000028051474     0.000025682318     0.000040026652
       8        0.000481318445    -0.001147828794    -0.002172053193
       9       -0.000006288921     0.000001250156    -0.000021836548
      10       -0.000020949721    -0.000022941250     0.000028009416
      11        0.000268858636     0.002282643421    -0.001046996986
      12       -0.000410839323     0.000656266582     0.001984938911
      13        0.000024930411    -0.000001858501     0.000046108375
      14       -0.000028268527     0.000052622528    -0.000075349349
      15       -0.000358073926    -0.001702247780     0.001293410854
      16       -0.000018245382    -0.000024728796    -0.000034785349
      17        0.000012815921     0.000002128581     0.000050619868
      18        0.000000528752    -0.000006028588    -0.000004322200
      19        0.000011944890    -0.000034002330    -0.000028440719
      20       -0.000021063143    -0.000003237687    -0.000020516544
      21       -0.000017009219    -0.000018371832     0.000018635293
      22        0.000043197731    -0.000021480197     0.000001597725

  **** Optimization is complete! (in 11 steps) ****
    Final optimized geometry and variables:
    Molecular point group: c1

    Geometry (in Angstrom), charge = 0, multiplicity = 1:

    O           -2.227745295042     0.516291752408     1.626232480872
    C           -1.984653846685    -0.332988415320     0.831795308707
    C           -1.133742813311    -0.041920229365    -0.388419284351
    C           -2.492199172456    -1.745122938426     1.002359707294
    C            0.359428153768    -0.155117516060    -0.059264694796
    H           -1.359778280087     0.965724497132    -0.712944353558
    H           -1.385238389077    -0.724385821066    -1.193489365560
    C            1.253225800778     0.140952665951    -1.262591755281
    H            0.590180567242     0.533753403139     0.746366433832
    H            0.579592710335    -1.152417339370     0.312303600905
    C            2.756404980920     0.098936452746    -0.924503819227
    H            0.994180995697     1.125208521937    -1.640947827469
    H            1.025585372203    -0.565171036861    -2.054132907261
    C            3.413485704109     1.475045952355    -0.889090064723
    H            3.276810205873    -0.535352432766    -1.633660250727
    H            2.891962118876    -0.379672593111     0.040718696028
    H            3.357916652705     1.959100183555    -1.858107370551
    H            4.459267006320     1.404126139518    -0.612802098339
    H            2.924260559685     2.122723836985    -0.169032445920
    H           -3.225429467022    -1.955636606202     0.230258860810
    H           -2.948514027620    -1.861636118684     1.973345317518
    H           -1.685883914050    -2.459916949609     0.881776405856

  Mulliken Charges: (a.u.)
   Center  Symbol    Alpha    Beta     Spin     Total
       1     O     4.17783  4.17783  0.00000 -0.35567
       2     C     2.85791  2.85791  0.00000  0.28419
       3     C     3.10016  3.10016  0.00000 -0.20033
       4     C     3.15513  3.15513  0.00000 -0.31026
       5     C     3.10127  3.10127  0.00000 -0.20254
       6     H     0.43839  0.43839  0.00000  0.12321
       7     H     0.44931  0.44931  0.00000  0.10138
       8     C     3.09725  3.09725  0.00000 -0.19450
       9     H     0.44012  0.44012  0.00000  0.11976
      10     H     0.45136  0.45136  0.00000  0.09728
      11     C     3.09084  3.09084  0.00000 -0.18167
      12     H     0.45216  0.45216  0.00000  0.09568
      13     H     0.44709  0.44709  0.00000  0.10582
      14     C     3.14687  3.14687  0.00000 -0.29375
      15     H     0.44812  0.44812  0.00000  0.10376
      16     H     0.45446  0.45446  0.00000  0.09107
      17     H     0.45448  0.45448  0.00000  0.09104
      18     H     0.44874  0.44874  0.00000  0.10253
      19     H     0.45320  0.45320  0.00000  0.09360
      20     H     0.44835  0.44835  0.00000  0.10329
      21     H     0.43607  0.43607  0.00000  0.12786
      22     H     0.45087  0.45087  0.00000  0.09826

   Total alpha = 32.00000, Total beta = 32.00000, Total charge = -0.00000

*** Psi4 exiting successfully. Buy a developer a beer!
