                              Psi4 1.0.54 Driver

  ==> Input File <==

--------------------------------------------------------------------------
set {
	reference rhf
	basis cc-pvtz
}

set_num_threads( 4 )
memory 2 gb

molecule MOL {
0 1

H	 2.527441	 2.217142	 -0.914757
N	 1.757596	 1.585634	 -0.979200
C	 1.860978	 0.530248	 0.016256
H	 1.764559	 1.206105	 -1.902919
C	 0.644130	 -0.381765	 -0.031064
H	 1.918116	 1.000011	 0.992455
H	 2.764426	 -0.070877	 -0.095032
C	 -0.678115	 0.376691	 0.025731
H	 0.693998	 -0.977147	 -0.936845
H	 0.693309	 -1.082142	 0.800523
C	 -1.900706	 -0.535531	 -0.022488
H	 -0.725296	 1.079516	 -0.802982
H	 -0.715474	 0.974884	 0.933278
C	 -3.220513	 0.226854	 0.028039
H	 -1.865036	 -1.134397	 -0.928236
H	 -1.857948	 -1.236381	 0.806820
H	 -3.309098	 0.911849	 -0.808725
H	 -4.066838	 -0.449485	 -0.008086
H	 -3.301685	 0.809374	 0.939860

	symmetry c1
}
set optking {
	frozen_dihedral = ("
		6 3 5 9
	")
}

ee,wfn = optimize('scf', return_wfn=True)
oeprop( wfn, 'DIPOLE', 'QUADRUPOLE', 'MULLIKEN_CHARGES')
f=open( 'psi4out.xyz', 'w' )
f.write( "19  " )
f.write( str(ee) + "\n" )
f.write( MOL.save_string_xyz() )
f.close()
--------------------------------------------------------------------------

    Molecular point group: c1
  Charge       = 0
  Multiplicity = 1
  Basis Set: CC-PVTZ
  Basis Set:
  @DF-RHF Final Energy:  -251.44627897639251
    Total Energy =                       -251.4462789763926480
    Molecular point group: c1
  Basis Set: CC-PVTZ
  Basis Set:
  Basis Set: CC-PVTZ
  Basis Set:
  @DF-RHF Final Energy:  -251.44658240961041
    Total Energy =                       -251.4465824096105280
  Basis Set: CC-PVTZ
  Basis Set:
  Basis Set: CC-PVTZ
  Basis Set:
  @DF-RHF Final Energy:  -251.44696263022726
    Total Energy =                       -251.4469626302271763
  Basis Set: CC-PVTZ
  Basis Set:
  Basis Set: CC-PVTZ
  Basis Set:
  @DF-RHF Final Energy:  -251.44697613738742
    Total Energy =                       -251.4469761373873666
  Basis Set: CC-PVTZ
  Basis Set:
  Charge       = 0
  Multiplicity = 1
  Basis Set: CC-PVTZ
  Basis Set:

    Orbital Energies (a.u.)
    -----------------------

    Doubly Occupied:

       1A    -15.527385     2A    -11.239015     3A    -11.208867
       4A    -11.207358     5A    -11.201381     6A    -11.201338
       7A     -1.179207     8A     -1.068156     9A     -0.996570
      10A     -0.903548    11A     -0.811824    12A     -0.780500
      13A     -0.668026    14A     -0.632681    15A     -0.621800
      16A     -0.586030    17A     -0.564118    18A     -0.548056
      19A     -0.530128    20A     -0.493723    21A     -0.478779
      22A     -0.463092    23A     -0.455431    24A     -0.449197
      25A     -0.381885

  @DF-RHF Final Energy:  -251.44697704629098

   => Energetics <=

    Nuclear Repulsion Energy =            249.4701940802253546
    One-Electron Energy =                -833.4381508948056307
    Two-Electron Energy =                 332.5209797682895214
    DFT Exchange-Correlation Energy =       0.0000000000000000
    Empirical Dispersion Energy =           0.0000000000000000
    PCM Polarization Energy =               0.0000000000000000
    EFP Energy =                            0.0000000000000000
    Total Energy =                       -251.4469770462907263
    Molecular point group: c1
  Basis Set: CC-PVTZ
  Basis Set:

  -Total Gradient:
     Atom            X                  Y                   Z
    ------   -----------------  -----------------  -----------------
       1        0.000016530796     0.000010808451    -0.000008474841
       2       -0.000030923057    -0.000002319088     0.000040282104
       3       -0.001459941779     0.002160600850    -0.000820593974
       4       -0.000008796924    -0.000005456818    -0.000045478969
       5       -0.001215505808     0.002058194527    -0.001487406164
       6        0.001426701859    -0.002181529763     0.000972160372
       7       -0.000008484658     0.000028991824    -0.000013753719
       8        0.000028060544    -0.000038177431    -0.000019912277
       9        0.001279866688    -0.002045597807     0.001375510505
      10       -0.000020815733    -0.000016286750     0.000010217576
      11       -0.000006729248     0.000008488298     0.000013588912
      12        0.000025514550     0.000007245262    -0.000036134027
      13       -0.000023831670     0.000004169617     0.000001103123
      14       -0.000015662150    -0.000007557206     0.000018308211
      15        0.000013714670     0.000021795888     0.000001599725
      16        0.000003265116    -0.000006627204    -0.000012527024
      17        0.000005346672    -0.000008519379     0.000002178887
      18       -0.000002210166     0.000005134450     0.000006158824
      19       -0.000006099705     0.000006642277     0.000003172758

  **** Optimization is complete! (in 5 steps) ****
    Final optimized geometry and variables:
    Molecular point group: c1

    Geometry (in Angstrom), charge = 0, multiplicity = 1:

    H            2.920080766873     1.815567488410    -0.650344462649
    N            2.122228278511     1.229632157985    -0.774625333875
    C            2.091819323714     0.171612632713     0.222464885670
    H            2.178070542497     0.847656828311    -1.696098259618
    C            0.838429849252    -0.690658173187     0.117115371760
    H            2.131868207937     0.625554237209     1.207218455321
    H            2.960181768352    -0.485281614109     0.160917397497
    C           -0.478075420708     0.076358884023     0.182981685581
    H            0.886470886383    -1.282567892991    -0.795383449336
    H            0.872309054916    -1.414319939545     0.928180851856
    C           -1.701335671338    -0.835024176479     0.134707421154
    H           -0.523734006388     0.791570392290    -0.629240201145
    H           -0.501810101132     0.660666832391     1.100256522897
    C           -3.019164229670    -0.070724144271     0.206772408914
    H           -1.676441822389    -1.421281325153    -0.780313837594
    H           -1.654937613865    -1.548710491167     0.953219864251
    H           -3.111798662477     0.626621325912    -0.619114500056
    H           -3.868033383065    -0.744094007021     0.168369077060
    H           -3.090637836708     0.499262525856     1.127250889488

  Mulliken Charges: (a.u.)
   Center  Symbol    Alpha    Beta     Spin     Total
       1     H     0.42912  0.42912  0.00000  0.14175
       2     N     3.68865  3.68865  0.00000 -0.37730
       3     C     3.03903  3.03903  0.00000 -0.07807
       4     H     0.43104  0.43104  0.00000  0.13792
       5     C     3.09787  3.09787  0.00000 -0.19575
       6     H     0.45589  0.45589  0.00000  0.08822
       7     H     0.46023  0.46023  0.00000  0.07954
       8     C     3.07706  3.07706  0.00000 -0.15412
       9     H     0.45561  0.45561  0.00000  0.08878
      10     H     0.45236  0.45236  0.00000  0.09528
      11     C     3.08412  3.08412  0.00000 -0.16823
      12     H     0.44778  0.44778  0.00000  0.10444
      13     H     0.45846  0.45846  0.00000  0.08307
      14     C     3.14961  3.14961  0.00000 -0.29922
      15     H     0.45635  0.45635  0.00000  0.08729
      16     H     0.45651  0.45651  0.00000  0.08697
      17     H     0.45497  0.45497  0.00000  0.09007
      18     H     0.44980  0.44980  0.00000  0.10041
      19     H     0.45553  0.45553  0.00000  0.08895

   Total alpha = 25.00000, Total beta = 25.00000, Total charge =  0.00000

*** Psi4 exiting successfully. Buy a developer a beer!
