  ==> Input File <==

--------------------------------------------------------------------------
set {
	reference rhf
	basis cc-pvtz
}

set_num_threads( 4 )
memory 2 gb

molecule MOL {
0 1

H	 -1.904129	 0.937314	 2.443019
O	 -0.972839	 0.809629	 2.472132
C	 -0.392345	 1.309562	 1.307349
C	 -0.793473	 0.591216	 0.050087
H	 0.680054	 1.226250	 1.438960
H	 -0.608602	 2.369881	 1.190494
C	 -1.534243	 -0.493009	 -0.013340
H	 -0.419615	 1.033783	 -0.858545
H	 -1.101195	 -1.466332	 -0.144046
H	 -2.604242	 -0.437780	 0.050785

	symmetry c1
}
set optking {
	frozen_dihedral = ("
		3 4 7 9
	")
}

ee = optimize('scf')
oeprop('DIPOLE', 'QUADRUPOLE', 'MULLIKEN_CHARGES')
f=open( 'psi4out.xyz', 'w' )
f.write( "10  " )
f.write( str(ee) + "\n" )
f.write( MOL.save_string_xyz() )
f.close()
--------------------------------------------------------------------------

    Molecular point group: c1
  Charge       = 0
  Multiplicity = 1
  Basis Set: CC-PVTZ
  Basis Set:
  @DF-RHF Final Energy:  -191.85543774243712
    Total Energy =                       -191.8554377424371751
    Molecular point group: c1
  Basis Set: CC-PVTZ
  Basis Set:
  Basis Set: CC-PVTZ
  Basis Set:
  @DF-RHF Final Energy:  -191.89184601115949
    Total Energy =                       -191.8918460111594868
  Basis Set: CC-PVTZ
  Basis Set:
  Basis Set: CC-PVTZ
  Basis Set:
  @DF-RHF Final Energy:  -191.92752869524762
    Total Energy =                       -191.9275286952475881
  Basis Set: CC-PVTZ
  Basis Set:
  Basis Set: CC-PVTZ
  Basis Set:
  @DF-RHF Final Energy:  -191.93972404101640
    Total Energy =                       -191.9397240410164613
  Basis Set: CC-PVTZ
  Basis Set:
  @DF-RHF Final Energy:  -191.94056647905660
    Total Energy =                       -191.9405664790566277
  @DF-RHF Final Energy:  -191.94081284046536
    Total Energy =                       -191.9408128404653553
  @DF-RHF Final Energy:  -191.94083522861754
    Total Energy =                       -191.9408352286176296
  @DF-RHF Final Energy:  -191.89550454081365
    Total Energy =                       -191.8955045408139028
  @DF-RHF Final Energy:  -191.88048053465161
    Total Energy =                       -191.8804805346515820
  @DF-RHF Final Energy:  -191.89133748296379
    Total Energy =                       -191.8913374829637348
  @DF-RHF Final Energy:  -191.91170430939778
    Total Energy =                       -191.9117043093977202
  @DF-RHF Final Energy:  -191.93581436059105
    Total Energy =                       -191.9358143605911096
  @DF-RHF Final Energy:  -191.93912744561095
    Total Energy =                       -191.9391274456109500
  @DF-RHF Final Energy:  -191.93058605967866
    Total Energy =                       -191.9305860596784612
  @DF-RHF Final Energy:  -191.94001082616376
    Total Energy =                       -191.9400108261639275
  @DF-RHF Final Energy:  -191.94074404124598
    Total Energy =                       -191.9407440412459778
  @DF-RHF Final Energy:  -191.94082062711610
    Total Energy =                       -191.9408206271161532
  @DF-RHF Final Energy:  -191.89089446493244
    Total Energy =                       -191.8908944649322734
  @DF-RHF Final Energy:  -191.93325299721118
    Total Energy =                       -191.9332529972112127
  @DF-RHF Final Energy:  -191.94021487291690
    Total Energy =                       -191.9402148729169824
  @DF-RHF Final Energy:  -191.94086296670324
    Total Energy =                       -191.9408629667032642
  @DF-RHF Final Energy:  -191.88321995905676
    Total Energy =                       -191.8832199590567313
  @DF-RHF Final Energy:  -191.81136803046672
    Total Energy =                       -191.8113680304666104
  @DF-RHF Final Energy:  -191.91823821317246
    Total Energy =                       -191.9182382131725149
  @DF-RHF Final Energy:  -191.93790523004196
    Total Energy =                       -191.9379052300418493
  @DF-RHF Final Energy:  -191.93972663677823
    Total Energy =                       -191.9397266367783459
  @DF-RHF Final Energy:  -191.94009770783160
    Total Energy =                       -191.9400977078315407
  @DF-RHF Final Energy:  -191.94025783230177
    Total Energy =                       -191.9402578323017394
  @DF-RHF Final Energy:  -191.92517783501057
    Total Energy =                       -191.9251778350106861
  @DF-RHF Final Energy:  -191.93838289558568
    Total Energy =                       -191.9383828955857609
  @DF-RHF Final Energy:  -191.94027607231948
    Total Energy =                       -191.9402760723195343
  @DF-RHF Final Energy:  -191.94033575170013
    Total Energy =                       -191.9403357517001041
  @DF-RHF Final Energy:  -191.94058583459253
    Total Energy =                       -191.9405858345925822
  @DF-RHF Final Energy:  -191.93999719548663
    Total Energy =                       -191.9399971954866260
  @DF-RHF Final Energy:  -191.94079225956767
    Total Energy =                       -191.9407922595676723
  @DF-RHF Final Energy:  -191.94010274936406
    Total Energy =                       -191.9401027493638878
  Basis Set: CC-PVTZ
  Basis Set:
  @DF-RHF Final Energy:  -191.94083119870561
    Total Energy =                       -191.9408311987058084
  Basis Set: CC-PVTZ
  Basis Set:
  Basis Set: CC-PVTZ
  Basis Set:
  @DF-RHF Final Energy:  -191.94085942706550
    Total Energy =                       -191.9408594270654476
  Basis Set: CC-PVTZ
  Basis Set:
  Basis Set: CC-PVTZ
  Basis Set:
  @DF-RHF Final Energy:  -191.94087030221760
    Total Energy =                       -191.9408703022176041
  Basis Set: CC-PVTZ
  Basis Set:
  Charge       = 0
  Multiplicity = 1
  Basis Set: CC-PVTZ
  Basis Set:

    Orbital Energies (a.u.)
    -----------------------

    Doubly Occupied:

       1A    -20.558369     2A    -11.291268     3A    -11.239121
       4A    -11.217060     5A     -1.379028     6A     -1.064434
       7A     -0.935842     8A     -0.774079     9A     -0.696880
      10A     -0.650815    11A     -0.626096    12A     -0.583527
      13A     -0.536603    14A     -0.484917    15A     -0.457294
      16A     -0.346015

  @DF-RHF Final Energy:  -191.94087127286457

   => Energetics <=

    Nuclear Repulsion Energy =            118.4323228437510949
    One-Electron Energy =                -495.0636904668272109
    Two-Electron Energy =                 184.6904963502117027
    DFT Exchange-Correlation Energy =       0.0000000000000000
    Empirical Dispersion Energy =           0.0000000000000000
    PCM Polarization Energy =               0.0000000000000000
    EFP Energy =                            0.0000000000000000
    Total Energy =                       -191.9408712728644275
    Molecular point group: c1
  Basis Set: CC-PVTZ
  Basis Set:

  -Total Gradient:
     Atom            X                  Y                   Z
    ------   -----------------  -----------------  -----------------
       1       -0.000021466307     0.000007816052     0.000039899957
       2        0.000085011741     0.000026653276    -0.000225578204
       3        0.031902628745    -0.013248916786    -0.005191712465
       4       -0.050261400798     0.016771751845     0.030107710403
       5       -0.000004939506    -0.000021260485    -0.000011925583
       6        0.000023178462    -0.000007672151    -0.000028450240
       7        0.007211433480     0.009026749562    -0.068371590027
       8        0.000114444240     0.000077645042     0.000114131010
       9        0.011008103935    -0.012555164417     0.043643187542
      10       -0.000056993991    -0.000077601935    -0.000075672391

  **** Optimization is complete! (in 46 steps) ****
    Final optimized geometry and variables:
    Molecular point group: c1

    Geometry (in Angstrom), charge = 0, multiplicity = 1:

    H           -0.984935154547     0.666927053218     1.507612020210
    O           -0.118684980914     0.303060161895     1.479389275376
    C            0.528785687092     0.696991666836     0.311494556978
    C            0.047818789095     0.059437245384    -0.972149783916
    H            1.549696335717     0.349024439697     0.387200858100
    H            0.562072216577     1.780789527882     0.231221909801
    C           -0.482940341244    -1.135395457771    -1.180707450926
    H            0.731280868490     0.391174401027    -1.750233408727
    H            0.027563433416    -2.003489215446    -1.559255847121
    H           -1.117303733550    -1.481921166265    -0.370736948956

  Mulliken Charges: (a.u.)
   Center  Symbol    Alpha    Beta     Spin     Total
       1     H     0.39141  0.39141  0.00000  0.21719
       2     O     4.19461  4.19461  0.00000 -0.38922
       3     C     2.95556  2.95556  0.00000  0.08888
       4     C     3.08315  3.08315  0.00000 -0.16630
       5     H     0.44567  0.44567  0.00000  0.10866
       6     H     0.46141  0.46141  0.00000  0.07719
       7     C     3.16158  3.16158  0.00000 -0.32316
       8     H     0.43949  0.43949  0.00000  0.12102
       9     H     0.41951  0.41951  0.00000  0.16098
      10     H     0.44762  0.44762  0.00000  0.10477

   Total alpha = 16.00000, Total beta = 16.00000, Total charge = -0.00000
