                              Psi4 1.0.54 Driver

  ==> Input File <==

--------------------------------------------------------------------------
set {
	reference rhf
	basis cc-pvtz
}

set_num_threads( 4 )
memory 2 gb

molecule MOL {
0 1

O	 -2.081319	 -0.951530	 -0.502732
N	 -1.613558	 0.006676	 0.014756
C	 -0.329345	 -0.171618	 0.743966
O	 -2.068523	 1.100482	 -0.024385
C	 0.835904	 0.041968	 -0.213982
H	 -0.346048	 -1.174374	 1.137184
H	 -0.333613	 0.555559	 1.538590
C	 0.961388	 -1.113559	 -1.203516
H	 0.686158	 0.972935	 -0.748244
H	 1.750057	 0.139126	 0.360144
C	 2.125719	 -0.928012	 -2.170154
H	 0.036942	 -1.209739	 -1.765287
H	 1.089374	 -2.043761	 -0.657850
H	 2.008154	 -0.022024	 -2.754159
H	 3.068155	 -0.859969	 -1.638270
H	 2.193052	 -1.760779	 -2.859448

	symmetry c1
}
set optking {
	frozen_dihedral = ("
		9 5 3 2
	")
}

ee,wfn = optimize('scf', return_wfn=True)
oeprop( wfn, 'DIPOLE', 'QUADRUPOLE', 'MULLIKEN_CHARGES')
f=open( 'psi4out.xyz', 'w' )
f.write( "16  " )
f.write( str(ee) + "\n" )
f.write( MOL.save_string_xyz() )
f.close()
--------------------------------------------------------------------------

    Molecular point group: c1
  Charge       = 0
  Multiplicity = 1
  Basis Set: CC-PVTZ
  Basis Set:
  @DF-RHF Final Energy:  -360.90708041559009
    Total Energy =                       -360.9070804155898031
    Molecular point group: c1
  Basis Set: CC-PVTZ
  Basis Set:
  Basis Set: CC-PVTZ
  Basis Set:
  @DF-RHF Final Energy:  -360.90795002475357
    Total Energy =                       -360.9079500247535179
  Basis Set: CC-PVTZ
  Basis Set:
  Basis Set: CC-PVTZ
  Basis Set:
  @DF-RHF Final Energy:  -360.89527902312130
    Total Energy =                       -360.8952790231213612
  Basis Set: CC-PVTZ
  Basis Set:
  Basis Set: CC-PVTZ
  Basis Set:
  @DF-RHF Final Energy:  -360.90311582499129
    Total Energy =                       -360.9031158249916871
  Basis Set: CC-PVTZ
  Basis Set:
  @DF-RHF Final Energy:  -360.90824149509933
    Total Energy =                       -360.9082414950995030
  @DF-RHF Final Energy:  -360.90845303034058
    Total Energy =                       -360.9084530303407519
  @DF-RHF Final Energy:  -360.90859262847789
    Total Energy =                       -360.9085926284780044
  @DF-RHF Final Energy:  -360.90870929865758
    Total Energy =                       -360.9087092986575271
  @DF-RHF Final Energy:  -360.90880626906852
    Total Energy =                       -360.9088062690686911
  Basis Set: CC-PVTZ
  Basis Set:
  @DF-RHF Final Energy:  -360.90885042164626
    Total Energy =                       -360.9088504216463207
  Basis Set: CC-PVTZ
  Basis Set:
  Basis Set: CC-PVTZ
  Basis Set:
  @DF-RHF Final Energy:  -360.90886478347522
    Total Energy =                       -360.9088647834754511
  Basis Set: CC-PVTZ
  Basis Set:
  Basis Set: CC-PVTZ
  Basis Set:
  @DF-RHF Final Energy:  -360.90886645417930
    Total Energy =                       -360.9088664541795879
  Basis Set: CC-PVTZ
  Basis Set:
  Charge       = 0
  Multiplicity = 1
  Basis Set: CC-PVTZ
  Basis Set:

    Orbital Energies (a.u.)
    -----------------------

    Doubly Occupied:

       1A    -20.592402     2A    -20.588802     3A    -15.836940
       4A    -11.297035     5A    -11.247899     6A    -11.234725
       7A    -11.221674     8A     -1.636173     9A     -1.420325
      10A     -1.134617    11A     -1.054916    12A     -0.947913
      13A     -0.852734    14A     -0.816368    15A     -0.761452
      16A     -0.740427    17A     -0.729479    18A     -0.654906
      19A     -0.627657    20A     -0.603375    21A     -0.570795
      22A     -0.548623    23A     -0.507278    24A     -0.494162
      25A     -0.490343    26A     -0.486419    27A     -0.473418
      28A     -0.453629

  @DF-RHF Final Energy:  -360.90886660831734

   => Energetics <=

    Nuclear Repulsion Energy =            319.2029257964943554
    One-Electron Energy =               -1124.1746165795698289
    Two-Electron Energy =                 444.0628241747585889
    DFT Exchange-Correlation Energy =       0.0000000000000000
    Empirical Dispersion Energy =           0.0000000000000000
    PCM Polarization Energy =               0.0000000000000000
    EFP Energy =                            0.0000000000000000
    Total Energy =                       -360.9088666083168846
    Molecular point group: c1
  Basis Set: CC-PVTZ
  Basis Set:

  -Total Gradient:
     Atom            X                  Y                   Z
    ------   -----------------  -----------------  -----------------
       1        0.000038910163     0.000046688317    -0.000009874188
       2        0.000207215280     0.001517934859     0.000369397812
       3       -0.000658440729    -0.002451121696    -0.000768341365
       4       -0.000015892281     0.000069415459    -0.000027329213
       5        0.001959249045     0.001835327592     0.001802789851
       6       -0.000002930242    -0.000004522962     0.000003612212
       7       -0.000002281241     0.000001114536     0.000000121496
       8        0.000000600072     0.000007983508     0.000003554952
       9       -0.001523916663    -0.001020027955    -0.001366495851
      10        0.000002722898     0.000003737366     0.000001707758
      11        0.000002557345    -0.000002621014    -0.000001431251
      12       -0.000009722005    -0.000003532244    -0.000005346962
      13       -0.000001729667     0.000001856904     0.000001291866
      14        0.000000425988    -0.000000831444     0.000000897622
      15        0.000000924620     0.000001097717    -0.000000918220
      16        0.000002307415    -0.000002498946    -0.000003636519

  **** Optimization is complete! (in 13 steps) ****
    Final optimized geometry and variables:
    Molecular point group: c1

    Geometry (in Angstrom), charge = 0, multiplicity = 1:

    O           -1.964904438093    -0.438567951149     0.912072905902
    N           -1.147535289578     0.399698766022     0.732490513239
    C            0.249259586154     0.108456514844     1.171175036237
    O           -1.349616648045     1.459529740124     0.240768115338
    C            1.229067054063     0.200778762371     0.010221134881
    H            0.220334657287    -0.868196874151     1.622101350049
    H            0.460131245047     0.858583004415     1.918501490483
    C            1.118781036056    -0.960618328311    -0.975796659339
    H            1.067888276959     1.137307422922    -0.506766441495
    H            2.225959249265     0.229827096967     0.436383826516
    C            2.112907216774    -0.841777405183    -2.125419090150
    H            0.110626020513    -1.004233519837    -1.375809469984
    H            1.280448894391    -1.896898835667    -0.449818004736
    H            1.949078710784     0.068945671241    -2.690715098776
    H            3.134472167133    -0.826428515252    -1.760512163696
    H            2.017832533824    -1.677058842134    -2.808306027472

  Mulliken Charges: (a.u.)
   Center  Symbol    Alpha    Beta     Spin     Total
       1     O     4.16878  4.16878  0.00000 -0.33756
       2     N     3.27832  3.27832  0.00000  0.44335
       3     C     3.05188  3.05188  0.00000 -0.10376
       4     O     4.17425  4.17425  0.00000 -0.34850
       5     C     3.10684  3.10684  0.00000 -0.21367
       6     H     0.43132  0.43132  0.00000  0.13736
       7     H     0.42702  0.42702  0.00000  0.14596
       8     C     3.08492  3.08492  0.00000 -0.16984
       9     H     0.43519  0.43519  0.00000  0.12962
      10     H     0.44437  0.44437  0.00000  0.11127
      11     C     3.14979  3.14979  0.00000 -0.29958
      12     H     0.44479  0.44479  0.00000  0.11041
      13     H     0.45169  0.45169  0.00000  0.09661
      14     H     0.45109  0.45109  0.00000  0.09781
      15     H     0.45509  0.45509  0.00000  0.08983
      16     H     0.44466  0.44466  0.00000  0.11069

   Total alpha = 28.00000, Total beta = 28.00000, Total charge =  0.00000

*** Psi4 exiting successfully. Buy a developer a beer!
