                              Psi4 1.0.54 Driver

  ==> Input File <==

--------------------------------------------------------------------------
set {
	reference rhf
	basis cc-pvtz
}

set_num_threads( 4 )
memory 2 gb

molecule MOL {
0 1

H	 -2.816458	 -0.841657	 -0.064679
N	 -1.878861	 -0.711874	 0.250184
C	 -1.341419	 0.551458	 -0.220231
H	 -1.333674	 -1.468530	 -0.105118
C	 0.082190	 0.731516	 0.254705
H	 -1.357065	 0.652078	 -1.304747
H	 -1.939897	 1.357530	 0.189797
O	 0.776860	 -0.462793	 0.057813
H	 0.558398	 1.537365	 -0.302078
H	 0.084730	 0.997852	 1.309213
C	 2.086818	 -0.450167	 0.519410
H	 2.521715	 -1.417239	 0.311994
H	 2.677871	 0.313237	 0.017846
H	 2.129375	 -0.269156	 1.590851

	symmetry c1
}
set optking {
	frozen_dihedral = ("
		8 5 3 6
	")
}

ee,wfn = optimize('scf', return_wfn=True)
oeprop( wfn, 'DIPOLE', 'QUADRUPOLE', 'MULLIKEN_CHARGES')
f=open( 'psi4out.xyz', 'w' )
f.write( "14  " )
f.write( str(ee) + "\n" )
f.write( MOL.save_string_xyz() )
f.close()
--------------------------------------------------------------------------

    Molecular point group: c1
  Charge       = 0
  Multiplicity = 1
  Basis Set: CC-PVTZ
  Basis Set:
  @DF-RHF Final Energy:  -248.22336404848360
    Total Energy =                       -248.2233640484836314
    Molecular point group: c1
  Basis Set: CC-PVTZ
  Basis Set:
  Basis Set: CC-PVTZ
  Basis Set:
  @DF-RHF Final Energy:  -248.22378127104929
    Total Energy =                       -248.2237812710492904
  Basis Set: CC-PVTZ
  Basis Set:
  Basis Set: CC-PVTZ
  Basis Set:
  @DF-RHF Final Energy:  -248.22395828291127
    Total Energy =                       -248.2239582829112692
  Basis Set: CC-PVTZ
  Basis Set:
  Basis Set: CC-PVTZ
  Basis Set:
  @DF-RHF Final Energy:  -248.22396483330849
    Total Energy =                       -248.2239648333082300
  Basis Set: CC-PVTZ
  Basis Set:
  Charge       = 0
  Multiplicity = 1
  Basis Set: CC-PVTZ
  Basis Set:

    Orbital Energies (a.u.)
    -----------------------

    Doubly Occupied:

       1A    -20.550694     2A    -15.522086     3A    -11.265234
       4A    -11.263786     5A    -11.240277     6A     -1.385179
       7A     -1.175103     8A     -0.999717     9A     -0.909549
      10A     -0.814204    11A     -0.685543    12A     -0.677405
      13A     -0.647670    14A     -0.611110    15A     -0.607503
      16A     -0.545759    17A     -0.527873    18A     -0.495606
      19A     -0.474738    20A     -0.421040    21A     -0.380323

  @DF-RHF Final Energy:  -248.22396520907301

   => Energetics <=

    Nuclear Repulsion Energy =            195.1565999519361299
    One-Electron Energy =                -724.3603294268452828
    Two-Electron Energy =                 280.9797642658361383
    DFT Exchange-Correlation Energy =       0.0000000000000000
    Empirical Dispersion Energy =           0.0000000000000000
    PCM Polarization Energy =               0.0000000000000000
    EFP Energy =                            0.0000000000000000
    Total Energy =                       -248.2239652090729578
    Molecular point group: c1
  Basis Set: CC-PVTZ
  Basis Set:

  -Total Gradient:
     Atom            X                  Y                   Z
    ------   -----------------  -----------------  -----------------
       1       -0.000015167536    -0.000014903677    -0.000001528332
       2       -0.000011000969     0.000011851884     0.000016780091
       3        0.001131548137    -0.008226258033     0.000241951692
       4        0.000013060421    -0.000022121485    -0.000008004920
       5        0.001418692155     0.003830277160    -0.005629153511
       6       -0.001200577508     0.006203364607     0.000900934236
       7       -0.000003371342     0.000013417251     0.000006916628
       8       -0.001312291249    -0.001809396022     0.004460312124
       9        0.000004263802    -0.000004442131    -0.000000593725
      10       -0.000002892839     0.000004154980     0.000010636827
      11       -0.000013478404     0.000018635880     0.000003397778
      12       -0.000013443061    -0.000001937660    -0.000003539621
      13        0.000001807886     0.000000205628    -0.000003581734
      14        0.000002850508    -0.000002848384     0.000005472466

  **** Optimization is complete! (in 5 steps) ****
    Final optimized geometry and variables:
    Molecular point group: c1

    Geometry (in Angstrom), charge = 0, multiplicity = 1:

    H           -2.779809512542    -0.800520736529    -0.272929925373
    N           -1.855823877006    -0.661002631321     0.074859900956
    C           -1.312858668281     0.599313774307    -0.381645985542
    H           -1.287646781857    -1.418595576243    -0.236722735900
    C            0.106784877592     0.799323391774     0.114882424783
    H           -1.341717742390     0.753575415149    -1.460764699750
    H           -1.910927537291     1.402581896007     0.038519196696
    O            0.853631309579    -0.352030186251    -0.131876454064
    H            0.552886055086     1.660918642472    -0.378368871540
    H            0.091655963742     0.994270736834     1.185563611359
    C            2.160562262600    -0.300714955191     0.334519107676
    H            2.635516301816    -1.241438592003     0.096324062872
    H            2.721467628903     0.503166842593    -0.137415820331
    H            2.191363544376    -0.155553695674     1.411886833896

  Mulliken Charges: (a.u.)
   Center  Symbol    Alpha    Beta     Spin     Total
       1     H     0.43038  0.43038  0.00000  0.13925
       2     N     3.69234  3.69234  0.00000 -0.38467
       3     C     3.02209  3.02209  0.00000 -0.04419
       4     H     0.42043  0.42043  0.00000  0.15914
       5     C     2.96263  2.96263  0.00000  0.07474
       6     H     0.46871  0.46871  0.00000  0.06257
       7     H     0.46125  0.46125  0.00000  0.07750
       8     O     4.17972  4.17972  0.00000 -0.35944
       9     H     0.47095  0.47095  0.00000  0.05810
      10     H     0.47226  0.47226  0.00000  0.05548
      11     C     3.03031  3.03031  0.00000 -0.06062
      12     H     0.44753  0.44753  0.00000  0.10494
      13     H     0.47116  0.47116  0.00000  0.05768
      14     H     0.47024  0.47024  0.00000  0.05953

   Total alpha = 21.00000, Total beta = 21.00000, Total charge =  0.00000

*** Psi4 exiting successfully. Buy a developer a beer!
