  ==> Input File <==

--------------------------------------------------------------------------
set {
	reference rhf
	basis cc-pvtz
}

set_num_threads( 4 )
memory 2 gb

molecule MOL {
0 1

H	 3.240043	 1.147017	 1.385324
N	 2.410327	 0.593283	 1.361508
C	 1.860978	 0.530248	 0.016256
H	 1.759224	 1.011079	 1.993061
C	 0.644130	 -0.381765	 -0.031064
H	 2.630575	 0.133996	 -0.637665
H	 1.590032	 1.510720	 -0.377721
C	 -0.678115	 0.376691	 0.025731
H	 0.693998	 -0.977147	 -0.936845
H	 0.693309	 -1.082142	 0.800523
C	 -1.900706	 -0.535531	 -0.022488
H	 -0.725296	 1.079516	 -0.802982
H	 -0.715474	 0.974884	 0.933278
C	 -3.220513	 0.226854	 0.028039
H	 -1.865036	 -1.134397	 -0.928236
H	 -1.857948	 -1.236381	 0.806820
H	 -3.309098	 0.911849	 -0.808725
H	 -4.066838	 -0.449485	 -0.008086
H	 -3.301685	 0.809374	 0.939860

	symmetry c1
}
set optking {
	frozen_dihedral = ("
		6 3 5 9
	")
}

ee = optimize('scf')
oeprop('DIPOLE', 'QUADRUPOLE', 'MULLIKEN_CHARGES')
f=open( 'psi4out.xyz', 'w' )
f.write( "19  " )
f.write( str(ee) + "\n" )
f.write( MOL.save_string_xyz() )
f.close()
--------------------------------------------------------------------------

    Molecular point group: c1
  Charge       = 0
  Multiplicity = 1
  Basis Set: CC-PVTZ
  Basis Set:
  @DF-RHF Final Energy:  -251.44335659802030
    Total Energy =                       -251.4433565980207277
    Molecular point group: c1
  Basis Set: CC-PVTZ
  Basis Set:
  Basis Set: CC-PVTZ
  Basis Set:
  @DF-RHF Final Energy:  -251.44375997388266
    Total Energy =                       -251.4437599738825497
  Basis Set: CC-PVTZ
  Basis Set:
  Basis Set: CC-PVTZ
  Basis Set:
  @DF-RHF Final Energy:  -251.44385364303145
    Total Energy =                       -251.4438536430317299
  Basis Set: CC-PVTZ
  Basis Set:
  Basis Set: CC-PVTZ
  Basis Set:
  @DF-RHF Final Energy:  -251.44385571427352
    Total Energy =                       -251.4438557142733544
  Basis Set: CC-PVTZ
  Basis Set:
  Charge       = 0
  Multiplicity = 1
  Basis Set: CC-PVTZ
  Basis Set:

    Orbital Energies (a.u.)
    -----------------------

    Doubly Occupied:

       1A    -15.526945     2A    -11.237978     3A    -11.212561
       4A    -11.211828     5A    -11.207468     6A    -11.206325
       7A     -1.177860     8A     -1.073885     9A     -0.998407
      10A     -0.904469    11A     -0.815134    12A     -0.787239
      13A     -0.667734    14A     -0.642085    15A     -0.617559
      16A     -0.588124    17A     -0.562381    18A     -0.550120
      19A     -0.534202    20A     -0.501358    21A     -0.485889
      22A     -0.465660    23A     -0.461882    24A     -0.445356
      25A     -0.382791

  @DF-RHF Final Energy:  -251.44385605496251

   => Energetics <=

    Nuclear Repulsion Energy =            247.8965366778360817
    One-Electron Energy =                -830.1503038072031586
    Two-Electron Energy =                 330.8099110744046811
    DFT Exchange-Correlation Energy =       0.0000000000000000
    Empirical Dispersion Energy =           0.0000000000000000
    PCM Polarization Energy =               0.0000000000000000
    EFP Energy =                            0.0000000000000000
    Total Energy =                       -251.4438560549624526
    Molecular point group: c1
  Basis Set: CC-PVTZ
  Basis Set:

  -Total Gradient:
     Atom            X                  Y                   Z
    ------   -----------------  -----------------  -----------------
       1        0.000044654562     0.000019874416     0.000036775020
       2        0.000000016389    -0.000011702096    -0.000058981013
       3        0.002079607941    -0.003483327693     0.004257954085
       4       -0.000011030669     0.000014742744    -0.000001670083
       5       -0.002738994442     0.004152530895    -0.003174640013
       6       -0.001346007076     0.002205953983    -0.003042724021
       7       -0.000000376755     0.000040355770     0.000000046799
       8        0.000059261041    -0.000040767443    -0.000002498929
       9        0.001929942953    -0.002887447072     0.001951907644
      10       -0.000003361494    -0.000010331891     0.000021311435
      11       -0.000000406858     0.000008733372     0.000031129089
      12        0.000014650809     0.000006187151     0.000003793573
      13       -0.000002671551    -0.000018648803    -0.000008112770
      14       -0.000022646560    -0.000010862158    -0.000018634750
      15        0.000004279820     0.000007015755     0.000006825905
      16        0.000001834872     0.000005430321    -0.000000470751
      17       -0.000000578637     0.000003919976     0.000002482251
      18       -0.000011236235     0.000005419894    -0.000005115065
      19        0.000003061887    -0.000007077121     0.000000621597

  **** Optimization is complete! (in 5 steps) ****
    Final optimized geometry and variables:
    Molecular point group: c1

    Geometry (in Angstrom), charge = 0, multiplicity = 1:

    H            3.329234689789     1.022547390274     1.181154730307
    N            2.521042071806     0.438239408553     1.136430605964
    C            2.012212666510     0.360370960466    -0.225265705679
    H            1.840119523697     0.838367725070     1.748016361980
    C            0.770185817118    -0.532766454355    -0.317122986863
    H            2.794657814479    -0.033538350836    -0.862339773086
    H            1.770296292374     1.342213541743    -0.635878823692
    C           -0.552933064239     0.224292048331    -0.245855994944
    H            0.813162979863    -1.124569346116    -1.226198130795
    H            0.821480523334    -1.251658190602     0.494778481346
    C           -1.774430156318    -0.689790972060    -0.261481595923
    H           -0.615014134304     0.919489886262    -1.079524411187
    H           -0.576435674924     0.832470754034     0.656496605425
    C           -3.095153034151     0.070550026117    -0.203308570015
    H           -1.750594183254    -1.301837422139    -1.159067751059
    H           -1.717286329282    -1.378357884370     0.576865659177
    H           -3.197323991624     0.743338118222    -1.048391920848
    H           -3.940365107463    -0.607984111985    -0.217489965042
    H           -3.164743984545     0.665738520867     0.701285376970

  Mulliken Charges: (a.u.)
   Center  Symbol    Alpha    Beta     Spin     Total
       1     H     0.42997  0.42997  0.00000  0.14007
       2     N     3.68622  3.68622  0.00000 -0.37243
       3     C     3.03441  3.03441  0.00000 -0.06882
       4     H     0.43131  0.43131  0.00000  0.13738
       5     C     3.09856  3.09856  0.00000 -0.19712
       6     H     0.45246  0.45246  0.00000  0.09509
       7     H     0.46866  0.46866  0.00000  0.06268
       8     C     3.08385  3.08385  0.00000 -0.16770
       9     H     0.44998  0.44998  0.00000  0.10004
      10     H     0.44873  0.44873  0.00000  0.10254
      11     C     3.08507  3.08507  0.00000 -0.17014
      12     H     0.45502  0.45502  0.00000  0.08995
      13     H     0.45893  0.45893  0.00000  0.08213
      14     C     3.14976  3.14976  0.00000 -0.29953
      15     H     0.45441  0.45441  0.00000  0.09119
      16     H     0.45324  0.45324  0.00000  0.09352
      17     H     0.45543  0.45543  0.00000  0.08914
      18     H     0.44831  0.44831  0.00000  0.10338
      19     H     0.45568  0.45568  0.00000  0.08864

   Total alpha = 25.00000, Total beta = 25.00000, Total charge = -0.00000
