  ==> Input File <==

--------------------------------------------------------------------------
set {
	reference rhf
	basis 6-31G*
}

set_num_threads( 1 )
memory 2 gb

molecule MOL {
0 1

H	 -2.792721	 0.412697	 -0.092619
N	 -1.820426	 0.531775	 0.115799
C	 -1.073738	 0.864989	 -1.084421
H	 -1.486113	 -0.336240	 0.487139
C	 0.398053	 1.003202	 -0.755993
H	 -1.179952	 0.131833	 -1.885172
H	 -1.433731	 1.816332	 -1.464070
O	 0.874168	 -0.245412	 -0.342030
H	 0.949366	 1.342147	 -1.632810
H	 0.528738	 1.738091	 0.035268
C	 2.202317	 -0.244239	 0.074611
H	 2.711377	 -1.041390	 -0.449894
H	 2.692099	 0.699270	 -0.159667
H	 2.283185	 -0.418429	 1.145558

	symmetry c1
}
set optking {
	frozen_dihedral = ("
		8 5 3 6,
		6 3 2 4,
		11 8 5 3
	")
}

ee = energy('scf')
oeprop('DIPOLE', 'QUADRUPOLE', 'MULLIKEN_CHARGES')
f=open( 'psi4out.xyz', 'w' )
f.write( "14  " )
f.write( str(ee) + "\n" )
f.write( MOL.save_string_xyz() )
f.close()
--------------------------------------------------------------------------

    Molecular point group: c1

    Geometry (in Angstrom), charge = 0, multiplicity = 1:

       Center              X                  Y                   Z               Mass
    ------------   -----------------  -----------------  -----------------  -----------------
           H         -2.913947684621     0.047871520979     0.294847946250     1.007825032070
           N         -1.941652684621     0.166949520979     0.503265946250    14.003074004780
           C         -1.194964684621     0.500163520979    -0.696954053750    12.000000000000
           H         -1.607339684621    -0.701065479021     0.874605946250     1.007825032070
           C          0.276826315379     0.638376520979    -0.368526053750    12.000000000000
           H         -1.301178684621    -0.232992479021    -1.497705053750     1.007825032070
           H         -1.554957684621     1.451506520979    -1.076603053750     1.007825032070
           O          0.752941315379    -0.610237479021     0.045436946250    15.994914619560
           H          0.828139315379     0.977321520979    -1.245343053750     1.007825032070
           H          0.407511315379     1.373265520979     0.422734946250     1.007825032070
           C          2.081090315379    -0.609064479021     0.462077946250    12.000000000000
           H          2.590150315379    -1.406215479021    -0.062427053750     1.007825032070
           H          2.570872315379     0.334444520979     0.227799946250     1.007825032070
           H          2.161958315379    -0.783254479021     1.533024946250     1.007825032070

  Charge       = 0
  Multiplicity = 1
  Basis Set: 6-31G*
  Basis Set:

    Orbital Energies (a.u.)
    -----------------------

    Doubly Occupied:

       1A    -20.554513     2A    -15.528216     3A    -11.266136
       4A    -11.265248     5A    -11.240399     6A     -1.380293
       7A     -1.173358     8A     -0.998406     9A     -0.907059
      10A     -0.816179    11A     -0.683292    12A     -0.671684
      13A     -0.643970    14A     -0.610366    15A     -0.605261
      16A     -0.539171    17A     -0.534778    18A     -0.494742
      19A     -0.474723    20A     -0.412324    21A     -0.379914

  @DF-RHF Final Energy:  -248.12125491503133

   => Energetics <=

    Nuclear Repulsion Energy =            194.7010667526244561
    One-Electron Energy =                -723.2845445743384971
    Two-Electron Energy =                 280.4622229066827686
    DFT Exchange-Correlation Energy =       0.0000000000000000
    Empirical Dispersion Energy =           0.0000000000000000
    PCM Polarization Energy =               0.0000000000000000
    EFP Energy =                            0.0000000000000000
    Total Energy =                       -248.1212549150312725

  Mulliken Charges: (a.u.)
   Center  Symbol    Alpha    Beta     Spin     Total
       1     H     0.33288  0.33288  0.00000  0.33425
       2     N     3.92530  3.92530  0.00000 -0.85060
       3     C     3.06902  3.06902  0.00000 -0.13804
       4     H     0.32365  0.32365  0.00000  0.35270
       5     C     2.99193  2.99193  0.00000  0.01614
       6     H     0.42670  0.42670  0.00000  0.14660
       7     H     0.42061  0.42061  0.00000  0.15878
       8     O     4.31154  4.31154  0.00000 -0.62308
       9     H     0.43057  0.43057  0.00000  0.13886
      10     H     0.42206  0.42206  0.00000  0.15588
      11     C     3.07649  3.07649  0.00000 -0.15298
      12     H     0.41863  0.41863  0.00000  0.16274
      13     H     0.42888  0.42888  0.00000  0.14224
      14     H     0.42175  0.42175  0.00000  0.15651

   Total alpha = 21.00000, Total beta = 21.00000, Total charge = -0.00000
