  ==> Input File <==

--------------------------------------------------------------------------
set {
	reference rhf
	basis 6-31G*
}

set_num_threads( 4 )
memory 2 gb

molecule MOL {
0 1

H	 -3.269016	 -0.876744	 0.468090
C	 -2.809304	 0.000122	 0.025886
N	 -1.391456	 0.000019	 0.300661
H	 -3.037557	 -0.000063	 -1.044252
H	 -3.269223	 0.876956	 0.468000
C	 -0.978745	 1.161708	 1.063509
C	 -0.597188	 -0.132181	 -0.904939
H	 -1.162454	 2.089804	 0.513604
H	 -1.558791	 1.201627	 1.979760
C	 0.499699	 1.073017	 1.408336
H	 -0.898988	 -1.035912	 -1.424307
H	 -0.755637	 0.710265	 -1.585150
C	 0.881256	 -0.220873	 -0.560111
H	 0.801500	 1.976747	 1.927705
H	 0.658149	 0.230570	 2.088547
N	 1.293967	 0.940817	 0.202737
H	 1.461302	 -0.260791	 -1.476362
H	 1.064966	 -1.148968	 -0.010206
C	 2.711815	 0.940714	 0.477511
H	 2.985920	 1.854415	 0.993059
H	 3.266536	 0.903483	 -0.453470
H	 3.027695	 0.094544	 1.095178

	symmetry c1
}
set optking {
	frozen_dihedral = ("
		6 3 2 4
	")
}

ee = optimize('scf')
oeprop('DIPOLE', 'QUADRUPOLE', 'MULLIKEN_CHARGES')
f=open( 'psi4out.xyz', 'w' )
f.write( "22  " )
f.write( str(ee) + "\n" )
f.write( MOL.save_string_xyz() )
f.close()
--------------------------------------------------------------------------

    Molecular point group: c1
  Charge       = 0
  Multiplicity = 1
  Basis Set: 6-31G*
  Basis Set:
  @DF-RHF Final Energy:  -344.22354052212370
    Total Energy =                       -344.2235405221236988
    Molecular point group: c1
  Basis Set: 6-31G*
  Basis Set:
  Basis Set: 6-31G*
  Basis Set:
  @DF-RHF Final Energy:  -344.22416629158579
    Total Energy =                       -344.2241662915856750
  Basis Set: 6-31G*
  Basis Set:
  Basis Set: 6-31G*
  Basis Set:
  @DF-RHF Final Energy:  -344.22431180480311
    Total Energy =                       -344.2243118048031647
  Basis Set: 6-31G*
  Basis Set:
  Basis Set: 6-31G*
  Basis Set:
  @DF-RHF Final Energy:  -344.22431702572004
    Total Energy =                       -344.2243170257199836
  Basis Set: 6-31G*
  Basis Set:
  Charge       = 0
  Multiplicity = 1
  Basis Set: 6-31G*
  Basis Set:

    Orbital Energies (a.u.)
    -----------------------

    Doubly Occupied:

       1A    -15.541187     2A    -15.537777     3A    -11.238366
       4A    -11.238315     5A    -11.237298     6A    -11.237282
       7A    -11.235711     8A    -11.235366     9A     -1.252403
      10A     -1.200417    11A     -1.024098    12A     -0.990366
      13A     -0.911883    14A     -0.866191    15A     -0.835468
      16A     -0.753517    17A     -0.664167    18A     -0.634217
      19A     -0.629504    20A     -0.623791    21A     -0.618342
      22A     -0.578588    23A     -0.550827    24A     -0.550079
      25A     -0.542122    26A     -0.519387    27A     -0.497417
      28A     -0.487191    29A     -0.464568    30A     -0.454757
      31A     -0.348145    32A     -0.337996

  @DF-RHF Final Energy:  -344.22431774489672

   => Energetics <=

    Nuclear Repulsion Energy =            420.7683480287980160
    One-Electron Energy =               -1300.3118417982896062
    Two-Electron Energy =                 535.3191760245948672
    DFT Exchange-Correlation Energy =       0.0000000000000000
    Empirical Dispersion Energy =           0.0000000000000000
    PCM Polarization Energy =               0.0000000000000000
    EFP Energy =                            0.0000000000000000
    Total Energy =                       -344.2243177448966662
    Molecular point group: c1
  Basis Set: 6-31G*
  Basis Set:

  -Total Gradient:
     Atom            X                  Y                   Z
    ------   -----------------  -----------------  -----------------
       1        0.000017945979     0.000025590032    -0.000000467697
       2       -0.000170596942     0.001318147253     0.000329273858
       3        0.000195559924     0.000329073818    -0.001088000720
       4        0.000063666198    -0.001200036513    -0.000031305066
       5        0.000010685490    -0.000002018735     0.000005780902
       6       -0.000126557092    -0.000507537498     0.000780826553
       7       -0.000023427381     0.000005856313     0.000006218702
       8        0.000004764098    -0.000002428952     0.000003697435
       9        0.000004882125     0.000005789076    -0.000003183460
      10        0.000005350797     0.000032416953     0.000009882299
      11        0.000006425564     0.000004110566    -0.000001590047
      12       -0.000006784372     0.000000665455     0.000002204770
      13        0.000017175332    -0.000010121945    -0.000006455085
      14        0.000019151498     0.000002684790     0.000005248363
      15       -0.000014383470     0.000004826948    -0.000003528427
      16       -0.000018963116    -0.000007580993     0.000000181271
      17        0.000011108140     0.000001024007     0.000001266729
      18       -0.000005265156    -0.000004235590    -0.000003207301
      19        0.000001886380     0.000007051194    -0.000008911795
      20        0.000003835398    -0.000001749214     0.000000226165
      21        0.000005231160    -0.000000920946     0.000002311395
      22       -0.000001690554    -0.000000606019    -0.000000468847

  **** Optimization is complete! (in 5 steps) ****
    Final optimized geometry and variables:
    Molecular point group: c1

    Geometry (in Angstrom), charge = 0, multiplicity = 1:

    H           -3.203971398482    -1.407256455889     0.204795129647
    C           -2.778797488083    -0.497573314920    -0.209788212460
    N           -1.345412228404    -0.436182894095     0.031015276032
    H           -3.008248570784    -0.483418514201    -1.272039189275
    H           -3.291707465462     0.344775826449     0.242670314715
    C           -0.924482038075     0.712139849731     0.807676244431
    C           -0.545147159035    -0.593552851201    -1.165788359540
    H           -1.095521843559     1.651530074106     0.272820190597
    H           -1.502676421898     0.745063195360     1.724886105749
    C            0.551670009701     0.602889004448     1.156055888524
    H           -0.850738802284    -1.502229848157    -1.673912701077
    H           -0.687575624122     0.239357353201    -1.861252131681
    C            0.929433321167    -0.695992490865    -0.809222024604
    H            0.863835427160     1.500775497103     1.679656580022
    H            0.696730005953    -0.244264711072     1.833519298018
    N            1.348718972566     0.463922357090    -0.047084959771
    H            1.516207322642    -0.745326142069    -1.720845507836
    H            1.099229855320    -1.623770874614    -0.254196901744
    C            2.765433859734     0.452136360797     0.232979048956
    H            3.045727146446     1.363978833439     0.748556755389
    H            3.323311388174     0.409026463066    -0.695869358350
    H            3.071951807651    -0.396080296175     0.852648117987

  Mulliken Charges: (a.u.)
   Center  Symbol    Alpha    Beta     Spin     Total
       1     H     0.41655  0.41655  0.00000  0.16690
       2     C     3.13903  3.13903  0.00000 -0.27805
       3     N     3.79330  3.79330  0.00000 -0.58659
       4     H     0.42371  0.42371  0.00000  0.15259
       5     H     0.42168  0.42168  0.00000  0.15663
       6     C     3.05481  3.05481  0.00000 -0.10963
       7     C     3.05505  3.05505  0.00000 -0.11010
       8     H     0.42924  0.42924  0.00000  0.14151
       9     H     0.41775  0.41775  0.00000  0.16451
      10     C     3.05657  3.05657  0.00000 -0.11314
      11     H     0.41768  0.41768  0.00000  0.16465
      12     H     0.42907  0.42907  0.00000  0.14186
      13     C     3.05645  3.05645  0.00000 -0.11291
      14     H     0.41839  0.41839  0.00000  0.16321
      15     H     0.42888  0.42888  0.00000  0.14224
      16     N     3.78712  3.78712  0.00000 -0.57424
      17     H     0.41838  0.41838  0.00000  0.16324
      18     H     0.42888  0.42888  0.00000  0.14224
      19     C     3.14011  3.14011  0.00000 -0.28021
      20     H     0.41689  0.41689  0.00000  0.16622
      21     H     0.41689  0.41689  0.00000  0.16622
      22     H     0.43357  0.43357  0.00000  0.13285

   Total alpha = 32.00000, Total beta = 32.00000, Total charge =  0.00000
