                              Psi4 1.0.54 Driver

  ==> Input File <==

--------------------------------------------------------------------------
set {
	reference rhf
	basis cc-pvtz
}

set_num_threads( 4 )
memory 2 gb

molecule MOL {
0 1

H	 2.190573	 -0.629143	 -0.208718
O	 1.355408	 -0.529451	 0.208662
C	 0.700177	 0.619554	 -0.266242
C	 -0.713111	 0.588314	 0.266177
H	 0.678680	 0.627133	 -1.351786
H	 1.199747	 1.521489	 0.077736
O	 -1.421673	 -0.521378	 -0.196983
H	 -1.244794	 1.469161	 -0.069059
H	 -0.685100	 0.604721	 1.352683
H	 -0.900713	 -1.291554	 -0.050512

	symmetry c1
}
set optking {
	frozen_dihedral = ("
		10 7 4 3
	")
}

ee,wfn = optimize('scf', return_wfn=True)
oeprop( wfn, 'DIPOLE', 'QUADRUPOLE', 'MULLIKEN_CHARGES')
f=open( 'psi4out.xyz', 'w' )
f.write( "10  " )
f.write( str(ee) + "\n" )
f.write( MOL.save_string_xyz() )
f.close()
--------------------------------------------------------------------------

    Molecular point group: c1
  Charge       = 0
  Multiplicity = 1
  Basis Set: CC-PVTZ
  Basis Set:
  @DF-RHF Final Energy:  -229.02883940197495
    Total Energy =                       -229.0288394019748637
    Molecular point group: c1
  Basis Set: CC-PVTZ
  Basis Set:
  Basis Set: CC-PVTZ
  Basis Set:
  @DF-RHF Final Energy:  -229.02884265919181
    Total Energy =                       -229.0288426591918096
  Basis Set: CC-PVTZ
  Basis Set:
  Charge       = 0
  Multiplicity = 1
  Basis Set: CC-PVTZ
  Basis Set:

    Orbital Energies (a.u.)
    -----------------------

    Doubly Occupied:

       1A    -20.561854     2A    -20.542138     3A    -11.274786
       4A    -11.266761     5A     -1.386178     6A     -1.355804
       7A     -1.003995     8A     -0.845597     9A     -0.730540
      10A     -0.680732    11A     -0.653517    12A     -0.606904
      13A     -0.577625    14A     -0.536079    15A     -0.491832
      16A     -0.457093    17A     -0.436320

  @DF-RHF Final Energy:  -229.02884855391838

   => Energetics <=

    Nuclear Repulsion Energy =            134.6274582410024721
    One-Electron Energy =                -580.4971064930682587
    Two-Electron Energy =                 216.8407996981472934
    DFT Exchange-Correlation Energy =       0.0000000000000000
    Empirical Dispersion Energy =           0.0000000000000000
    PCM Polarization Energy =               0.0000000000000000
    EFP Energy =                            0.0000000000000000
    Total Energy =                       -229.0288485539184649
    Molecular point group: c1
  Basis Set: CC-PVTZ
  Basis Set:

  -Total Gradient:
     Atom            X                  Y                   Z
    ------   -----------------  -----------------  -----------------
       1       -0.000000043636     0.000008843674    -0.000011202667
       2        0.000020113018     0.000008976895     0.000024682715
       3        0.000094507722    -0.000242482338     0.000330924460
       4       -0.000086409660     0.000377503256    -0.000618597677
       5        0.000024414730     0.000006309981    -0.000028283268
       6        0.000018253023    -0.000032723041     0.000010913110
       7       -0.000356745332    -0.000191309557     0.000918426509
       8       -0.000008696405    -0.000016780786    -0.000004664713
       9       -0.000031916192    -0.000012440735     0.000011719970
      10        0.000326522734     0.000094102653    -0.000633918440

  **** Optimization is complete! (in 3 steps) ****
    Final optimized geometry and variables:
    Molecular point group: c1

    Geometry (in Angstrom), charge = 0, multiplicity = 1:

    H            2.188117040768    -0.629868234401    -0.210755513483
    O            1.350496022869    -0.533125212379     0.202467163323
    C            0.700633028329     0.622743530737    -0.262851896378
    C           -0.714428644768     0.591326915523     0.265873791932
    H            0.683291582524     0.640679415198    -1.348528743082
    H            1.202455453670     1.519503041687     0.090876888418
    O           -1.418509591967    -0.523999068780    -0.190496287447
    H           -1.247447655200     1.469654828491    -0.073953384890
    H           -0.687869577648     0.612629790984     1.352462927667
    H           -0.894860104760    -1.290998177336    -0.036069854485

  Mulliken Charges: (a.u.)
   Center  Symbol    Alpha    Beta     Spin     Total
       1     H     0.39065  0.39065  0.00000  0.21870
       2     O     4.20714  4.20714  0.00000 -0.41428
       3     C     2.97479  2.97479  0.00000  0.05043
       4     C     2.96172  2.96172  0.00000  0.07655
       5     H     0.46905  0.46905  0.00000  0.06191
       6     H     0.47125  0.47125  0.00000  0.05751
       7     O     4.20999  4.20999  0.00000 -0.41997
       8     H     0.45924  0.45924  0.00000  0.08153
       9     H     0.47102  0.47102  0.00000  0.05796
      10     H     0.38517  0.38517  0.00000  0.22966

   Total alpha = 17.00000, Total beta = 17.00000, Total charge = -0.00000

*** Psi4 exiting successfully. Buy a developer a beer!
