  ==> Input File <==

--------------------------------------------------------------------------
set {
	reference rhf
	basis 6-31G*
}

set_num_threads( 1 )
memory 2 gb

molecule MOL {
0 1

O	 0.984954	 4.301527	 0.807960
C	 -0.050786	 4.703609	 1.241931
C	 -1.315485	 3.863819	 1.226816
C	 -0.170295	 6.090067	 1.840770
C	 -1.135157	 2.479259	 0.611422
H	 -1.675747	 3.785602	 2.251746
H	 -2.081898	 4.425128	 0.693950
C	 -2.429063	 1.663438	 0.614077
H	 -0.361521	 1.946332	 1.155118
H	 -0.768354	 2.586512	 -0.404501
C	 -2.259874	 0.272531	 0.000494
H	 -2.793192	 1.562708	 1.635502
H	 -3.201029	 2.204357	 0.068602
C	 -3.549786	 -0.549746	 -0.000374
H	 -1.488902	 -0.269365	 0.545443
H	 -1.896730	 0.372019	 -1.020890
C	 -4.809590	 0.315458	 -0.000369
H	 -3.560515	 -1.202009	 -0.871156
H	 -3.561123	 -1.202955	 0.869711
H	 -4.844746	 0.956611	 -0.876632
H	 -5.706986	 -0.295590	 -0.001609
H	 -4.845960	 0.954827	 0.877144
H	 -0.502339	 6.029695	 2.873107
H	 0.787566	 6.589601	 1.798313
H	 -0.908125	 6.674360	 1.298697

	symmetry c1
}
set optking {
	frozen_dihedral = ("
		9 5 8 12,
		15 11 8 12,
		1 2 3 6,
		9 5 3 6
	")
}

ee = energy('scf')
oeprop('DIPOLE', 'QUADRUPOLE', 'MULLIKEN_CHARGES')
f=open( 'psi4out.xyz', 'w' )
f.write( "25  " )
f.write( str(ee) + "\n" )
f.write( MOL.save_string_xyz() )
f.close()
--------------------------------------------------------------------------

    Molecular point group: c1

    Geometry (in Angstrom), charge = 0, multiplicity = 1:

       Center              X                  Y                   Z               Mass
    ------------   -----------------  -----------------  -----------------  -----------------
           O          2.628634299345     1.723817731427     0.103010315585    15.994914619560
           C          1.592894299345     2.125899731427     0.536981315585    12.000000000000
           C          0.328195299345     1.286109731427     0.521866315585    12.000000000000
           C          1.473385299345     3.512357731427     1.135820315585    12.000000000000
           C          0.508523299345    -0.098450268573    -0.093527684415    12.000000000000
           H         -0.032066700655     1.207892731427     1.546796315585     1.007825032070
           H         -0.438217700655     1.847418731427    -0.010999684415     1.007825032070
           C         -0.785382700655    -0.914271268573    -0.090872684415    12.000000000000
           H          1.282159299345    -0.631377268573     0.450168315585     1.007825032070
           H          0.875326299345     0.008802731427    -1.109450684415     1.007825032070
           C         -0.616193700655    -2.305178268573    -0.704455684415    12.000000000000
           H         -1.149511700655    -1.015001268573     0.930552315585     1.007825032070
           H         -1.557348700655    -0.373352268573    -0.636347684415     1.007825032070
           C         -1.906105700655    -3.127455268573    -0.705323684415    12.000000000000
           H          0.154778299345    -2.847074268573    -0.159506684415     1.007825032070
           H         -0.253049700655    -2.205690268573    -1.725839684415     1.007825032070
           C         -3.165909700655    -2.262251268573    -0.705318684415    12.000000000000
           H         -1.916834700655    -3.779718268573    -1.576105684415     1.007825032070
           H         -1.917442700655    -3.780664268573     0.164761315585     1.007825032070
           H         -3.201065700655    -1.621098268573    -1.581581684415     1.007825032070
           H         -4.063305700655    -2.873299268573    -0.706558684415     1.007825032070
           H         -3.202279700655    -1.622882268573     0.172194315585     1.007825032070
           H          1.141341299345     3.451985731427     2.168157315585     1.007825032070
           H          2.431246299345     4.011891731427     1.093363315585     1.007825032070
           H          0.735555299345     4.096650731427     0.593747315585     1.007825032070

  Charge       = 0
  Multiplicity = 1
  Basis Set: 6-31G*
  Basis Set:

    Orbital Energies (a.u.)
    -----------------------

    Doubly Occupied:

       1A    -20.550223     2A    -11.326058     3A    -11.231532
       4A    -11.228193     5A    -11.216035     6A    -11.215325
       7A    -11.214614     8A    -11.212633     9A    -11.208288
      10A     -1.395522    11A     -1.095535    12A     -1.056886
      13A     -1.012253    14A     -0.963838    15A     -0.898851
      16A     -0.828879    17A     -0.770183    18A     -0.729023
      19A     -0.660729    20A     -0.652409    21A     -0.630001
      22A     -0.624255    23A     -0.604078    24A     -0.592447
      25A     -0.560387    26A     -0.555572    27A     -0.549702
      28A     -0.523220    29A     -0.510490    30A     -0.492762
      31A     -0.489918    32A     -0.477435    33A     -0.459199
      34A     -0.452096    35A     -0.448969    36A     -0.399297

  @DF-RHF Final Energy:  -387.12707434025481

   => Energetics <=

    Nuclear Repulsion Energy =            446.1952544542189116
    One-Electron Energy =               -1408.9710143024014997
    Two-Electron Energy =                 575.6486855079309635
    DFT Exchange-Correlation Energy =       0.0000000000000000
    Empirical Dispersion Energy =           0.0000000000000000
    PCM Polarization Energy =               0.0000000000000000
    EFP Energy =                            0.0000000000000000
    Total Energy =                       -387.1270743402516246

  Mulliken Charges: (a.u.)
   Center  Symbol    Alpha    Beta     Spin     Total
       1     O     4.26120  4.26120  0.00000 -0.52240
       2     C     2.73569  2.73569  0.00000  0.52862
       3     C     3.21077  3.21077  0.00000 -0.42155
       4     C     3.28660  3.28660  0.00000 -0.57321
       5     C     3.14609  3.14609  0.00000 -0.29218
       6     H     0.41025  0.41025  0.00000  0.17950
       7     H     0.41022  0.41022  0.00000  0.17955
       8     C     3.16130  3.16130  0.00000 -0.32260
       9     H     0.41260  0.41260  0.00000  0.17480
      10     H     0.41251  0.41251  0.00000  0.17498
      11     C     3.15339  3.15339  0.00000 -0.30678
      12     H     0.42458  0.42458  0.00000  0.15085
      13     H     0.42019  0.42019  0.00000  0.15961
      14     C     3.15271  3.15271  0.00000 -0.30542
      15     H     0.41966  0.41966  0.00000  0.16067
      16     H     0.42130  0.42130  0.00000  0.15741
      17     C     3.24644  3.24644  0.00000 -0.49287
      18     H     0.41971  0.41971  0.00000  0.16057
      19     H     0.42174  0.42174  0.00000  0.15652
      20     H     0.42171  0.42171  0.00000  0.15658
      21     H     0.41841  0.41841  0.00000  0.16319
      22     H     0.41890  0.41890  0.00000  0.16219
      23     H     0.40878  0.40878  0.00000  0.18243
      24     H     0.39650  0.39650  0.00000  0.20701
      25     H     0.40874  0.40874  0.00000  0.18252

   Total alpha = 36.00000, Total beta = 36.00000, Total charge =  0.00000
