  ==> Input File <==

--------------------------------------------------------------------------
set {
	reference rhf
	basis 6-31G*
}

set_num_threads( 4 )
memory 2 gb

molecule MOL {
0 1

H	 3.536210	 0.916870	 -1.666649
N	 2.758747	 0.285419	 -1.647483
C	 1.701355	 0.794837	 -0.786124
H	 3.104457	 -0.588762	 -1.299458
C	 0.481670	 -0.119323	 -0.835451
H	 1.425915	 1.780061	 -1.149890
H	 2.017508	 0.921687	 0.252315
C	 -0.679275	 0.379305	 0.025956
H	 0.166863	 -0.215587	 -1.870567
H	 0.771353	 -1.117140	 -0.507151
C	 -1.903357	 -0.536963	 -0.023547
H	 -0.967307	 1.377714	 -0.299723
H	 -0.349777	 0.479628	 1.059016
C	 -3.225172	 0.228290	 0.028445
H	 -1.867824	 -1.134999	 -0.931459
H	 -1.860449	 -1.239604	 0.805977
H	 -3.313397	 0.915643	 -0.808262
H	 -4.073500	 -0.448134	 -0.008893
H	 -3.306061	 0.809945	 0.942516

	symmetry c1
}
set optking {
	frozen_dihedral = ("
		12 8 11 15
	")
}

ee = optimize('scf')
oeprop('DIPOLE', 'QUADRUPOLE', 'MULLIKEN_CHARGES')
f=open( 'psi4out.xyz', 'w' )
f.write( "19  " )
f.write( str(ee) + "\n" )
f.write( MOL.save_string_xyz() )
f.close()
--------------------------------------------------------------------------

    Molecular point group: c1
  Charge       = 0
  Multiplicity = 1
  Basis Set: 6-31G*
  Basis Set:
  @DF-RHF Final Energy:  -251.34793844174868
    Total Energy =                       -251.3479384417486244
    Molecular point group: c1
  Basis Set: 6-31G*
  Basis Set:
  Basis Set: 6-31G*
  Basis Set:
  @DF-RHF Final Energy:  -251.34822998250587
    Total Energy =                       -251.3482299825058135
  Basis Set: 6-31G*
  Basis Set:
  Basis Set: 6-31G*
  Basis Set:
  @DF-RHF Final Energy:  -251.34829726648999
    Total Energy =                       -251.3482972664901354
  Basis Set: 6-31G*
  Basis Set:
  Charge       = 0
  Multiplicity = 1
  Basis Set: 6-31G*
  Basis Set:

    Orbital Energies (a.u.)
    -----------------------

    Doubly Occupied:

       1A    -15.532536     2A    -11.239688     3A    -11.213635
       4A    -11.212391     5A    -11.209965     6A    -11.207770
       7A     -1.176619     8A     -1.071266     9A     -0.998488
      10A     -0.900053    11A     -0.814131    12A     -0.789700
      13A     -0.664859    14A     -0.636727    15A     -0.615724
      16A     -0.590131    17A     -0.571116    18A     -0.540084
      19A     -0.533740    20A     -0.496484    21A     -0.485973
      22A     -0.465677    23A     -0.454587    24A     -0.449025
      25A     -0.381005

  @DF-RHF Final Energy:  -251.34829764705609

   => Energetics <=

    Nuclear Repulsion Energy =            245.6336919588907790
    One-Electron Energy =                -825.4612359248501434
    Two-Electron Energy =                 328.4792463189033924
    DFT Exchange-Correlation Energy =       0.0000000000000000
    Empirical Dispersion Energy =           0.0000000000000000
    PCM Polarization Energy =               0.0000000000000000
    EFP Energy =                            0.0000000000000000
    Total Energy =                       -251.3482976470560288
    Molecular point group: c1
  Basis Set: 6-31G*
  Basis Set:

  -Total Gradient:
     Atom            X                  Y                   Z
    ------   -----------------  -----------------  -----------------
       1        0.000011063609    -0.000007839823     0.000007967603
       2        0.000026793341    -0.000021103642     0.000022540169
       3       -0.000066494167     0.000020524684     0.000027397967
       4        0.000013153452    -0.000003890599    -0.000006833394
       5       -0.000090199023    -0.000033665802    -0.000120471749
       6       -0.000000078490    -0.000015481275    -0.000008753809
       7       -0.000004613966     0.000016186055     0.000006388732
       8        0.001667355034    -0.002174858614    -0.004540615070
       9        0.000040985357     0.000055901460    -0.000022114567
      10       -0.000057703285     0.000003493471    -0.000005079165
      11       -0.003037392246     0.004041479135    -0.001550490272
      12       -0.000940824283     0.001054603288     0.004053363087
      13       -0.000055674758     0.000013348405     0.000068824220
      14        0.000038044035     0.000107181244    -0.000041864975
      15        0.002325802206    -0.002989181565     0.002090676785
      16        0.000059838348    -0.000021789199     0.000029564828
      17       -0.000022206555     0.000003462641    -0.000004910355
      18        0.000061026222    -0.000039804515     0.000011064468
      19        0.000031125173    -0.000008565351    -0.000016654502

  **** Optimization is complete! (in 4 steps) ****
    Final optimized geometry and variables:
    Molecular point group: c1

    Geometry (in Angstrom), charge = 0, multiplicity = 1:

    H            3.685889560600     0.708770865285    -1.056476502143
    N            2.896672967346     0.091847352058    -1.064967434431
    C            1.827013467877     0.610713989665    -0.224496359143
    H            3.217192733469    -0.792740250629    -0.719061593861
    C            0.592390080284    -0.279170991932    -0.316587256626
    H            1.579089968759     1.605449333462    -0.582393329868
    H            2.118625808505     0.718655129947     0.823137328259
    C           -0.581345310843     0.229833357921     0.518614244652
    H            0.302069400022    -0.358743431132    -1.360102487332
    H            0.853290559520    -1.286256351384     0.008477518523
    C           -1.803215678302    -0.705654299516     0.501327381503
    H           -0.875105403245     1.224960745896     0.189257129772
    H           -0.257801075302     0.363781268429     1.549675184444
    C           -3.136864711229     0.028187703376     0.618905352317
    H           -1.786453263175    -1.317446255285    -0.397574782182
    H           -1.714396852044    -1.414942033186     1.321450780530
    H           -3.292618225762     0.694048998825    -0.225067408083
    H           -3.968924344031    -0.668427852928     0.651233115077
    H           -3.173001349010     0.628997157307     1.523595310273

  Mulliken Charges: (a.u.)
   Center  Symbol    Alpha    Beta     Spin     Total
       1     H     0.33247  0.33247  0.00000  0.33506
       2     N     3.92189  3.92189  0.00000 -0.84378
       3     C     3.06067  3.06067  0.00000 -0.12134
       4     H     0.33537  0.33537  0.00000  0.32927
       5     C     3.15272  3.15272  0.00000 -0.30544
       6     H     0.42070  0.42070  0.00000  0.15860
       7     H     0.43467  0.43467  0.00000  0.13066
       8     C     3.15761  3.15761  0.00000 -0.31522
       9     H     0.41260  0.41260  0.00000  0.17481
      10     H     0.42733  0.42733  0.00000  0.14534
      11     C     3.15290  3.15290  0.00000 -0.30581
      12     H     0.42202  0.42202  0.00000  0.15595
      13     H     0.42353  0.42353  0.00000  0.15295
      14     C     3.23972  3.23972  0.00000 -0.47945
      15     H     0.42041  0.42041  0.00000  0.15917
      16     H     0.42232  0.42232  0.00000  0.15536
      17     H     0.42106  0.42106  0.00000  0.15787
      18     H     0.42004  0.42004  0.00000  0.15992
      19     H     0.42196  0.42196  0.00000  0.15608

   Total alpha = 25.00000, Total beta = 25.00000, Total charge =  0.00000
