                              Psi4 1.0.54 Driver

  ==> Input File <==

--------------------------------------------------------------------------
set {
	reference rhf
	basis cc-pvtz
}

set_num_threads( 4 )
memory 2 gb

molecule MOL {
0 1

O	 1.847685	 1.294399	 -0.000190
C	 1.704209	 0.119472	 -0.000093
C	 0.380337	 -0.600947	 -0.000234
O	 2.715427	 -0.733672	 0.000025
C	 -0.824290	 0.329213	 -0.000115
H	 0.371455	 -1.255476	 -0.865660
H	 0.371410	 -1.255787	 0.864952
C	 -1.910743	 -0.128078	 0.968659
H	 -1.228341	 0.390687	 -1.004225
H	 -0.501327	 1.332034	 0.255493
C	 -3.127262	 0.792977	 0.983141
H	 -2.228418	 -1.135331	 0.708324
H	 -1.498158	 -0.190704	 1.973194
C	 -4.213351	 0.335723	 1.950995
H	 -3.540738	 0.855508	 -0.019497
H	 -2.811389	 1.798960	 1.244640
H	 -4.574774	 -0.654695	 1.694716
H	 -5.061373	 1.010541	 1.936358
H	 -3.839777	 0.296595	 2.968908
C	 4.020999	 -0.192556	 0.000019
H	 4.182809	 0.412891	 -0.879449
H	 4.692590	 -1.035653	 0.000152
H	 4.182726	 0.413087	 0.879368

	symmetry c1
}
set optking {
	frozen_dihedral = ("
		9 5 3 6
	")
}

ee,wfn = optimize('scf', return_wfn=True)
oeprop( wfn, 'DIPOLE', 'QUADRUPOLE', 'MULLIKEN_CHARGES')
f=open( 'psi4out.xyz', 'w' )
f.write( "23  " )
f.write( str(ee) + "\n" )
f.write( MOL.save_string_xyz() )
f.close()
--------------------------------------------------------------------------

    Molecular point group: c1
  Charge       = 0
  Multiplicity = 1
  Basis Set: CC-PVTZ
  Basis Set:
  @DF-RHF Final Energy:  -423.12698649960760
    Total Energy =                       -423.1269864996075967
    Molecular point group: c1
  Basis Set: CC-PVTZ
  Basis Set:
  Basis Set: CC-PVTZ
  Basis Set:
  @DF-RHF Final Energy:  -423.12728548388066
    Total Energy =                       -423.1272854838813373
  Basis Set: CC-PVTZ
  Basis Set:
  Basis Set: CC-PVTZ
  Basis Set:
  @DF-RHF Final Energy:  -423.12724352083040
    Total Energy =                       -423.1272435208304614
  Basis Set: CC-PVTZ
  Basis Set:
  Basis Set: CC-PVTZ
  Basis Set:
  @DF-RHF Final Energy:  -423.12735649523034
    Total Energy =                       -423.1273564952307424
  Basis Set: CC-PVTZ
  Basis Set:
  Basis Set: CC-PVTZ
  Basis Set:
  @DF-RHF Final Energy:  -423.12736478170905
    Total Energy =                       -423.1273647817090477
  Basis Set: CC-PVTZ
  Basis Set:
  Basis Set: CC-PVTZ
  Basis Set:
  @DF-RHF Final Energy:  -423.12736590501083
    Total Energy =                       -423.1273659050109472
  Basis Set: CC-PVTZ
  Basis Set:
  Charge       = 0
  Multiplicity = 1
  Basis Set: CC-PVTZ
  Basis Set:

    Orbital Energies (a.u.)
    -----------------------

    Doubly Occupied:

       1A    -20.596372     2A    -20.534728     3A    -11.365117
       4A    -11.278585     5A    -11.233925     6A    -11.215894
       7A    -11.215088     8A    -11.213744     9A    -11.207245
      10A     -1.472594    11A     -1.366108    12A     -1.092611
      13A     -1.043944    14A     -0.987718    15A     -0.932238
      16A     -0.844418    17A     -0.795277    18A     -0.768947
      19A     -0.701289    20A     -0.685132    21A     -0.675915
      22A     -0.648326    23A     -0.611536    24A     -0.601008
      25A     -0.572215    26A     -0.559124    27A     -0.557456
      28A     -0.528204    29A     -0.524592    30A     -0.503088
      31A     -0.486213    32A     -0.468283    33A     -0.464752
      34A     -0.461612    35A     -0.458727    36A     -0.439697

  @DF-RHF Final Energy:  -423.12736626520564

   => Energetics <=

    Nuclear Repulsion Energy =            453.6977297446044304
    One-Electron Energy =               -1475.4267522949958220
    Two-Electron Energy =                 598.6016562851858680
    DFT Exchange-Correlation Energy =       0.0000000000000000
    Empirical Dispersion Energy =           0.0000000000000000
    PCM Polarization Energy =               0.0000000000000000
    EFP Energy =                            0.0000000000000000
    Total Energy =                       -423.1273662652055236
    Molecular point group: c1
  Basis Set: CC-PVTZ
  Basis Set:

  -Total Gradient:
     Atom            X                  Y                   Z
    ------   -----------------  -----------------  -----------------
       1        0.000001475009    -0.000002317639    -0.000028817391
       2        0.000022698280    -0.000001062619     0.000023707252
       3       -0.002269869158    -0.003014021008     0.001993097806
       4        0.000014545017    -0.000007895145     0.000003048946
       5        0.002459102660     0.003234675970    -0.001004494332
       6        0.001499755937     0.001969572918    -0.001463911239
       7        0.000004449936    -0.000002367777    -0.000028187307
       8       -0.000014897296     0.000006707952    -0.000009311416
       9       -0.001694334050    -0.002180257219     0.000527232045
      10       -0.000018965524    -0.000002990312    -0.000008608826
      11       -0.000004157263     0.000001395988     0.000008338634
      12       -0.000000958313    -0.000005310914     0.000002520554
      13        0.000004062107     0.000008743679    -0.000005000720
      14       -0.000002466529    -0.000004854598    -0.000009844560
      15       -0.000000821774     0.000000632274     0.000000381990
      16        0.000005268355    -0.000001410934     0.000002139115
      17       -0.000002166660    -0.000004138515     0.000001463299
      18        0.000000434881    -0.000000177047    -0.000002395877
      19        0.000002538636     0.000003212835     0.000001026332
      20       -0.000010398849    -0.000002789933     0.000000761492
      21       -0.000000374573     0.000005594689    -0.000006665531
      22        0.000003819243    -0.000005243123    -0.000001004273
      23        0.000001259938     0.000004300485     0.000004524005

  **** Optimization is complete! (in 7 steps) ****
    Final optimized geometry and variables:
    Molecular point group: c1

    Geometry (in Angstrom), charge = 0, multiplicity = 1:

    O            1.788928561504     1.174385525401    -0.388649636555
    C            1.620421927670     0.003321893229    -0.420463833059
    C            0.286171593872    -0.704789506426    -0.402726751955
    O            2.615277263169    -0.867441340378    -0.476134735988
    C           -0.928102278779     0.229165141643    -0.383421709820
    H            0.282558200737    -1.346901735941    -1.275728233403
    H            0.299410265519    -1.363951688035     0.457905591630
    C           -2.034716163575    -0.265079289995     0.547153670394
    H           -1.335284641281     0.307052240249    -1.385796032430
    H           -0.616714990144     1.221144693841    -0.088530402903
    C           -3.270385451733     0.629250559714     0.536815269555
    H           -2.322490566429    -1.276391406271     0.267567693030
    H           -1.647065415936    -0.328734028145     1.561363926950
    C           -4.370180941791     0.142923809731     1.474658425018
    H           -3.660950779976     0.689415905687    -0.475353186943
    H           -2.982147105823     1.639896512011     0.811800944048
    H           -4.703117586879    -0.853828661867     1.204515555960
    H           -5.232270763216     0.799068502510     1.442077285312
    H           -4.021357151280     0.106565693672     2.501359661449
    C            3.930455900812    -0.350730635402    -0.494994327930
    H            4.079886123961     0.280436014855    -1.358427263497
    H            4.585389515516    -1.205632430919    -0.541199992865
    H            4.128151622123     0.222253396311     0.398800848672

  Mulliken Charges: (a.u.)
   Center  Symbol    Alpha    Beta     Spin     Total
       1     O     4.19592  4.19592  0.00000 -0.39185
       2     C     2.80151  2.80151  0.00000  0.39698
       3     C     3.10860  3.10860  0.00000 -0.21720
       4     O     4.14742  4.14742  0.00000 -0.29484
       5     C     3.09329  3.09329  0.00000 -0.18658
       6     H     0.43579  0.43579  0.00000  0.12841
       7     H     0.43863  0.43863  0.00000  0.12274
       8     C     3.09053  3.09053  0.00000 -0.18106
       9     H     0.45278  0.45278  0.00000  0.09444
      10     H     0.43491  0.43491  0.00000  0.13017
      11     C     3.08496  3.08496  0.00000 -0.16993
      12     H     0.45475  0.45475  0.00000  0.09051
      13     H     0.45471  0.45471  0.00000  0.09059
      14     C     3.14986  3.14986  0.00000 -0.29971
      15     H     0.45440  0.45440  0.00000  0.09121
      16     H     0.45213  0.45213  0.00000  0.09574
      17     H     0.45567  0.45567  0.00000  0.08866
      18     H     0.44802  0.44802  0.00000  0.10397
      19     H     0.45498  0.45498  0.00000  0.09003
      20     C     3.03678  3.03678  0.00000 -0.07357
      21     H     0.45435  0.45435  0.00000  0.09131
      22     H     0.44553  0.44553  0.00000  0.10894
      23     H     0.45448  0.45448  0.00000  0.09105

   Total alpha = 36.00000, Total beta = 36.00000, Total charge = -0.00000

*** Psi4 exiting successfully. Buy a developer a beer!
