                              Psi4 1.0.54 Driver

  ==> Input File <==

--------------------------------------------------------------------------
set {
	reference rhf
	basis cc-pvtz
}

set_num_threads( 4 )
memory 2 gb

molecule MOL {
0 1

O	 0.609217	 1.326591	 -0.333134
C	 0.477297	 0.160484	 -0.176164
C	 1.600316	 -0.845509	 -0.150368
O	 -0.695554	 -0.422406	 0.000602
C	 2.973378	 -0.224097	 -0.349165
H	 1.386836	 -1.584439	 -0.914802
H	 1.538206	 -1.371669	 0.795800
H	 3.036101	 0.285535	 -1.301298
H	 3.736715	 -0.992135	 -0.321177
H	 3.188863	 0.500258	 0.424852
C	 -1.852370	 0.402254	 0.000718
C	 -3.063338	 -0.501097	 -0.000437
H	 -1.831732	 1.039442	 -0.872158
H	 -1.832493	 1.038301	 0.874430
H	 -3.071944	 -1.133732	 -0.879113
H	 -3.966302	 0.097976	 -0.000483
H	 -3.072764	 -1.134834	 0.877435

	symmetry c1
}
set optking {
	frozen_dihedral = ("
		2 4 11 13
	")
}

ee,wfn = optimize('scf', return_wfn=True)
oeprop( wfn, 'DIPOLE', 'QUADRUPOLE', 'MULLIKEN_CHARGES')
f=open( 'psi4out.xyz', 'w' )
f.write( "17  " )
f.write( str(ee) + "\n" )
f.write( MOL.save_string_xyz() )
f.close()
--------------------------------------------------------------------------

    Molecular point group: c1
  Charge       = 0
  Multiplicity = 1
  Basis Set: CC-PVTZ
  Basis Set:
  @DF-RHF Final Energy:  -345.04050219891644
    Total Energy =                       -345.0405021989164425
    Molecular point group: c1
  Basis Set: CC-PVTZ
  Basis Set:
  Basis Set: CC-PVTZ
  Basis Set:
  @DF-RHF Final Energy:  -345.04051141055220
    Total Energy =                       -345.0405114105524262
  Basis Set: CC-PVTZ
  Basis Set:
  Basis Set: CC-PVTZ
  Basis Set:
  @DF-RHF Final Energy:  -345.04046495212316
    Total Energy =                       -345.0404649521228180
  Basis Set: CC-PVTZ
  Basis Set:
  Basis Set: CC-PVTZ
  Basis Set:
  @DF-RHF Final Energy:  -345.04051900798470
    Total Energy =                       -345.0405190079854378
  Basis Set: CC-PVTZ
  Basis Set:
  Charge       = 0
  Multiplicity = 1
  Basis Set: CC-PVTZ
  Basis Set:

    Orbital Energies (a.u.)
    -----------------------

    Doubly Occupied:

       1A    -20.593384     2A    -20.532854     3A    -11.363557
       4A    -11.282491     5A    -11.235838     6A    -11.220430
       7A    -11.213789     8A     -1.470342     9A     -1.364900
      10A     -1.070875    11A     -1.032546    12A     -0.911972
      13A     -0.847768    14A     -0.774796    15A     -0.698503
      16A     -0.691946    17A     -0.667689    18A     -0.630277
      19A     -0.584658    20A     -0.573729    21A     -0.558646
      22A     -0.525123    23A     -0.520075    24A     -0.515163
      25A     -0.505532    26A     -0.493919    27A     -0.455763
      28A     -0.439257

  @DF-RHF Final Energy:  -345.04052054021372

   => Energetics <=

    Nuclear Repulsion Energy =            315.2109455330785295
    One-Electron Energy =               -1094.9512914296878989
    Two-Electron Energy =                 434.6998253563956496
    DFT Exchange-Correlation Energy =       0.0000000000000000
    Empirical Dispersion Energy =           0.0000000000000000
    PCM Polarization Energy =               0.0000000000000000
    EFP Energy =                            0.0000000000000000
    Total Energy =                       -345.0405205402137199
    Molecular point group: c1
  Basis Set: CC-PVTZ
  Basis Set:

  -Total Gradient:
     Atom            X                  Y                   Z
    ------   -----------------  -----------------  -----------------
       1       -0.000015281757    -0.000006675686     0.000009423752
       2       -0.000043275125    -0.000092628729    -0.000719895329
       3       -0.000002231883    -0.000001641230    -0.000013424813
       4        0.000186946713     0.000282222766     0.001127236160
       5        0.000001587070     0.000001053795     0.000004953203
       6        0.000000740333    -0.000002433374     0.000005703749
       7        0.000000591562     0.000002171586     0.000003831859
       8       -0.000000020813    -0.000000122787    -0.000000545423
       9       -0.000000914236     0.000000003165    -0.000000540598
      10       -0.000000191673    -0.000000848727    -0.000001895994
      11       -0.000536816913    -0.000738322366    -0.000859104650
      12       -0.000010437807    -0.000012647266     0.000009235528
      13        0.000407396887     0.000562176397     0.000440775018
      14        0.000003715748     0.000000946059     0.000002027761
      15        0.000007076993     0.000000468231    -0.000004187035
      16        0.000003627337     0.000003560553    -0.000000064068
      17       -0.000002512436     0.000002717612    -0.000003529120

  **** Optimization is complete! (in 5 steps) ****
    Final optimized geometry and variables:
    Molecular point group: c1

    Geometry (in Angstrom), charge = 0, multiplicity = 1:

    O            0.618866581134     1.338269698758    -0.176359278366
    C            0.484456659372     0.171263205183    -0.028580856052
    C            1.605750785423    -0.836852107201    -0.009446569117
    O           -0.689157708760    -0.411440367338     0.143987549347
    C            2.980102778914    -0.216370396994    -0.202191199630
    H            1.391826723661    -1.569900904776    -0.779360955955
    H            1.541769280355    -1.369710263360     0.932850140419
    H            3.044763072832     0.300146019308    -1.150476715424
    H            3.742064683099    -0.985925916008    -0.179065261759
    H            3.195981303725     0.501877470691     0.577367093622
    C           -1.848636764830     0.409594245425     0.132493926342
    C           -3.057953660708    -0.495632935382     0.142753764229
    H           -1.826991847670     1.042579412837    -0.742278558423
    H           -1.829562965316     1.052890529981     1.002044500498
    H           -3.070162243801    -1.132383485422    -0.732932957122
    H           -3.961873984377     0.101978528364     0.144923030197
    H           -3.061626407019    -1.125219243899     1.023607429953

  Mulliken Charges: (a.u.)
   Center  Symbol    Alpha    Beta     Spin     Total
       1     O     4.19703  4.19703  0.00000 -0.39407
       2     C     2.80867  2.80867  0.00000  0.38266
       3     C     3.09364  3.09364  0.00000 -0.18728
       4     O     4.15141  4.15141  0.00000 -0.30283
       5     C     3.13972  3.13972  0.00000 -0.27943
       6     H     0.44183  0.44183  0.00000  0.11633
       7     H     0.44147  0.44147  0.00000  0.11706
       8     H     0.44848  0.44848  0.00000  0.10303
       9     H     0.45058  0.45058  0.00000  0.09885
      10     H     0.44840  0.44840  0.00000  0.10319
      11     C     2.98099  2.98099  0.00000  0.03801
      12     C     3.13293  3.13293  0.00000 -0.26586
      13     H     0.45213  0.45213  0.00000  0.09574
      14     H     0.45542  0.45542  0.00000  0.08916
      15     H     0.45152  0.45152  0.00000  0.09695
      16     H     0.45444  0.45444  0.00000  0.09111
      17     H     0.45132  0.45132  0.00000  0.09736

   Total alpha = 28.00000, Total beta = 28.00000, Total charge = -0.00000

*** Psi4 exiting successfully. Buy a developer a beer!
