                              Psi4 1.0.54 Driver

  ==> Input File <==

--------------------------------------------------------------------------
set {
	reference rhf
	basis cc-pvtz
}

set_num_threads( 4 )
memory 2 gb

molecule MOL {
0 1

O	 3.219313	 0.959291	 -0.614106
C	 2.698710	 0.058177	 -0.050237
C	 1.246364	 -0.005813	 0.348416
O	 3.344101	 -1.038700	 0.312317
C	 0.453207	 1.232821	 -0.049003
H	 0.839270	 -0.907818	 -0.092281
H	 1.216683	 -0.160521	 1.422434
C	 -0.998367	 1.217982	 0.432195
H	 0.481498	 1.345443	 -1.127236
H	 0.951413	 2.105557	 0.354893
C	 -1.882951	 0.151251	 -0.211235
H	 -1.429490	 2.193659	 0.228843
H	 -1.019755	 1.099323	 1.513279
C	 -3.342450	 0.243269	 0.226009
H	 -1.826223	 0.246578	 -1.293162
H	 -1.508033	 -0.839650	 0.027695
C	 -4.234517	 -0.821434	 -0.405970
H	 -3.730149	 1.228245	 -0.022691
H	 -3.398860	 0.159952	 1.308941
C	 -3.921896	 -2.232291	 0.081398
H	 -5.274726	 -0.589808	 -0.193753
H	 -4.129033	 -0.782843	 -1.486822
H	 -4.571991	 -2.962833	 -0.386223
H	 -4.052495	 -2.313163	 1.155415
H	 -2.897477	 -2.507267	 -0.146993
C	 4.720529	 -1.114346	 0.001449
H	 4.874321	 -1.055557	 -1.065852
H	 5.057824	 -2.067950	 0.373977
H	 5.264321	 -0.313596	 0.480350

	symmetry c1
}
set optking {
	frozen_dihedral = ("
		21 17 14 11
	")
}

ee,wfn = optimize('scf', return_wfn=True)
oeprop( wfn, 'DIPOLE', 'QUADRUPOLE', 'MULLIKEN_CHARGES')
f=open( 'psi4out.xyz', 'w' )
f.write( "29  " )
f.write( str(ee) + "\n" )
f.write( MOL.save_string_xyz() )
f.close()
--------------------------------------------------------------------------

    Molecular point group: c1
  Charge       = 0
  Multiplicity = 1
  Basis Set: CC-PVTZ
  Basis Set:
  @DF-RHF Final Energy:  -501.22273359715894
    Total Energy =                       -501.2227335971592765
    Molecular point group: c1
  Basis Set: CC-PVTZ
  Basis Set:
  Basis Set: CC-PVTZ
  Basis Set:
  @DF-RHF Final Energy:  -501.16662015501697
    Total Energy =                       -501.1666201550169717
  Basis Set: CC-PVTZ
  Basis Set:
  Basis Set: CC-PVTZ
  Basis Set:
  @DF-RHF Final Energy:  -501.22042142749035
    Total Energy =                       -501.2204214274909191
  Basis Set: CC-PVTZ
  Basis Set:
  Basis Set: CC-PVTZ
  Basis Set:
  @DF-RHF Final Energy:  -501.22310661940446
    Total Energy =                       -501.2231066194041205
  Basis Set: CC-PVTZ
  Basis Set:
  @DF-RHF Final Energy:  -501.22314063846227
    Total Energy =                       -501.2231406384630645
  @DF-RHF Final Energy:  -501.22278237575756
    Total Energy =                       -501.2227823757575607
  Basis Set: CC-PVTZ
  Basis Set:
  @DF-RHF Final Energy:  -501.22318807039017
    Total Energy =                       -501.2231880703905063
  Basis Set: CC-PVTZ
  Basis Set:
  Basis Set: CC-PVTZ
  Basis Set:
  @DF-RHF Final Energy:  -501.22319017953714
    Total Energy =                       -501.2231901795373687
  Basis Set: CC-PVTZ
  Basis Set:
  Basis Set: CC-PVTZ
  Basis Set:
  @DF-RHF Final Energy:  -501.22319374628023
    Total Energy =                       -501.2231937462798896
  Basis Set: CC-PVTZ
  Basis Set:
  Charge       = 0
  Multiplicity = 1
  Basis Set: CC-PVTZ
  Basis Set:

    Orbital Energies (a.u.)
    -----------------------

    Doubly Occupied:

       1A    -20.596010     2A    -20.533865     3A    -11.364279
       4A    -11.278256     5A    -11.232999     6A    -11.217018
       7A    -11.215458     8A    -11.214321     9A    -11.213306
      10A    -11.212529    11A    -11.207390    12A     -1.471906
      13A     -1.365498    14A     -1.099266    15A     -1.067500
      16A     -1.019380    17A     -0.976883    18A     -0.929026
      19A     -0.870541    20A     -0.803170    21A     -0.780907
      22A     -0.765821    23A     -0.703056    24A     -0.685469
      25A     -0.676021    26A     -0.643429    27A     -0.632005
      28A     -0.607818    29A     -0.597043    30A     -0.591177
      31A     -0.558958    32A     -0.555702    33A     -0.537112
      34A     -0.525405    35A     -0.522784    36A     -0.510843
      37A     -0.496636    38A     -0.478274    39A     -0.473466
      40A     -0.462098    41A     -0.459925    42A     -0.451949
      43A     -0.444467    44A     -0.437875

  @DF-RHF Final Energy:  -501.22319635283736

   => Energetics <=

    Nuclear Repulsion Energy =            617.6661150059325109
    One-Electron Energy =               -1906.8049351162694620
    Two-Electron Energy =                 787.9156237574986790
    DFT Exchange-Correlation Energy =       0.0000000000000000
    Empirical Dispersion Energy =           0.0000000000000000
    PCM Polarization Energy =               0.0000000000000000
    EFP Energy =                            0.0000000000000000
    Total Energy =                       -501.2231963528381584
    Molecular point group: c1
  Basis Set: CC-PVTZ
  Basis Set:

  -Total Gradient:
     Atom            X                  Y                   Z
    ------   -----------------  -----------------  -----------------
       1       -0.000006667862    -0.000016070232     0.000008270602
       2        0.000009807794     0.000026152422    -0.000007153526
       3        0.000000848893     0.000000462411    -0.000001813862
       4       -0.000000064649    -0.000009268485    -0.000001313062
       5        0.000003109491    -0.000000144053     0.000005265649
       6       -0.000000465803     0.000002181926     0.000000168821
       7       -0.000001108425    -0.000001469125     0.000000908123
       8        0.000015144083    -0.000008842817    -0.000002730276
       9       -0.000002156207     0.000000800362     0.000001505646
      10        0.000004073012    -0.000000870918    -0.000001557700
      11       -0.000001522028     0.000131364479    -0.000223285692
      12       -0.000001456643    -0.000002622827    -0.000001318148
      13       -0.000004142121    -0.000001339965     0.000000263835
      14        0.000000241650    -0.000135000581     0.000244996408
      15        0.000002874087     0.000000808783    -0.000003105139
      16        0.000006370920     0.000007460241    -0.000001140275
      17       -0.000056155084    -0.000098658929     0.000288716069
      18        0.000007087217     0.000001225130     0.000004783943
      19        0.000001061216     0.000003075915    -0.000000727834
      20       -0.000015727313    -0.000005962163     0.000001244756
      21        0.000044559176     0.000105989872    -0.000314341696
      22       -0.000001319957     0.000002112279    -0.000001226588
      23       -0.000000499162    -0.000006454261     0.000003588149
      24        0.000001648619    -0.000000382244     0.000000948075
      25       -0.000007159451     0.000004195453    -0.000002350459
      26        0.000003120175     0.000002424499     0.000001328414
      27       -0.000002596651     0.000001055493    -0.000000180740
      28        0.000001586985    -0.000002128385     0.000000626800
      29       -0.000000491954    -0.000000094279    -0.000000370294

  **** Optimization is complete! (in 10 steps) ****
    Final optimized geometry and variables:
    Molecular point group: c1

    Geometry (in Angstrom), charge = 0, multiplicity = 1:

    O            3.268143594760     0.269245526798    -0.474144753837
    C            2.525038461628    -0.331339882430     0.224457566778
    C            1.071141895667    -0.001745728081     0.448162329268
    O            2.886690263736    -1.399128724665     0.917419189005
    C            0.599250646009     1.219661161749    -0.330835351267
    H            0.505341557034    -0.889848229069     0.193752582593
    H            0.936583400710     0.140192563824     1.515897007394
    C           -0.848483832970     1.617658991489    -0.039886742409
    H            0.723690757036     1.037352184702    -1.392613157531
    H            1.249907176525     2.052303346463    -0.093340095729
    C           -1.902683123351     0.617756345283    -0.513587691614
    H           -1.036954799693     2.573233658383    -0.519912495689
    H           -0.968758423981     1.788680528111     1.027661152116
    C           -3.329373569821     1.114653209680    -0.284979143518
    H           -1.758692486937     0.424619516061    -1.574456796293
    H           -1.763046907110    -0.330982795980    -0.007654007740
    C           -4.425035976880     0.180132760437    -0.801448994377
    H           -3.441258564425     2.079032702140    -0.772624166718
    H           -3.482945154256     1.293307959188     0.776945148201
    C           -4.550116823636    -1.138199191616    -0.041669356442
    H           -5.374987702665     0.703159160731    -0.750268989140
    H           -4.252145674972    -0.025770382141    -1.854559700543
    H           -5.381699715520    -1.722260391449    -0.419056380292
    H           -4.723301060380    -0.963124586435     1.015364152037
    H           -3.658409130595    -1.746536158888    -0.134124812923
    C            4.229984995580    -1.822649509465     0.802758605602
    H            4.463540409457    -2.077520233796    -0.220342606959
    H            4.322918892957    -2.691998329180     1.433250744724
    H            4.904113906786    -1.047261368195     1.135305117656

  Mulliken Charges: (a.u.)
   Center  Symbol    Alpha    Beta     Spin     Total
       1     O     4.19698  4.19698  0.00000 -0.39397
       2     C     2.80480  2.80480  0.00000  0.39039
       3     C     3.10156  3.10156  0.00000 -0.20313
       4     O     4.14725  4.14725  0.00000 -0.29450
       5     C     3.09229  3.09229  0.00000 -0.18458
       6     H     0.43967  0.43967  0.00000  0.12066
       7     H     0.43982  0.43982  0.00000  0.12036
       8     C     3.10280  3.10280  0.00000 -0.20561
       9     H     0.44629  0.44629  0.00000  0.10743
      10     H     0.43960  0.43960  0.00000  0.12079
      11     C     3.09500  3.09500  0.00000 -0.19001
      12     H     0.44516  0.44516  0.00000  0.10969
      13     H     0.45371  0.45371  0.00000  0.09259
      14     C     3.09486  3.09486  0.00000 -0.18972
      15     H     0.45315  0.45315  0.00000  0.09371
      16     H     0.45153  0.45153  0.00000  0.09694
      17     C     3.08961  3.08961  0.00000 -0.17922
      18     H     0.44864  0.44864  0.00000  0.10271
      19     H     0.45411  0.45411  0.00000  0.09178
      20     C     3.15245  3.15245  0.00000 -0.30489
      21     H     0.44824  0.44824  0.00000  0.10351
      22     H     0.45469  0.45469  0.00000  0.09062
      23     H     0.44595  0.44595  0.00000  0.10809
      24     H     0.45494  0.45494  0.00000  0.09013
      25     H     0.45484  0.45484  0.00000  0.09031
      26     C     3.03822  3.03822  0.00000 -0.07644
      27     H     0.45436  0.45436  0.00000  0.09129
      28     H     0.44526  0.44526  0.00000  0.10948
      29     H     0.45420  0.45420  0.00000  0.09159

   Total alpha = 44.00000, Total beta = 44.00000, Total charge =  0.00000

*** Psi4 exiting successfully. Buy a developer a beer!
