                              Psi4 1.0.54 Driver

  ==> Input File <==

--------------------------------------------------------------------------
set {
	reference rhf
	basis cc-pvtz
}

set_num_threads( 4 )
memory 2 gb

molecule MOL {
0 1

H	 3.273419	 0.176595	 -0.102789
N	 2.433987	 -0.362316	 -0.080024
C	 1.263552	 0.494993	 0.021953
H	 2.497638	 -0.973615	 0.707122
C	 -0.016533	 -0.325589	 -0.026925
H	 1.280915	 1.180773	 -0.818522
H	 1.263064	 1.106893	 0.925038
C	 -1.280353	 0.525521	 0.047747
H	 -0.016686	 -0.912532	 -0.939714
H	 -0.014099	 -1.037598	 0.796369
C	 -1.328422	 1.414988	 1.285700
H	 -2.151484	 -0.124110	 0.039042
H	 -1.354012	 1.144851	 -0.842129
H	 -1.290584	 0.822934	 2.193868
H	 -2.238414	 2.003361	 1.311848
H	 -0.489378	 2.102570	 1.306108

	symmetry c1
}
set optking {
	frozen_dihedral = ("
		12 8 5 9
	")
}

ee,wfn = optimize('scf', return_wfn=True)
oeprop( wfn, 'DIPOLE', 'QUADRUPOLE', 'MULLIKEN_CHARGES')
f=open( 'psi4out.xyz', 'w' )
f.write( "16  " )
f.write( str(ee) + "\n" )
f.write( MOL.save_string_xyz() )
f.close()
--------------------------------------------------------------------------

    Molecular point group: c1
  Charge       = 0
  Multiplicity = 1
  Basis Set: CC-PVTZ
  Basis Set:
  @DF-RHF Final Energy:  -212.39676361919177
    Total Energy =                       -212.3967636191918018
    Molecular point group: c1
  Basis Set: CC-PVTZ
  Basis Set:
  Basis Set: CC-PVTZ
  Basis Set:
  @DF-RHF Final Energy:  -212.39710018535595
    Total Energy =                       -212.3971001853559528
  Basis Set: CC-PVTZ
  Basis Set:
  Basis Set: CC-PVTZ
  Basis Set:
  @DF-RHF Final Energy:  -212.39804660736061
    Total Energy =                       -212.3980466073605839
  Basis Set: CC-PVTZ
  Basis Set:
  Basis Set: CC-PVTZ
  Basis Set:
  @DF-RHF Final Energy:  -212.39809502513066
    Total Energy =                       -212.3980950251305444
  Basis Set: CC-PVTZ
  Basis Set:
  Basis Set: CC-PVTZ
  Basis Set:
  @DF-RHF Final Energy:  -212.39809939652528
    Total Energy =                       -212.3980993965252537
  Basis Set: CC-PVTZ
  Basis Set:
  Charge       = 0
  Multiplicity = 1
  Basis Set: CC-PVTZ
  Basis Set:

    Orbital Energies (a.u.)
    -----------------------

    Doubly Occupied:

       1A    -15.526246     2A    -11.237313     3A    -11.213553
       4A    -11.208356     5A    -11.206541     6A     -1.177916
       7A     -1.059656     8A     -0.956027     9A     -0.859707
      10A     -0.779646    11A     -0.655704    12A     -0.640006
      13A     -0.622804    14A     -0.568089    15A     -0.560967
      16A     -0.536102    17A     -0.502795    18A     -0.467464
      19A     -0.465427    20A     -0.459836    21A     -0.383293

  @DF-RHF Final Energy:  -212.39809975903191

   => Energetics <=

    Nuclear Repulsion Energy =            189.0422176245873231
    One-Electron Energy =                -660.7057372071124064
    Two-Electron Energy =                 259.2654198234933460
    DFT Exchange-Correlation Energy =       0.0000000000000000
    Empirical Dispersion Energy =           0.0000000000000000
    PCM Polarization Energy =               0.0000000000000000
    EFP Energy =                            0.0000000000000000
    Total Energy =                       -212.3980997590317088
    Molecular point group: c1
  Basis Set: CC-PVTZ
  Basis Set:

  -Total Gradient:
     Atom            X                  Y                   Z
    ------   -----------------  -----------------  -----------------
       1       -0.000006182691     0.000003026897    -0.000007086654
       2       -0.000002965606    -0.000011897035     0.000013643703
       3       -0.000003639510     0.000003292595    -0.000014166883
       4        0.000007547857     0.000004331117     0.000000369728
       5       -0.000933710529    -0.001635135275     0.001477362962
       6        0.000006903935     0.000005813566     0.000001726728
       7       -0.000002621242    -0.000000822509     0.000006013314
       8        0.000092264731     0.000355470595    -0.002341815700
       9        0.000764269596     0.001328907608    -0.000881411459
      10       -0.000000574201    -0.000003341527    -0.000000827276
      11        0.000002211479    -0.000007995491    -0.000006286135
      12        0.000068697388    -0.000040986182     0.001755920107
      13        0.000001923374     0.000002668184    -0.000001600332
      14        0.000002153857    -0.000001240957     0.000003323014
      15       -0.000001568734    -0.000004207505    -0.000002176108
      16        0.000005290296     0.000002115920    -0.000002989009

  **** Optimization is complete! (in 6 steps) ****
    Final optimized geometry and variables:
    Molecular point group: c1

    Geometry (in Angstrom), charge = 0, multiplicity = 1:

    H            3.033611400731    -0.132201248044    -0.540133020412
    N            2.199168410311    -0.677374369508    -0.491003140433
    C            1.037173884458     0.167131337886    -0.254148441058
    H            2.320254247917    -1.331002584506     0.254569358131
    C           -0.233367866339    -0.673360688312    -0.228608925993
    H            0.975185579865     0.881776286237    -1.068924490618
    H            1.122159711976     0.743760654932     0.664818595500
    C           -1.533713306056     0.128310015301    -0.153505753226
    H           -0.239145645682    -1.273395181466    -1.131792787707
    H           -0.185846517843    -1.365005560017     0.610306145793
    C           -1.661348610881     1.042734326716     1.064027183038
    H           -2.361102760763    -0.574025925825    -0.135460483967
    H           -1.647019259370     0.717022679547    -1.059417007519
    H           -1.517589143349     0.487882587426     1.985967063167
    H           -2.646834644931     1.492742299229     1.101739439887
    H           -0.937414834363     1.848284533979     1.047183391445

  Mulliken Charges: (a.u.)
   Center  Symbol    Alpha    Beta     Spin     Total
       1     H     0.43009  0.43009  0.00000  0.13982
       2     N     3.69062  3.69062  0.00000 -0.38125
       3     C     3.02689  3.02689  0.00000 -0.05378
       4     H     0.43081  0.43081  0.00000  0.13837
       5     C     3.09056  3.09056  0.00000 -0.18111
       6     H     0.45725  0.45725  0.00000  0.08551
       7     H     0.46487  0.46487  0.00000  0.07025
       8     C     3.09377  3.09377  0.00000 -0.18754
       9     H     0.44416  0.44416  0.00000  0.11169
      10     H     0.45882  0.45882  0.00000  0.08236
      11     C     3.15470  3.15470  0.00000 -0.30940
      12     H     0.44898  0.44898  0.00000  0.10204
      13     H     0.45300  0.45300  0.00000  0.09400
      14     H     0.45505  0.45505  0.00000  0.08991
      15     H     0.44620  0.44620  0.00000  0.10761
      16     H     0.45424  0.45424  0.00000  0.09151

   Total alpha = 21.00000, Total beta = 21.00000, Total charge =  0.00000

*** Psi4 exiting successfully. Buy a developer a beer!
