  ==> Input File <==

--------------------------------------------------------------------------
set {
	reference rhf
	basis 6-31G*
}

set_num_threads( 4 )
memory 2 gb

molecule MOL {
0 1

H	 -2.499100	 -0.730091	 -0.745082
O	 -2.347518	 -0.290803	 0.079804
C	 -1.184022	 0.487508	 -0.006784
C	 0.062599	 -0.378592	 0.031606
H	 -1.176523	 1.099369	 -0.904519
H	 -1.187323	 1.153111	 0.844927
O	 1.137349	 0.394948	 -0.400052
H	 -0.066509	 -1.249772	 -0.613651
H	 0.222506	 -0.744014	 1.044266
C	 2.364541	 -0.263047	 -0.386480
H	 2.357447	 -1.131834	 -1.042062
H	 3.112940	 0.434108	 -0.736876
H	 2.628775	 -0.590043	 0.617036

	symmetry c1
}
set optking {
	frozen_dihedral = ("
		8 4 3 5
	")
}

ee = optimize('scf')
oeprop('DIPOLE', 'QUADRUPOLE', 'MULLIKEN_CHARGES')
f=open( 'psi4out.xyz', 'w' )
f.write( "13  " )
f.write( str(ee) + "\n" )
f.write( MOL.save_string_xyz() )
f.close()
--------------------------------------------------------------------------

    Molecular point group: c1
  Charge       = 0
  Multiplicity = 1
  Basis Set: 6-31G*
  Basis Set:
  @DF-RHF Final Energy:  -267.94962606552872
    Total Energy =                       -267.9496260655286051
    Molecular point group: c1
  Basis Set: 6-31G*
  Basis Set:
  Basis Set: 6-31G*
  Basis Set:
  @DF-RHF Final Energy:  -267.94975608211973
    Total Energy =                       -267.9497560821200750
  Basis Set: 6-31G*
  Basis Set:
  Basis Set: 6-31G*
  Basis Set:
  @DF-RHF Final Energy:  -267.94980187430883
    Total Energy =                       -267.9498018743087187
  Basis Set: 6-31G*
  Basis Set:
  Basis Set: 6-31G*
  Basis Set:
  @DF-RHF Final Energy:  -267.94980289556770
    Total Energy =                       -267.9498028955679274
  Basis Set: 6-31G*
  Basis Set:
  Charge       = 0
  Multiplicity = 1
  Basis Set: 6-31G*
  Basis Set:

    Orbital Energies (a.u.)
    -----------------------

    Doubly Occupied:

       1A    -20.563346     2A    -20.560365     3A    -11.271401
       4A    -11.270800     5A    -11.268917     6A     -1.389707
       7A     -1.365704     8A     -1.018250     9A     -0.914113
      10A     -0.842611    11A     -0.708787    12A     -0.675951
      13A     -0.660459    14A     -0.634347    15A     -0.601960
      16A     -0.568325    17A     -0.543406    18A     -0.490341
      19A     -0.482164    20A     -0.438342    21A     -0.422032

  @DF-RHF Final Energy:  -267.94980300349300

   => Energetics <=

    Nuclear Repulsion Energy =            190.2040700518611231
    One-Electron Energy =                -742.9250948718959080
    Two-Electron Energy =                 284.7712218165419813
    DFT Exchange-Correlation Energy =       0.0000000000000000
    Empirical Dispersion Energy =           0.0000000000000000
    PCM Polarization Energy =               0.0000000000000000
    EFP Energy =                            0.0000000000000000
    Total Energy =                       -267.9498030034928320
    Molecular point group: c1
  Basis Set: 6-31G*
  Basis Set:

  -Total Gradient:
     Atom            X                  Y                   Z
    ------   -----------------  -----------------  -----------------
       1       -0.000004409808    -0.000002025045    -0.000000725887
       2       -0.000002650862    -0.000002167467    -0.000010488492
       3       -0.002155940990    -0.003162017482    -0.001282807549
       4        0.001761055935     0.002548950776    -0.002636429338
       5        0.001537409287     0.002222233248     0.001526999645
       6        0.000003186293     0.000003334545     0.000004391774
       7        0.000011187695    -0.000005187790     0.000006851941
       8       -0.001154659663    -0.001621563710     0.002387478745
       9        0.000005002104     0.000016812337     0.000001390109
      10       -0.000001632908     0.000000211444     0.000008325190
      11       -0.000000714616     0.000000492817    -0.000003322041
      12       -0.000001480076     0.000000757445    -0.000001714739
      13        0.000003647619     0.000000168882     0.000000050641

  **** Optimization is complete! (in 5 steps) ****
    Final optimized geometry and variables:
    Molecular point group: c1

    Geometry (in Angstrom), charge = 0, multiplicity = 1:

    H           -2.503525882739    -0.717006533425    -0.553665999866
    O           -2.339533907484    -0.254107157705     0.255972901517
    C           -1.172664534700     0.510686400798     0.131756932455
    C            0.075243818886    -0.359029297850     0.145149622471
    H           -1.170338266932     1.125744404308    -0.763817274497
    H           -1.155874549247     1.185603881260     0.976655287056
    O            1.153843240167     0.416694006786    -0.269729431384
    H           -0.067889372284    -1.224160489282    -0.505230635735
    H            0.241395959806    -0.750644348372     1.147590714356
    C            2.383756892805    -0.235593148398    -0.228072125595
    H            2.391577400970    -1.109795825887    -0.876276000848
    H            3.135049127521     0.462072504858    -0.571211491693
    H            2.631192418663    -0.552772761176     0.782818329169

  Mulliken Charges: (a.u.)
   Center  Symbol    Alpha    Beta     Spin     Total
       1     H     0.28115  0.28115  0.00000  0.43770
       2     O     4.37051  4.37051  0.00000 -0.74101
       3     C     3.00545  3.00545  0.00000 -0.01089
       4     C     2.99712  2.99712  0.00000  0.00576
       5     H     0.41989  0.41989  0.00000  0.16022
       6     H     0.41017  0.41017  0.00000  0.17965
       7     O     4.30709  4.30709  0.00000 -0.61417
       8     H     0.43636  0.43636  0.00000  0.12727
       9     H     0.42480  0.42480  0.00000  0.15041
      10     C     3.08033  3.08033  0.00000 -0.16066
      11     H     0.42891  0.42891  0.00000  0.14217
      12     H     0.41064  0.41064  0.00000  0.17871
      13     H     0.42758  0.42758  0.00000  0.14484

   Total alpha = 21.00000, Total beta = 21.00000, Total charge =  0.00000
