                              Psi4 1.0.54 Driver

  ==> Input File <==

--------------------------------------------------------------------------
set {
	reference rhf
	basis cc-pvtz
}

set_num_threads( 4 )
memory 2 gb

molecule MOL {
0 1

H	 2.121305	 -1.182617	 0.883388
O	 2.012307	 -0.863440	 0.000222
C	 1.050374	 0.054877	 0.000135
C	 -0.318151	 -0.570512	 0.000144
O	 1.286319	 1.213453	 -0.000040
C	 -1.454884	 0.441630	 -0.000560
H	 -0.371613	 -1.223646	 -0.864985
H	 -0.371920	 -1.222758	 0.865929
C	 -2.822577	 -0.232186	 0.000063
H	 -1.359760	 1.084704	 -0.867077
H	 -1.359641	 1.085996	 0.864983
H	 -2.954352	 -0.858985	 -0.875745
H	 -3.615886	 0.505352	 0.000019
H	 -2.953878	 -0.858359	 0.876394

	symmetry c1
}
set optking {
	frozen_dihedral = ("
		1 2 3 5
	")
}

ee,wfn = optimize('scf', return_wfn=True)
oeprop( wfn, 'DIPOLE', 'QUADRUPOLE', 'MULLIKEN_CHARGES')
f=open( 'psi4out.xyz', 'w' )
f.write( "14  " )
f.write( str(ee) + "\n" )
f.write( MOL.save_string_xyz() )
f.close()
--------------------------------------------------------------------------

    Molecular point group: c1
  Charge       = 0
  Multiplicity = 1
  Basis Set: CC-PVTZ
  Basis Set:
  @DF-RHF Final Energy:  -305.97947111113319
    Total Energy =                       -305.9794711111331367
    Molecular point group: c1
  Basis Set: CC-PVTZ
  Basis Set:
  Basis Set: CC-PVTZ
  Basis Set:
  @DF-RHF Final Energy:  -305.98054145271453
    Total Energy =                       -305.9805414527143057
  Basis Set: CC-PVTZ
  Basis Set:
  Basis Set: CC-PVTZ
  Basis Set:
  @DF-RHF Final Energy:  -305.97921778605206
    Total Energy =                       -305.9792177860518336
  Basis Set: CC-PVTZ
  Basis Set:
  Basis Set: CC-PVTZ
  Basis Set:
  @DF-RHF Final Energy:  -305.98111250266413
    Total Energy =                       -305.9811125026641889
  Basis Set: CC-PVTZ
  Basis Set:
  Basis Set: CC-PVTZ
  Basis Set:
  @DF-RHF Final Energy:  -305.98113995663078
    Total Energy =                       -305.9811399566306136
  Basis Set: CC-PVTZ
  Basis Set:
  Charge       = 0
  Multiplicity = 1
  Basis Set: CC-PVTZ
  Basis Set:

    Orbital Energies (a.u.)
    -----------------------

    Doubly Occupied:

       1A    -20.586655     2A    -20.550783     3A    -11.374544
       4A    -11.243287     5A    -11.226150     6A    -11.217778
       7A     -1.463723     8A     -1.371290     9A     -1.085333
      10A     -0.977956    11A     -0.853144    12A     -0.802526
      13A     -0.715529    14A     -0.677246    15A     -0.665853
      16A     -0.632350    17A     -0.580811    18A     -0.561453
      19A     -0.545572    20A     -0.509676    21A     -0.499585
      22A     -0.485563    23A     -0.484988    24A     -0.447619

  @DF-RHF Final Energy:  -305.98114055344752

   => Energetics <=

    Nuclear Repulsion Energy =            239.6561594506093797
    One-Electron Energy =                -892.1557711922448561
    Two-Electron Energy =                 346.5184711881877888
    DFT Exchange-Correlation Energy =       0.0000000000000000
    Empirical Dispersion Energy =           0.0000000000000000
    PCM Polarization Energy =               0.0000000000000000
    EFP Energy =                            0.0000000000000000
    Total Energy =                       -305.9811405534476876
    Molecular point group: c1
  Basis Set: CC-PVTZ
  Basis Set:

  -Total Gradient:
     Atom            X                  Y                   Z
    ------   -----------------  -----------------  -----------------
       1        0.000607546292     0.000648916973     0.000061406243
       2       -0.000830630851    -0.000687410103     0.000277732845
       3        0.000171757760    -0.000057062392    -0.001126444925
       4        0.000023884592     0.000038027484    -0.000026363479
       5        0.000061988569     0.000078065100     0.000787270865
       6       -0.000009461907     0.000007066391     0.000014884857
       7       -0.000011098256    -0.000010855618     0.000010745128
       8       -0.000008206780    -0.000004507053     0.000009239361
       9       -0.000003501206     0.000000918489    -0.000003482627
      10        0.000000310143    -0.000003900114     0.000002861741
      11        0.000002315037    -0.000008175888    -0.000008406432
      12       -0.000001273503    -0.000000774921    -0.000000191416
      13       -0.000003560604    -0.000001941469    -0.000000227057
      14       -0.000000069281     0.000001633122     0.000000974895

  **** Optimization is complete! (in 6 steps) ****
    Final optimized geometry and variables:
    Molecular point group: c1

    Geometry (in Angstrom), charge = 0, multiplicity = 1:

    H            2.258700782208    -1.184274194162     0.819146218735
    O            2.051621615314    -0.873017609960    -0.046230216138
    C            1.055144680586     0.051889252670    -0.028786145162
    C           -0.323966106478    -0.552423248589     0.023050491375
    O            1.289311843791     1.199760017093    -0.095728245498
    C           -1.453831925264     0.466979422136     0.025443399260
    H           -0.401565417854    -1.227003863535    -0.823951345971
    H           -0.369740894744    -1.187892835339     0.904227592623
    C           -2.826798697273    -0.194577643930     0.071641619142
    H           -1.371946003345     1.088530741580    -0.857758586080
    H           -1.334619195768     1.131072724656     0.873307280511
    H           -2.982589187489    -0.840361798913    -0.786151760523
    H           -3.613858061508     0.549555816689     0.071290609887
    H           -2.944703011535    -0.798934469738     0.965192558866

  Mulliken Charges: (a.u.)
   Center  Symbol    Alpha    Beta     Spin     Total
       1     H     0.38940  0.38940  0.00000  0.22120
       2     O     4.17266  4.17266  0.00000 -0.34533
       3     C     2.80106  2.80106  0.00000  0.39789
       4     C     3.11246  3.11246  0.00000 -0.22492
       5     O     4.16016  4.16016  0.00000 -0.32032
       6     C     3.08073  3.08073  0.00000 -0.16145
       7     H     0.43675  0.43675  0.00000  0.12650
       8     H     0.44972  0.44972  0.00000  0.10055
       9     C     3.15022  3.15022  0.00000 -0.30044
      10     H     0.44411  0.44411  0.00000  0.11178
      11     H     0.44702  0.44702  0.00000  0.10595
      12     H     0.45482  0.45482  0.00000  0.09036
      13     H     0.44460  0.44460  0.00000  0.11079
      14     H     0.45628  0.45628  0.00000  0.08743

   Total alpha = 24.00000, Total beta = 24.00000, Total charge =  0.00000

*** Psi4 exiting successfully. Buy a developer a beer!
