  ==> Input File <==

--------------------------------------------------------------------------
set {
	reference rhf
	basis 6-31G*
}

set_num_threads( 1 )
memory 2 gb

molecule MOL {
0 1

H	 1.322632	 -2.270387	 2.679561
O	 1.383405	 -1.962177	 1.780635
C	 0.590359	 -0.898494	 1.653856
C	 0.624473	 -0.343591	 0.253101
O	 -0.047381	 -0.474611	 2.561945
C	 -0.265902	 0.883932	 0.072916
H	 1.663163	 -0.132061	 0.021260
H	 0.327854	 -1.145752	 -0.417948
C	 -1.728698	 0.646073	 0.462102
H	 -0.209144	 1.219470	 -0.958188
H	 0.135059	 1.692851	 0.673903
C	 -2.482460	 -0.343073	 -0.431425
H	 -2.245265	 1.602650	 0.432430
H	 -1.779332	 0.308348	 1.496285
C	 -3.960546	 -0.461025	 -0.060175
H	 -2.395034	 -0.026811	 -1.468912
H	 -2.024850	 -1.327147	 -0.371646
H	 -4.472726	 -1.168004	 -0.705284
H	 -4.465146	 0.496508	 -0.151489
H	 -4.081218	 -0.800940	 0.964585

	symmetry c1
}
set optking {
	frozen_dihedral = ("
		16 12 9 6,
		12 9 6 10,
		5 3 4 7,
		1 2 3 5
	")
}

ee = energy('scf')
oeprop('DIPOLE', 'QUADRUPOLE', 'MULLIKEN_CHARGES')
f=open( 'psi4out.xyz', 'w' )
f.write( "20  " )
f.write( str(ee) + "\n" )
f.write( MOL.save_string_xyz() )
f.close()
--------------------------------------------------------------------------

    Molecular point group: c1

    Geometry (in Angstrom), charge = 0, multiplicity = 1:

       Center              X                  Y                   Z               Mass
    ------------   -----------------  -----------------  -----------------  -----------------
           H          2.043407503170    -1.867800298711     1.860536438027     1.007825032070
           O          2.104180503170    -1.559590298711     0.961610438027    15.994914619560
           C          1.311134503170    -0.495907298711     0.834831438027    12.000000000000
           C          1.345248503170     0.058995701289    -0.565923561973    12.000000000000
           O          0.673394503170    -0.072024298711     1.742920438027    15.994914619560
           C          0.454873503170     1.286518701289    -0.746108561973    12.000000000000
           H          2.383938503170     0.270525701289    -0.797764561973     1.007825032070
           H          1.048629503170    -0.743165298711    -1.236972561973     1.007825032070
           C         -1.007922496830     1.048659701289    -0.356922561973    12.000000000000
           H          0.511631503170     1.622056701289    -1.777212561973     1.007825032070
           H          0.855834503170     2.095437701289    -0.145121561973     1.007825032070
           C         -1.761684496830     0.059513701289    -1.250449561973    12.000000000000
           H         -1.524489496830     2.005236701289    -0.386594561973     1.007825032070
           H         -1.058556496830     0.710934701289     0.677260438027     1.007825032070
           C         -3.239770496830    -0.058438298711    -0.879199561973    12.000000000000
           H         -1.674258496830     0.375775701289    -2.287936561973     1.007825032070
           H         -1.304074496830    -0.924560298711    -1.190670561973     1.007825032070
           H         -3.751950496830    -0.765417298711    -1.524308561973     1.007825032070
           H         -3.744370496830     0.899094701289    -0.970513561973     1.007825032070
           H         -3.360442496830    -0.398353298711     0.145560438027     1.007825032070

  Charge       = 0
  Multiplicity = 1
  Basis Set: 6-31G*
  Basis Set:

    Orbital Energies (a.u.)
    -----------------------

    Doubly Occupied:

       1A    -20.614505     2A    -20.553677     3A    -11.383587
       4A    -11.240672     5A    -11.222927     6A    -11.213653
       7A    -11.206383     8A    -11.204683     9A     -1.477212
      10A     -1.369090    11A     -1.092443    12A     -1.036362
      13A     -0.955798    14A     -0.868605    15A     -0.812867
      16A     -0.773853    17A     -0.704185    18A     -0.687566
      19A     -0.663325    20A     -0.630737    21A     -0.602546
      22A     -0.591892    23A     -0.572513    24A     -0.551336
      25A     -0.529432    26A     -0.513093    27A     -0.502797
      28A     -0.483601    29A     -0.469853    30A     -0.459156
      31A     -0.450238    32A     -0.430691

  @DF-RHF Final Energy:  -383.94439907873272

   => Energetics <=

    Nuclear Repulsion Energy =            390.5906867316070361
    One-Electron Energy =               -1297.3316219882394762
    Two-Electron Energy =                 522.7965361779001796
    DFT Exchange-Correlation Energy =       0.0000000000000000
    Empirical Dispersion Energy =           0.0000000000000000
    PCM Polarization Energy =               0.0000000000000000
    EFP Energy =                            0.0000000000000000
    Total Energy =                       -383.9443990787322036

  Mulliken Charges: (a.u.)
   Center  Symbol    Alpha    Beta     Spin     Total
       1     H     0.26785  0.26785  0.00000  0.46429
       2     O     4.35100  4.35100  0.00000 -0.70200
       3     C     2.62223  2.62223  0.00000  0.75554
       4     C     3.21459  3.21459  0.00000 -0.42917
       5     O     4.27953  4.27953  0.00000 -0.55906
       6     C     3.15560  3.15560  0.00000 -0.31121
       7     H     0.39541  0.39541  0.00000  0.20918
       8     H     0.39663  0.39663  0.00000  0.20673
       9     C     3.16792  3.16792  0.00000 -0.33583
      10     H     0.41739  0.41739  0.00000  0.16522
      11     H     0.41183  0.41183  0.00000  0.17633
      12     C     3.15287  3.15287  0.00000 -0.30575
      13     H     0.42325  0.42325  0.00000  0.15349
      14     H     0.39125  0.39125  0.00000  0.21750
      15     C     3.23872  3.23872  0.00000 -0.47744
      16     H     0.42566  0.42566  0.00000  0.14867
      17     H     0.42696  0.42696  0.00000  0.14608
      18     H     0.42037  0.42037  0.00000  0.15925
      19     H     0.42147  0.42147  0.00000  0.15706
      20     H     0.41944  0.41944  0.00000  0.16111

   Total alpha = 32.00000, Total beta = 32.00000, Total charge = -0.00000
