  ==> Input File <==

--------------------------------------------------------------------------
set {
	reference rhf
	basis 6-31G*
}

set_num_threads( 4 )
memory 2 gb

molecule MOL {
0 1

H	 -3.407059	 -1.043082	 0.000000
O	 -3.119761	 -0.140267	 0.000000
C	 -1.777559	 -0.059267	 0.000000
C	 -0.970776	 -1.119373	 0.402835
C	 -1.210131	 1.136558	 -0.422013
H	 -1.418619	 -2.042785	 0.728500
C	 0.400994	 -0.979250	 0.382003
H	 -1.853479	 1.939573	 -0.727861
C	 0.163413	 1.261380	 -0.437247
H	 1.035513	 -1.788925	 0.690078
C	 0.984585	 0.211707	 -0.037887
H	 0.603640	 2.187861	 -0.764194
C	 2.453100	 0.360043	 -0.059581
O	 3.226178	 -0.487106	 0.265146
H	 2.813782	 1.334367	 -0.405654

	symmetry c1
}
set optking {
	frozen_dihedral = ("
		5 3 2 1
	")
}

ee = optimize('scf')
oeprop('DIPOLE', 'QUADRUPOLE', 'MULLIKEN_CHARGES')
f=open( 'psi4out.xyz', 'w' )
f.write( "15  " )
f.write( str(ee) + "\n" )
f.write( MOL.save_string_xyz() )
f.close()
--------------------------------------------------------------------------

    Molecular point group: c1
  Charge       = 0
  Multiplicity = 1
  Basis Set: 6-31G*
  Basis Set:
  @DF-RHF Final Energy:  -418.28923299161534
    Total Energy =                       -418.2892329916157905
    Molecular point group: c1
  Basis Set: 6-31G*
  Basis Set:
  Basis Set: 6-31G*
  Basis Set:
  @DF-RHF Final Energy:  -418.28925103908637
    Total Energy =                       -418.2892510390862526
  Basis Set: 6-31G*
  Basis Set:
  Basis Set: 6-31G*
  Basis Set:
  @DF-RHF Final Energy:  -418.28925413795582
    Total Energy =                       -418.2892541379560498
  Basis Set: 6-31G*
  Basis Set:
  Basis Set: 6-31G*
  Basis Set:
  @DF-RHF Final Energy:  -418.28922417719667
    Total Energy =                       -418.2892241771971840
  Basis Set: 6-31G*
  Basis Set:
  Charge       = 0
  Multiplicity = 1
  Basis Set: 6-31G*
  Basis Set:

    Orbital Energies (a.u.)
    -----------------------

    Doubly Occupied:

       1A    -20.608882     2A    -20.556318     3A    -11.328341
       4A    -11.322662     5A    -11.260645     6A    -11.256518
       7A    -11.244275     8A    -11.239355     9A    -11.239095
      10A     -1.429611    11A     -1.397506    12A     -1.170626
      13A     -1.041518    14A     -1.038503    15A     -0.888496
      16A     -0.866395    17A     -0.794488    18A     -0.756778
      19A     -0.713296    20A     -0.665869    21A     -0.642605
      22A     -0.628237    23A     -0.612311    24A     -0.607667
      25A     -0.575520    26A     -0.556958    27A     -0.549280
      28A     -0.505686    29A     -0.483745    30A     -0.418925
      31A     -0.357698    32A     -0.327896

  @DF-RHF Final Energy:  -418.28925507584165

   => Energetics <=

    Nuclear Repulsion Energy =            401.3005716066510331
    One-Electron Energy =               -1365.0082437144819778
    Two-Electron Energy =                 545.4184170319896339
    DFT Exchange-Correlation Energy =       0.0000000000000000
    Empirical Dispersion Energy =           0.0000000000000000
    PCM Polarization Energy =               0.0000000000000000
    EFP Energy =                            0.0000000000000000
    Total Energy =                       -418.2892550758413108
    Molecular point group: c1
  Basis Set: 6-31G*
  Basis Set:

  -Total Gradient:
     Atom            X                  Y                   Z
    ------   -----------------  -----------------  -----------------
       1        0.000002454538    -0.000001306200    -0.002467997825
       2        0.000001603683    -0.000279431526     0.002297729713
       3       -0.000040028900     0.000818904109     0.001865646969
       4       -0.000074478091     0.000029287659    -0.000029572897
       5        0.000128177426    -0.000570574842    -0.001661187261
       6        0.000005388557     0.000004815918     0.000006542350
       7        0.000077617915     0.000063330909    -0.000002623089
       8       -0.000012329751    -0.000002063364    -0.000010319941
       9       -0.000089957183     0.000044167884    -0.000033124150
      10       -0.000005673662    -0.000010982216    -0.000008019852
      11        0.000006202766    -0.000103267786     0.000032885565
      12        0.000000448634    -0.000000639937     0.000006195265
      13       -0.000014139115     0.000019915763     0.000005343352
      14        0.000010982365    -0.000008305067    -0.000001425660
      15        0.000003730826    -0.000003851303    -0.000000072539

  **** Optimization is complete! (in 5 steps) ****
    Final optimized geometry and variables:
    Molecular point group: c1

    Geometry (in Angstrom), charge = 0, multiplicity = 1:

    H           -3.405270726988    -1.047454698655    -0.006480437589
    O           -3.121305773996    -0.143648909531    -0.009133322261
    C           -1.776646919026    -0.060176996025    -0.014031515398
    C           -0.970652102476    -1.121853155888     0.386398972048
    C           -1.209417749301     1.133463744692    -0.439286525284
    H           -1.420534302152    -2.041938301442     0.717826300593
    C            0.400958602123    -0.983088369721     0.364732260054
    H           -1.852173137172     1.934679213093    -0.751238825484
    C            0.164778983000     1.260697559438    -0.448039537892
    H            1.035401808542    -1.793359854495     0.671406688711
    C            0.984535175541     0.209987219314    -0.050565390110
    H            0.605528030394     2.186677499710    -0.775620526142
    C            2.453406556656     0.358551147070    -0.071403606351
    O            3.226106969915    -0.490842751929     0.248369058509
    H            2.814602299864     1.334577147370    -0.411754626657

  Mulliken Charges: (a.u.)
   Center  Symbol    Alpha    Beta     Spin     Total
       1     H     0.26870  0.26870  0.00000  0.46261
       2     O     4.37458  4.37458  0.00000 -0.74916
       3     C     2.78728  2.78728  0.00000  0.42544
       4     C     3.14503  3.14503  0.00000 -0.29006
       5     C     3.12777  3.12777  0.00000 -0.25554
       6     H     0.39690  0.39690  0.00000  0.20621
       7     C     3.07837  3.07837  0.00000 -0.15674
       8     H     0.38650  0.38650  0.00000  0.22699
       9     C     3.09273  3.09273  0.00000 -0.18545
      10     H     0.37461  0.37461  0.00000  0.25079
      11     C     3.06827  3.06827  0.00000 -0.13655
      12     H     0.38979  0.38979  0.00000  0.22043
      13     C     2.83035  2.83035  0.00000  0.33931
      14     O     4.25453  4.25453  0.00000 -0.50906
      15     H     0.42460  0.42460  0.00000  0.15080

   Total alpha = 32.00000, Total beta = 32.00000, Total charge = -0.00000
