  ==> Input File <==

--------------------------------------------------------------------------
set {
	reference rhf
	basis 6-31G*
}

set_num_threads( 4 )
memory 2 gb

molecule MOL {
0 1

H	 1.126106	 1.515035	 1.632136
O	 1.357707	 0.702643	 1.202914
C	 0.709265	 0.639550	 -0.033818
C	 -0.793441	 0.596080	 0.058728
H	 1.070380	 -0.260091	 -0.519046
H	 1.003966	 1.474742	 -0.668349
C	 -1.530462	 -0.493172	 -0.025500
H	 -1.268471	 1.554324	 0.202247
H	 -1.092586	 -1.461565	 -0.186463
H	 -2.602122	 -0.450675	 0.050101

	symmetry c1
}
set optking {
	frozen_dihedral = ("
		5 3 4 7
	")
}

ee = optimize('scf')
oeprop('DIPOLE', 'QUADRUPOLE', 'MULLIKEN_CHARGES')
f=open( 'psi4out.xyz', 'w' )
f.write( "10  " )
f.write( str(ee) + "\n" )
f.write( MOL.save_string_xyz() )
f.close()
--------------------------------------------------------------------------

    Molecular point group: c1
  Charge       = 0
  Multiplicity = 1
  Basis Set: 6-31G*
  Basis Set:
  @DF-RHF Final Energy:  -191.91351730061143
    Total Energy =                       -191.9135173006114030
    Molecular point group: c1
  Basis Set: 6-31G*
  Basis Set:
  Basis Set: 6-31G*
  Basis Set:
  @DF-RHF Final Energy:  -191.91378511632141
    Total Energy =                       -191.9137851163214066
  Basis Set: 6-31G*
  Basis Set:
  Basis Set: 6-31G*
  Basis Set:
  @DF-RHF Final Energy:  -191.91383767265188
    Total Energy =                       -191.9138376726518800
  Basis Set: 6-31G*
  Basis Set:
  Basis Set: 6-31G*
  Basis Set:
  @DF-RHF Final Energy:  -191.91384125849260
    Total Energy =                       -191.9138412584925391
  Basis Set: 6-31G*
  Basis Set:
  Charge       = 0
  Multiplicity = 1
  Basis Set: 6-31G*
  Basis Set:

    Orbital Energies (a.u.)
    -----------------------

    Doubly Occupied:

       1A    -20.555740     2A    -11.275326     3A    -11.230763
       4A    -11.226822     5A     -1.362119     6A     -1.062006
       7A     -0.920455     8A     -0.779690     9A     -0.682169
      10A     -0.657208    11A     -0.613177    12A     -0.570472
      13A     -0.545805    14A     -0.482826    15A     -0.439632
      16A     -0.373570

  @DF-RHF Final Energy:  -191.91384162567033

   => Energetics <=

    Nuclear Repulsion Energy =            117.5990474895958613
    One-Electron Energy =                -493.4702236583688091
    Two-Electron Energy =                 183.9573345431025757
    DFT Exchange-Correlation Energy =       0.0000000000000000
    Empirical Dispersion Energy =           0.0000000000000000
    PCM Polarization Energy =               0.0000000000000000
    EFP Energy =                            0.0000000000000000
    Total Energy =                       -191.9138416256703579
    Molecular point group: c1
  Basis Set: 6-31G*
  Basis Set:

  -Total Gradient:
     Atom            X                  Y                   Z
    ------   -----------------  -----------------  -----------------
       1        0.000010333709     0.000013626464    -0.000001374176
       2       -0.000014770868     0.000026630623     0.000004731485
       3        0.000205538578    -0.001277780211     0.003242926187
       4       -0.000214526039     0.000553563246    -0.003266844107
       5       -0.000140151992     0.000897497094    -0.001891977267
       6        0.000007672204     0.000001888957     0.000036304104
       7        0.000151799433    -0.000200942812     0.001925012056
       8        0.000002298250    -0.000009395958    -0.000029337186
       9       -0.000012710608     0.000003483247    -0.000015834479
      10        0.000004517333    -0.000008570649    -0.000003606619

  **** Optimization is complete! (in 5 steps) ****
    Final optimized geometry and variables:
    Molecular point group: c1

    Geometry (in Angstrom), charge = 0, multiplicity = 1:

    H            1.073900830972     1.109704616078     1.308449648230
    O            1.337160462920     0.314327614503     0.866501001724
    C            0.703671027351     0.239811417853    -0.385804751083
    C           -0.800376962703     0.217903675850    -0.288903529196
    H            1.060474313792    -0.665954119015    -0.856402496489
    H            1.018501610901     1.070786917240    -1.014669762465
    C           -1.532404820255    -0.875759026348    -0.357962768963
    H           -1.284724748426     1.166920668184    -0.112222146011
    H           -1.089443996503    -1.842843462282    -0.524777026222
    H           -2.602872236936    -0.849644476025    -0.256540648746

  Mulliken Charges: (a.u.)
   Center  Symbol    Alpha    Beta     Spin     Total
       1     H     0.28312  0.28312  0.00000  0.43375
       2     O     4.36449  4.36449  0.00000 -0.72898
       3     C     3.00922  3.00922  0.00000 -0.01844
       4     C     3.08533  3.08533  0.00000 -0.17067
       5     H     0.41104  0.41104  0.00000  0.17793
       6     H     0.42766  0.42766  0.00000  0.14469
       7     C     3.18761  3.18761  0.00000 -0.37523
       8     H     0.41233  0.41233  0.00000  0.17533
       9     H     0.40947  0.40947  0.00000  0.18107
      10     H     0.40973  0.40973  0.00000  0.18054

   Total alpha = 16.00000, Total beta = 16.00000, Total charge =  0.00000
