  ==> Input File <==

--------------------------------------------------------------------------
set {
	reference rhf
	basis 6-31G*
}

set_num_threads( 1 )
memory 2 gb

molecule MOL {
0 1

H	 -2.161554	 -1.174543	 -0.204463
O	 -2.347518	 -0.290803	 0.079804
C	 -1.184022	 0.487508	 -0.006784
C	 0.062599	 -0.378592	 0.031606
H	 -1.176523	 1.099369	 -0.904519
H	 -1.187323	 1.153111	 0.844927
O	 1.171513	 0.459272	 -0.058250
H	 0.050699	 -1.089204	 -0.797170
H	 0.078739	 -0.954914	 0.954740
C	 2.397842	 -0.198080	 -0.002151
H	 2.508049	 -0.905315	 -0.822092
H	 3.173794	 0.550865	 -0.078850
H	 2.517602	 -0.735921	 0.936026

	symmetry c1
}
set optking {
	frozen_dihedral = ("
		8 4 3 5,
		10 7 4 8,
		4 7 10 13
	")
}

ee = energy('scf')
oeprop('DIPOLE', 'QUADRUPOLE', 'MULLIKEN_CHARGES')
f=open( 'psi4out.xyz', 'w' )
f.write( "13  " )
f.write( str(ee) + "\n" )
f.write( MOL.save_string_xyz() )
f.close()
--------------------------------------------------------------------------

    Molecular point group: c1

    Geometry (in Angstrom), charge = 0, multiplicity = 1:

       Center              X                  Y                   Z               Mass
    ------------   -----------------  -----------------  -----------------  -----------------
           H         -2.166026885502    -1.168652782984    -0.211627092958     1.007825032070
           O         -2.351990885502    -0.284912782984     0.072639907042    15.994914619560
           C         -1.188494885502     0.493398217016    -0.013948092958    12.000000000000
           C          0.058126114498    -0.372701782984     0.024441907042    12.000000000000
           H         -1.180995885502     1.105259217016    -0.911683092958     1.007825032070
           H         -1.191795885502     1.159001217016     0.837762907042     1.007825032070
           O          1.167040114498     0.465162217016    -0.065414092958    15.994914619560
           H          0.046226114498    -1.083313782984    -0.804334092958     1.007825032070
           H          0.074266114498    -0.949023782984     0.947575907042     1.007825032070
           C          2.393369114498    -0.192189782984    -0.009315092958    12.000000000000
           H          2.503576114498    -0.899424782984    -0.829256092958     1.007825032070
           H          3.169321114498     0.556755217016    -0.086014092958     1.007825032070
           H          2.513129114498    -0.730030782984     0.928861907042     1.007825032070

  Charge       = 0
  Multiplicity = 1
  Basis Set: 6-31G*
  Basis Set:

    Orbital Energies (a.u.)
    -----------------------

    Doubly Occupied:

       1A    -20.568177     2A    -20.558214     3A    -11.280228
       4A    -11.274208     5A    -11.268375     6A     -1.394204
       7A     -1.364968     8A     -1.021958     9A     -0.915688
      10A     -0.852333    11A     -0.698459    12A     -0.683116
      13A     -0.670972    14A     -0.627425    15A     -0.605737
      16A     -0.579924    17A     -0.546512    18A     -0.497771
      19A     -0.474006    20A     -0.439684    21A     -0.427989

  @DF-RHF Final Energy:  -267.94707310200727

   => Energetics <=

    Nuclear Repulsion Energy =            190.5688651470801460
    One-Electron Energy =                -743.5318455075182555
    Two-Electron Energy =                 285.0159072584310138
    DFT Exchange-Correlation Energy =       0.0000000000000000
    Empirical Dispersion Energy =           0.0000000000000000
    PCM Polarization Energy =               0.0000000000000000
    EFP Energy =                            0.0000000000000000
    Total Energy =                       -267.9470731020070957

  Mulliken Charges: (a.u.)
   Center  Symbol    Alpha    Beta     Spin     Total
       1     H     0.28111  0.28111  0.00000  0.43778
       2     O     4.37562  4.37562  0.00000 -0.75123
       3     C     2.98484  2.98484  0.00000  0.03032
       4     C     3.01394  3.01394  0.00000 -0.02787
       5     H     0.41980  0.41980  0.00000  0.16040
       6     H     0.41266  0.41266  0.00000  0.17467
       7     O     4.30537  4.30537  0.00000 -0.61073
       8     H     0.43495  0.43495  0.00000  0.13011
       9     H     0.42508  0.42508  0.00000  0.14983
      10     C     3.08148  3.08148  0.00000 -0.16295
      11     H     0.42846  0.42846  0.00000  0.14308
      12     H     0.40914  0.40914  0.00000  0.18172
      13     H     0.42757  0.42757  0.00000  0.14487

   Total alpha = 21.00000, Total beta = 21.00000, Total charge =  0.00000
