                              Psi4 1.0.54 Driver

  ==> Input File <==

--------------------------------------------------------------------------
set {
	reference rhf
	basis cc-pvtz
}

set_num_threads( 4 )
memory 2 gb

molecule MOL {
0 1

H	 0.185110	 -1.156650	 -1.344572
C	 -0.613279	 -1.402782	 -0.648241
O	 -1.401606	 -0.295183	 -0.366624
H	 -1.246649	 -2.153951	 -1.097101
H	 -0.166921	 -1.816057	 0.254451
C	 -0.718530	 0.758693	 0.228682
C	 0.718529	 0.758687	 -0.228709
H	 -1.176498	 1.708665	 -0.046615
H	 -0.748705	 0.673525	 1.312779
O	 1.401606	 -0.295166	 0.366636
H	 0.748705	 0.673477	 -1.312803
H	 1.176496	 1.708671	 0.046552
C	 2.714315	 -0.441627	 -0.061017
H	 2.765292	 -0.641548	 -1.128869
H	 3.305661	 0.447341	 0.150952
H	 3.143725	 -1.278506	 0.470147

	symmetry c1
}
set optking {
	frozen_dihedral = ("
		2 3 6 7
	")
}

ee,wfn = optimize('scf', return_wfn=True)
oeprop( wfn, 'DIPOLE', 'QUADRUPOLE', 'MULLIKEN_CHARGES')
f=open( 'psi4out.xyz', 'w' )
f.write( "16  " )
f.write( str(ee) + "\n" )
f.write( MOL.save_string_xyz() )
f.close()
--------------------------------------------------------------------------

    Molecular point group: c1
  Charge       = 0
  Multiplicity = 1
  Basis Set: CC-PVTZ
  Basis Set:
  @DF-RHF Final Energy:  -307.07584067306266
    Total Energy =                       -307.0758406730626007
    Molecular point group: c1
  Basis Set: CC-PVTZ
  Basis Set:
  Basis Set: CC-PVTZ
  Basis Set:
  @DF-RHF Final Energy:  -306.95364907823057
    Total Energy =                       -306.9536490782303986
  Basis Set: CC-PVTZ
  Basis Set:
  Basis Set: CC-PVTZ
  Basis Set:
  @DF-RHF Final Energy:  -307.04996697992539
    Total Energy =                       -307.0499669799255003
  Basis Set: CC-PVTZ
  Basis Set:
  Basis Set: CC-PVTZ
  Basis Set:
  @DF-RHF Final Energy:  -307.08768087572128
    Total Energy =                       -307.0876808757209346
  Basis Set: CC-PVTZ
  Basis Set:
  @DF-RHF Final Energy:  -307.08443710583748
    Total Energy =                       -307.0844371058376510
  @DF-RHF Final Energy:  -307.09051253021164
    Total Energy =                       -307.0905125302113561
  Basis Set: CC-PVTZ
  Basis Set:
  @DF-RHF Final Energy:  -307.09091572877747
    Total Energy =                       -307.0909157287775315
  Basis Set: CC-PVTZ
  Basis Set:
  Basis Set: CC-PVTZ
  Basis Set:
  @DF-RHF Final Energy:  -307.09111195609148
    Total Energy =                       -307.0911119560917086
  Basis Set: CC-PVTZ
  Basis Set:
  Basis Set: CC-PVTZ
  Basis Set:
  @DF-RHF Final Energy:  -307.09115364556777
    Total Energy =                       -307.0911536455676014
  Basis Set: CC-PVTZ
  Basis Set:
  Charge       = 0
  Multiplicity = 1
  Basis Set: CC-PVTZ
  Basis Set:

    Orbital Energies (a.u.)
    -----------------------

    Doubly Occupied:

       1A    -20.557582     2A    -20.541218     3A    -11.274132
       4A    -11.269726     5A    -11.266881     6A    -11.253521
       7A     -1.395068     8A     -1.367951     9A     -1.030436
      10A     -0.951466    11A     -0.895841    12A     -0.814117
      13A     -0.695860    14A     -0.683127    15A     -0.657790
      16A     -0.636267    17A     -0.627845    18A     -0.594790
      19A     -0.554059    20A     -0.545884    21A     -0.518428
      22A     -0.493032    23A     -0.451413    24A     -0.426038
      25A     -0.407395

  @DF-RHF Final Energy:  -307.09115692589643

   => Energetics <=

    Nuclear Repulsion Energy =            264.9623885118698468
    One-Electron Energy =                -944.2873591060838407
    Two-Electron Energy =                 372.2338136683176799
    DFT Exchange-Correlation Energy =       0.0000000000000000
    Empirical Dispersion Energy =           0.0000000000000000
    PCM Polarization Energy =               0.0000000000000000
    EFP Energy =                            0.0000000000000000
    Total Energy =                       -307.0911569258962572
    Molecular point group: c1
  Basis Set: CC-PVTZ
  Basis Set:

  -Total Gradient:
     Atom            X                  Y                   Z
    ------   -----------------  -----------------  -----------------
       1        0.000007634226     0.000007858281    -0.000011323514
       2        0.000394468686     0.003560802919    -0.001813419917
       3        0.000018169138    -0.007010543361     0.003097227115
       4       -0.000009381359     0.000003057287     0.000004214875
       5       -0.000003686809    -0.000004762733    -0.000006265935
       6       -0.001528600172     0.006901137466    -0.001737786922
       7        0.001025513676    -0.003396338794     0.000503144091
       8       -0.000038026676    -0.000004201361    -0.000011900627
       9        0.000025971312    -0.000015712799     0.000024959754
      10       -0.000079675797    -0.000088911911    -0.000012745430
      11        0.000033142467    -0.000036773628    -0.000023519210
      12        0.000025252597     0.000002236814     0.000016849323
      13        0.000241108992     0.000217895646    -0.000072356804
      14       -0.000005570915    -0.000073088164     0.000104675973
      15       -0.000042052182    -0.000078312205    -0.000095915431
      16       -0.000064267186     0.000015656543     0.000034162660

  **** Optimization is complete! (in 10 steps) ****
    Final optimized geometry and variables:
    Molecular point group: c1

    Geometry (in Angstrom), charge = 0, multiplicity = 1:

    H           -0.756712535480    -0.050019869737    -1.798495147274
    C           -1.412448374038    -0.671891492646    -1.199442907672
    O           -1.862182031754    -0.018480489930    -0.053108259118
    H           -2.291910579645    -0.901737570825    -1.783995717047
    H           -0.891178788796    -1.593238538904    -0.965880220692
    C           -0.951953293603     0.402702687056     0.919706637643
    C            0.443981266899     0.779802759227     0.465303002057
    H           -1.398459621503     1.269281398287     1.390851054052
    H           -0.847156668914    -0.370733761486     1.677269197138
    O            1.196483072193    -0.357213846681     0.185172802839
    H            0.405464770265     1.438211645790    -0.400980751611
    H            0.907999537023     1.340681176164     1.275804607536
    C            2.498296671345    -0.095664988079    -0.225768559723
    H            2.517212804388     0.483945670979    -1.145779812230
    H            3.053177555009     0.448663212765     0.534910847504
    H            2.986015347267    -1.043237851712    -0.400987927946

  Mulliken Charges: (a.u.)
   Center  Symbol    Alpha    Beta     Spin     Total
       1     H     0.47383  0.47383  0.00000  0.05234
       2     C     3.02917  3.02917  0.00000 -0.05834
       3     O     4.18169  4.18169  0.00000 -0.36337
       4     H     0.44661  0.44661  0.00000  0.10679
       5     H     0.46454  0.46454  0.00000  0.07091
       6     C     2.96301  2.96301  0.00000  0.07397
       7     C     3.00128  3.00128  0.00000 -0.00257
       8     H     0.45853  0.45853  0.00000  0.08295
       9     H     0.46735  0.46735  0.00000  0.06530
      10     O     4.17555  4.17555  0.00000 -0.35110
      11     H     0.46273  0.46273  0.00000  0.07454
      12     H     0.45806  0.45806  0.00000  0.08387
      13     C     3.03422  3.03422  0.00000 -0.06845
      14     H     0.47006  0.47006  0.00000  0.05989
      15     H     0.46814  0.46814  0.00000  0.06372
      16     H     0.44523  0.44523  0.00000  0.10954

   Total alpha = 25.00000, Total beta = 25.00000, Total charge = -0.00000

*** Psi4 exiting successfully. Buy a developer a beer!
