  ==> Input File <==

--------------------------------------------------------------------------
set {
	reference rhf
	basis 6-31G*
}

set_num_threads( 1 )
memory 2 gb

molecule MOL {
0 1

O	 0.625848	 1.349995	 -0.000749
C	 0.486307	 0.169203	 0.000779
C	 1.608116	 -0.841643	 0.000302
O	 -0.698257	 -0.426125	 0.001050
C	 2.990107	 -0.200498	 -0.000684
H	 1.468623	 -1.481519	 -0.865924
H	 1.469683	 -1.481289	 0.866878
H	 3.129736	 0.423364	 -0.875135
H	 3.757882	 -0.966877	 -0.001197
H	 3.130964	 0.423383	 0.873533
C	 -1.187206	 -0.917634	 1.244733
C	 -2.540725	 -1.544210	 0.984540
H	 -1.254724	 -0.097142	 1.946031
H	 -0.483266	 -1.636670	 1.641022
H	 -3.232548	 -0.812628	 0.582884
H	 -2.951715	 -1.933521	 1.910376
H	 -2.456970	 -2.360648	 0.276253

	symmetry c1
}
set optking {
	frozen_dihedral = ("
		2 4 11 13,
		4 2 3 6
	")
}

ee = energy('scf')
oeprop('DIPOLE', 'QUADRUPOLE', 'MULLIKEN_CHARGES')
f=open( 'psi4out.xyz', 'w' )
f.write( "17  " )
f.write( str(ee) + "\n" )
f.write( MOL.save_string_xyz() )
f.close()
--------------------------------------------------------------------------

    Molecular point group: c1

    Geometry (in Angstrom), charge = 0, multiplicity = 1:

       Center              X                  Y                   Z               Mass
    ------------   -----------------  -----------------  -----------------  -----------------
           O          0.452249676067     1.695268090823    -0.325682137842    15.994914619560
           C          0.312708676067     0.514476090823    -0.324154137842    12.000000000000
           C          1.434517676067    -0.496369909177    -0.324631137842    12.000000000000
           O         -0.871855323933    -0.080851909177    -0.323883137842    15.994914619560
           C          2.816508676067     0.144775090823    -0.325617137842    12.000000000000
           H          1.295024676067    -1.136245909177    -1.190857137842     1.007825032070
           H          1.296084676067    -1.136015909177     0.541944862158     1.007825032070
           H          2.956137676067     0.768637090823    -1.200068137842     1.007825032070
           H          3.584283676067    -0.621603909177    -0.326130137842     1.007825032070
           H          2.957365676067     0.768656090823     0.548599862158     1.007825032070
           C         -1.360804323933    -0.572360909177     0.919799862158    12.000000000000
           C         -2.714323323933    -1.198936909177     0.659606862158    12.000000000000
           H         -1.428322323933     0.248131090823     1.621097862158     1.007825032070
           H         -0.656864323933    -1.291396909177     1.316088862158     1.007825032070
           H         -3.406146323933    -0.467354909177     0.257950862158     1.007825032070
           H         -3.125313323933    -1.588247909177     1.585442862158     1.007825032070
           H         -2.630568323933    -2.015374909177    -0.048680137842     1.007825032070

  Charge       = 0
  Multiplicity = 1
  Basis Set: 6-31G*
  Basis Set:

    Orbital Energies (a.u.)
    -----------------------

    Doubly Occupied:

       1A    -20.585201     2A    -20.553630     3A    -11.372480
       4A    -11.300246     5A    -11.239034     6A    -11.228165
       7A    -11.216722     8A     -1.462176     9A     -1.366941
      10A     -1.065278    11A     -1.041259    12A     -0.903723
      13A     -0.872335    14A     -0.773341    15A     -0.700012
      16A     -0.687416    17A     -0.658519    18A     -0.637539
      19A     -0.603910    20A     -0.565450    21A     -0.556723
      22A     -0.534242    23A     -0.528096    24A     -0.519301
      25A     -0.507442    26A     -0.483175    27A     -0.453558
      28A     -0.433076

  @DF-RHF Final Energy:  -344.88959486862814

   => Energetics <=

    Nuclear Repulsion Energy =            315.9863746306976964
    One-Electron Energy =               -1096.0538783092465565
    Two-Electron Energy =                 435.1779088099207797
    DFT Exchange-Correlation Energy =       0.0000000000000000
    Empirical Dispersion Energy =           0.0000000000000000
    PCM Polarization Energy =               0.0000000000000000
    EFP Energy =                            0.0000000000000000
    Total Energy =                       -344.8895948686280803

  Mulliken Charges: (a.u.)
   Center  Symbol    Alpha    Beta     Spin     Total
       1     O     4.25834  4.25834  0.00000 -0.51668
       2     C     2.61403  2.61403  0.00000  0.77195
       3     C     3.21256  3.21256  0.00000 -0.42512
       4     O     4.31478  4.31478  0.00000 -0.62955
       5     C     3.23881  3.23881  0.00000 -0.47762
       6     H     0.39895  0.39895  0.00000  0.20210
       7     H     0.40780  0.40780  0.00000  0.18439
       8     H     0.40846  0.40846  0.00000  0.18308
       9     H     0.41920  0.41920  0.00000  0.16159
      10     H     0.41116  0.41116  0.00000  0.17768
      11     C     3.00510  3.00510  0.00000 -0.01021
      12     C     3.24645  3.24645  0.00000 -0.49290
      13     H     0.41025  0.41025  0.00000  0.17949
      14     H     0.42200  0.42200  0.00000  0.15600
      15     H     0.40504  0.40504  0.00000  0.18992
      16     H     0.41707  0.41707  0.00000  0.16585
      17     H     0.40999  0.40999  0.00000  0.18002

   Total alpha = 28.00000, Total beta = 28.00000, Total charge =  0.00000
