  ==> Input File <==

--------------------------------------------------------------------------
set {
	reference rhf
	basis cc-pvtz
}

set_num_threads( 4 )
memory 2 gb

molecule MOL {
0 1

H	 1.235538	 -0.385126	 -1.263483
O	 1.675515	 -0.612943	 -0.465627
C	 1.135873	 0.113391	 0.608264
C	 0.027642	 1.012027	 0.090274
H	 1.902972	 0.727968	 1.072615
H	 0.756163	 -0.561896	 1.370018
C	 -1.138737	 0.285728	 -0.581921
H	 0.464661	 1.708096	 -0.618252
H	 -0.340737	 1.603071	 0.925246
C	 -1.933983	 -0.631436	 0.343653
H	 -0.763151	 -0.285569	 -1.422081
H	 -1.808359	 1.035291	 -0.992333
H	 -2.789188	 -1.049673	 -0.174718
H	 -1.335629	 -1.461368	 0.700418
H	 -2.305435	 -0.092167	 1.209725

	symmetry c1
}
set optking {
	frozen_dihedral = ("
		1 2 3 4
	")
}

ee = optimize('scf')
oeprop('DIPOLE', 'QUADRUPOLE', 'MULLIKEN_CHARGES')
f=open( 'psi4out.xyz', 'w' )
f.write( "15  " )
f.write( str(ee) + "\n" )
f.write( MOL.save_string_xyz() )
f.close()
--------------------------------------------------------------------------

    Molecular point group: c1
  Charge       = 0
  Multiplicity = 1
  Basis Set: CC-PVTZ
  Basis Set:
  @DF-RHF Final Energy:  -232.23255764416916
    Total Energy =                       -232.2325576441690487
    Molecular point group: c1
  Basis Set: CC-PVTZ
  Basis Set:
  Basis Set: CC-PVTZ
  Basis Set:
  @DF-RHF Final Energy:  -232.23395259321387
    Total Energy =                       -232.2339525932137576
  Basis Set: CC-PVTZ
  Basis Set:
  Basis Set: CC-PVTZ
  Basis Set:
  @DF-RHF Final Energy:  -232.23451669796265
    Total Energy =                       -232.2345166979624196
  Basis Set: CC-PVTZ
  Basis Set:
  Basis Set: CC-PVTZ
  Basis Set:
  @DF-RHF Final Energy:  -232.23452164040646
    Total Energy =                       -232.2345216404064558
  Basis Set: CC-PVTZ
  Basis Set:
  Basis Set: CC-PVTZ
  Basis Set:
  @DF-RHF Final Energy:  -232.23453925090948
    Total Energy =                       -232.2345392509097337
  Basis Set: CC-PVTZ
  Basis Set:
  Basis Set: CC-PVTZ
  Basis Set:
  @DF-RHF Final Energy:  -232.23454147310332
    Total Energy =                       -232.2345414731033202
  Basis Set: CC-PVTZ
  Basis Set:
  Charge       = 0
  Multiplicity = 1
  Basis Set: CC-PVTZ
  Basis Set:

    Orbital Energies (a.u.)
    -----------------------

    Doubly Occupied:

       1A    -20.542899     2A    -11.264238     3A    -11.224140
       4A    -11.222605     5A    -11.212039     6A     -1.361235
       7A     -1.074881     8A     -0.977098     9A     -0.883549
      10A     -0.794325    11A     -0.671589    12A     -0.650833
      13A     -0.635172    14A     -0.587762    15A     -0.577532
      16A     -0.548178    17A     -0.507684    18A     -0.485034
      19A     -0.480805    20A     -0.458150    21A     -0.432352

  @DF-RHF Final Energy:  -232.23454157356704

   => Energetics <=

    Nuclear Repulsion Energy =            191.6643751587736517
    One-Electron Energy =                -694.6136339017642740
    Two-Electron Energy =                 270.7147171694236931
    DFT Exchange-Correlation Energy =       0.0000000000000000
    Empirical Dispersion Energy =           0.0000000000000000
    PCM Polarization Energy =               0.0000000000000000
    EFP Energy =                            0.0000000000000000
    Total Energy =                       -232.2345415735669576
    Molecular point group: c1
  Basis Set: CC-PVTZ
  Basis Set:

  -Total Gradient:
     Atom            X                  Y                   Z
    ------   -----------------  -----------------  -----------------
       1       -0.000398054998    -0.000457661930     0.000082280133
       2        0.000595831420     0.000666231340    -0.000117136742
       3       -0.000439622148    -0.000494944970     0.000079662111
       4        0.000238152122     0.000291253070    -0.000045336414
       5       -0.000007229502     0.000005003871     0.000015523634
       6        0.000004483176    -0.000011043939    -0.000015072546
       7       -0.000003743026     0.000000901324    -0.000005714322
       8        0.000001585198     0.000002887456    -0.000000347202
       9       -0.000000350956    -0.000003974401    -0.000001921701
      10        0.000004193991    -0.000003566715     0.000007439520
      11       -0.000004917938     0.000000644256    -0.000002574511
      12        0.000007282449     0.000005301476    -0.000001715363
      13        0.000003729572     0.000001557131    -0.000002085994
      14        0.000003306104    -0.000001824250     0.000005465518
      15       -0.000004645465    -0.000000763720     0.000001533881

  **** Optimization is complete! (in 7 steps) ****
    Final optimized geometry and variables:
    Molecular point group: c1

    Geometry (in Angstrom), charge = 0, multiplicity = 1:

    H            1.396719886599    -0.452542528594    -1.252160210250
    O            1.774673926714    -0.637449488546    -0.413819969178
    C            1.138042483588     0.104498240168     0.596169246853
    C            0.019113080823     1.002994111846     0.089591692127
    H            1.885584702524     0.719670076335     1.085049793983
    H            0.761447053312    -0.590067165223     1.338057066952
    C           -1.164086459009     0.287424345972    -0.569480291809
    H            0.442436348223     1.714699178071    -0.615165211130
    H           -0.342914395297     1.586928098035     0.931070474556
    C           -1.941979662968    -0.639010011142     0.360970399276
    H           -0.827276455774    -0.279550336152    -1.433220726403
    H           -1.837153809935     1.043764411452    -0.960021523750
    H           -2.808554704214    -1.048712520435    -0.144556284196
    H           -1.337336761105    -1.472054196911     0.697496848513
    H           -2.292970801652    -0.105800468766     1.238526535165

  Mulliken Charges: (a.u.)
   Center  Symbol    Alpha    Beta     Spin     Total
       1     H     0.39090  0.39090  0.00000  0.21819
       2     O     4.20975  4.20975  0.00000 -0.41951
       3     C     2.95707  2.95707  0.00000  0.08586
       4     C     3.11904  3.11904  0.00000 -0.23809
       5     H     0.46138  0.46138  0.00000  0.07725
       6     H     0.47040  0.47040  0.00000  0.05920
       7     C     3.08659  3.08659  0.00000 -0.17317
       8     H     0.44486  0.44486  0.00000  0.11029
       9     H     0.45112  0.45112  0.00000  0.09776
      10     C     3.15310  3.15310  0.00000 -0.30621
      11     H     0.45985  0.45985  0.00000  0.08030
      12     H     0.44659  0.44659  0.00000  0.10683
      13     H     0.44568  0.44568  0.00000  0.10864
      14     H     0.44933  0.44933  0.00000  0.10135
      15     H     0.45434  0.45434  0.00000  0.09132

   Total alpha = 21.00000, Total beta = 21.00000, Total charge = -0.00000
