  ==> Input File <==

--------------------------------------------------------------------------
set {
	reference rhf
	basis 6-31G*
}

set_num_threads( 4 )
memory 2 gb

molecule MOL {
0 1

H	 -1.922408	 -0.980870	 0.495640
O	 -1.422729	 -0.573567	 -0.196946
C	 -0.731407	 0.539437	 0.309156
C	 0.680193	 0.672443	 -0.251532
H	 -1.319765	 1.404033	 0.030086
H	 -0.700012	 0.506517	 1.397677
C	 1.599139	 -0.492137	 0.118598
H	 0.616402	 0.758534	 -1.332349
H	 1.107032	 1.602637	 0.117369
H	 1.239738	 -1.428634	 -0.297334
H	 2.601428	 -0.335055	 -0.265730
H	 1.674954	 -0.608418	 1.197020

	symmetry c1
}
set optking {
	frozen_dihedral = ("
		1 2 3 4
	")
}

ee = optimize('scf')
oeprop('DIPOLE', 'QUADRUPOLE', 'MULLIKEN_CHARGES')
f=open( 'psi4out.xyz', 'w' )
f.write( "12  " )
f.write( str(ee) + "\n" )
f.write( MOL.save_string_xyz() )
f.close()
--------------------------------------------------------------------------

    Molecular point group: c1
  Charge       = 0
  Multiplicity = 1
  Basis Set: 6-31G*
  Basis Set:
  @DF-RHF Final Energy:  -193.10805066904544
    Total Energy =                       -193.1080506690454968
    Molecular point group: c1
  Basis Set: 6-31G*
  Basis Set:
  Basis Set: 6-31G*
  Basis Set:
  @DF-RHF Final Energy:  -193.10907708739154
    Total Energy =                       -193.1090770873915972
  Basis Set: 6-31G*
  Basis Set:
  Basis Set: 6-31G*
  Basis Set:
  @DF-RHF Final Energy:  -193.10932590221182
    Total Energy =                       -193.1093259022119355
  Basis Set: 6-31G*
  Basis Set:
  Basis Set: 6-31G*
  Basis Set:
  @DF-RHF Final Energy:  -193.10932912627393
    Total Energy =                       -193.1093291262737921
  Basis Set: 6-31G*
  Basis Set:
  Basis Set: 6-31G*
  Basis Set:
  @DF-RHF Final Energy:  -193.10933129400513
    Total Energy =                       -193.1093312940051874
  Basis Set: 6-31G*
  Basis Set:
  Charge       = 0
  Multiplicity = 1
  Basis Set: 6-31G*
  Basis Set:

    Orbital Energies (a.u.)
    -----------------------

    Doubly Occupied:

       1A    -20.552494     2A    -11.268566     3A    -11.214047
       4A    -11.204926     5A     -1.358940     6A     -1.046837
       7A     -0.919590     8A     -0.799117     9A     -0.705534
      10A     -0.639151    11A     -0.590823    12A     -0.581052
      13A     -0.524663    14A     -0.504619    15A     -0.485634
      16A     -0.466094    17A     -0.430365

  @DF-RHF Final Energy:  -193.10933189638953

   => Energetics <=

    Nuclear Repulsion Energy =            133.2104863174156719
    One-Electron Energy =                -526.0547314161703980
    Two-Electron Energy =                 199.7349132023650782
    DFT Exchange-Correlation Energy =       0.0000000000000000
    Empirical Dispersion Energy =           0.0000000000000000
    PCM Polarization Energy =               0.0000000000000000
    EFP Energy =                            0.0000000000000000
    Total Energy =                       -193.1093318963896763
    Molecular point group: c1
  Basis Set: 6-31G*
  Basis Set:

  -Total Gradient:
     Atom            X                  Y                   Z
    ------   -----------------  -----------------  -----------------
       1        0.001128580088    -0.000796365167     0.000319065331
       2       -0.001271460374     0.000819776127    -0.000161380561
       3       -0.000165073786     0.000454216097    -0.000815735798
       4        0.000302862426    -0.000488600458     0.000658110616
       5        0.000004673853    -0.000008795389    -0.000002302635
       6       -0.000000475386     0.000015607472     0.000011228375
       7        0.000002527268     0.000012829291     0.000006381331
       8       -0.000001152509     0.000001148955    -0.000007375499
       9        0.000006314716    -0.000005366677    -0.000004400982
      10       -0.000005665060     0.000000113914    -0.000007586084
      11       -0.000003262200    -0.000003557100     0.000002083565
      12        0.000002130964    -0.000001007064     0.000001912341

  **** Optimization is complete! (in 6 steps) ****
    Final optimized geometry and variables:
    Molecular point group: c1

    Geometry (in Angstrom), charge = 0, multiplicity = 1:

    H           -1.866950276944    -1.031480097192     0.428558753158
    O           -1.362656088131    -0.584372592931    -0.233629918683
    C           -0.726438023007     0.544645182506     0.317089511850
    C            0.678438581922     0.666416757882    -0.251599895844
    H           -1.302557130054     1.436369556628     0.083780787653
    H           -0.675868942145     0.464478993490     1.401273354820
    C            1.585536547115    -0.500902608706     0.131316940513
    H            0.604897187541     0.735911068465    -1.333274176800
    H            1.108361984025     1.603472122868     0.095909953224
    H            1.174345709875    -1.438610939058    -0.222647317023
    H            2.574860490813    -0.382410727390    -0.299289562939
    H            1.702061034357    -0.569058359722     1.210222606163

  Mulliken Charges: (a.u.)
   Center  Symbol    Alpha    Beta     Spin     Total
       1     H     0.27938  0.27938  0.00000  0.44124
       2     O     4.37145  4.37145  0.00000 -0.74289
       3     C     2.99729  2.99729  0.00000  0.00542
       4     C     3.15717  3.15717  0.00000 -0.31434
       5     H     0.42454  0.42454  0.00000  0.15093
       6     H     0.43333  0.43333  0.00000  0.13334
       7     C     3.24321  3.24321  0.00000 -0.48643
       8     H     0.41401  0.41401  0.00000  0.17197
       9     H     0.42440  0.42440  0.00000  0.15121
      10     H     0.40894  0.40894  0.00000  0.18212
      11     H     0.41964  0.41964  0.00000  0.16072
      12     H     0.42664  0.42664  0.00000  0.14672

   Total alpha = 17.00000, Total beta = 17.00000, Total charge =  0.00000
