  ==> Input File <==

--------------------------------------------------------------------------
set {
	reference rhf
	basis 6-31G*
}

set_num_threads( 4 )
memory 2 gb

molecule MOL {
0 1

O	 0.749854	 1.307668	 -0.000040
C	 0.576249	 0.131685	 -0.000108
C	 -0.766779	 -0.556801	 -0.000461
O	 1.568443	 -0.749345	 -0.000005
C	 -1.945214	 0.412366	 0.000161
H	 -0.796911	 -1.211249	 -0.867467
H	 -0.796854	 -1.212390	 0.865687
C	 -3.109738	 -0.100013	 -0.845959
H	 -1.615375	 1.377267	 -0.369668
H	 -2.273444	 0.576113	 1.020958
H	 -2.813910	 -0.242296	 -1.881668
H	 -3.936274	 0.602887	 -0.832863
H	 -3.479996	 -1.051724	 -0.474977
C	 2.886820	 -0.232538	 0.000322
H	 3.059106	 0.369571	 -0.880203
H	 3.540187	 -1.091012	 0.000050
H	 3.059019	 0.368956	 0.881266

	symmetry c1
}
set optking {
	frozen_dihedral = ("
		9 5 3 6
	")
}

ee = optimize('scf')
oeprop('DIPOLE', 'QUADRUPOLE', 'MULLIKEN_CHARGES')
f=open( 'psi4out.xyz', 'w' )
f.write( "17  " )
f.write( str(ee) + "\n" )
f.write( MOL.save_string_xyz() )
f.close()
--------------------------------------------------------------------------

    Molecular point group: c1
  Charge       = 0
  Multiplicity = 1
  Basis Set: 6-31G*
  Basis Set:
  @DF-RHF Final Energy:  -344.90332847005823
    Total Energy =                       -344.9033284700582840
    Molecular point group: c1
  Basis Set: 6-31G*
  Basis Set:
  Basis Set: 6-31G*
  Basis Set:
  @DF-RHF Final Energy:  -344.90361009376494
    Total Energy =                       -344.9036100937647689
  Basis Set: 6-31G*
  Basis Set:
  Basis Set: 6-31G*
  Basis Set:
  @DF-RHF Final Energy:  -344.90363171440191
    Total Energy =                       -344.9036317144024224
  Basis Set: 6-31G*
  Basis Set:
  Basis Set: 6-31G*
  Basis Set:
  @DF-RHF Final Energy:  -344.90360983743523
    Total Energy =                       -344.9036098374349422
  Basis Set: 6-31G*
  Basis Set:
  Basis Set: 6-31G*
  Basis Set:
  @DF-RHF Final Energy:  -344.90369066725754
    Total Energy =                       -344.9036906672575924
  Basis Set: 6-31G*
  Basis Set:
  Charge       = 0
  Multiplicity = 1
  Basis Set: 6-31G*
  Basis Set:

    Orbital Energies (a.u.)
    -----------------------

    Doubly Occupied:

       1A    -20.604278     2A    -20.546491     3A    -11.373587
       4A    -11.281292     5A    -11.235775     6A    -11.220652
       7A    -11.214403     8A     -1.470236     9A     -1.363646
      10A     -1.078420    11A     -1.001797    12A     -0.939559
      13A     -0.828250    14A     -0.767412    15A     -0.702180
      16A     -0.682386    17A     -0.672855    18A     -0.631505
      19A     -0.598192    20A     -0.573336    21A     -0.569479
      22A     -0.529492    23A     -0.523499    24A     -0.494845
      25A     -0.486939    26A     -0.473593    27A     -0.457298
      28A     -0.439903

  @DF-RHF Final Energy:  -344.90369075533192

   => Energetics <=

    Nuclear Repulsion Energy =            312.4626388303498743
    One-Electron Energy =               -1089.2100613967063509
    Two-Electron Energy =                 431.8437318110246679
    DFT Exchange-Correlation Energy =       0.0000000000000000
    Empirical Dispersion Energy =           0.0000000000000000
    PCM Polarization Energy =               0.0000000000000000
    EFP Energy =                            0.0000000000000000
    Total Energy =                       -344.9036907553318088
    Molecular point group: c1
  Basis Set: 6-31G*
  Basis Set:

  -Total Gradient:
     Atom            X                  Y                   Z
    ------   -----------------  -----------------  -----------------
       1       -0.000034669797     0.000011171578    -0.000002627657
       2        0.000020612765     0.000008499904     0.000002621949
       3        0.002654716762     0.003323974304    -0.001630933265
       4        0.000009403922    -0.000036223201    -0.000006149116
       5       -0.001543346439    -0.001907181587    -0.003676799386
       6       -0.001934769923    -0.002451003123     0.001925233983
       7        0.000005760051     0.000001180879     0.000006192688
       8       -0.000010351722     0.000000599039     0.000004106289
       9        0.000854760335     0.001038174023     0.003378987118
      10       -0.000008067224     0.000000544414    -0.000010004654
      11        0.000002692838     0.000007263881     0.000008379800
      12       -0.000002143336    -0.000001048654     0.000000457748
      13        0.000002734280    -0.000002449806    -0.000002921925
      14       -0.000006137864     0.000013275909     0.000006641004
      15       -0.000001271578    -0.000000687858    -0.000001611764
      16       -0.000011796186    -0.000005374759    -0.000001149767
      17        0.000001873110    -0.000000714938    -0.000000423044

  **** Optimization is complete! (in 6 steps) ****
    Final optimized geometry and variables:
    Molecular point group: c1

    Geometry (in Angstrom), charge = 0, multiplicity = 1:

    O            0.749941491065     1.283137374412     0.123733911738
    C            0.561399934517     0.109558045784     0.114176724620
    C           -0.785573932120    -0.571156260295     0.085286538256
    O            1.543413892122    -0.782631023168     0.130349521284
    C           -1.983830215895     0.385980711090     0.096827595571
    H           -0.808850483114    -1.229608963154    -0.778681516307
    H           -0.815697220690    -1.243700832463     0.937956156985
    C           -3.176272885891    -0.148835463061    -0.693316004215
    H           -1.674871300739     1.354470866867    -0.275767645852
    H           -2.284724773447     0.559204158615     1.126173985753
    H           -2.926609376817    -0.273816608729    -1.743122187926
    H           -4.018832507014     0.532178643663    -0.632021901307
    H           -3.503185526186    -1.113183764321    -0.314035407381
    C            2.867394181500    -0.281054856556     0.157889952458
    H            3.063516709155     0.322324659280    -0.716711542935
    H            3.510594796407    -1.147157234719     0.166594110420
    H            3.029539224507     0.314885119384     1.044469261668

  Mulliken Charges: (a.u.)
   Center  Symbol    Alpha    Beta     Spin     Total
       1     O     4.28501  4.28501  0.00000 -0.57001
       2     C     2.61027  2.61027  0.00000  0.77945
       3     C     3.20898  3.20898  0.00000 -0.41796
       4     O     4.30550  4.30550  0.00000 -0.61100
       5     C     3.15791  3.15791  0.00000 -0.31581
       6     H     0.39922  0.39922  0.00000  0.20156
       7     H     0.39877  0.39877  0.00000  0.20246
       8     C     3.24306  3.24306  0.00000 -0.48613
       9     H     0.39782  0.39782  0.00000  0.20437
      10     H     0.41708  0.41708  0.00000  0.16583
      11     H     0.42011  0.42011  0.00000  0.15978
      12     H     0.41602  0.41602  0.00000  0.16795
      13     H     0.42173  0.42173  0.00000  0.15655
      14     C     3.09223  3.09223  0.00000 -0.18446
      15     H     0.40899  0.40899  0.00000  0.18202
      16     H     0.40836  0.40836  0.00000  0.18327
      17     H     0.40893  0.40893  0.00000  0.18213

   Total alpha = 28.00000, Total beta = 28.00000, Total charge = -0.00000
