                              Psi4 1.0.54 Driver

  ==> Input File <==

--------------------------------------------------------------------------
set {
	reference rhf
	basis cc-pvtz
}

set_num_threads( 4 )
memory 2 gb

molecule MOL {
0 1

O	 -2.374409	 1.338660	 -0.336961
C	 -2.104891	 0.204655	 -0.107126
C	 -0.881910	 -0.448129	 -0.720509
C	 -2.949910	 -0.638219	 0.818225
C	 -1.265518	 -1.306617	 -1.932402
H	 -0.428657	 -1.073098	 0.038495
H	 -0.161056	 0.306619	 -1.016464
C	 -0.055272	 -1.990827	 -2.564596
H	 -1.992258	 -2.042068	 -1.611172
H	 -1.755791	 -0.687425	 -2.679753
C	 -0.371218	 -2.814856	 -3.814021
H	 0.420248	 -2.629573	 -1.824419
H	 0.676988	 -1.232180	 -2.826996
C	 -1.242416	 -4.043390	 -3.563828
H	 0.566598	 -3.137024	 -4.255625
H	 -0.849427	 -2.177075	 -4.552862
H	 -0.790825	 -4.696488	 -2.824153
H	 -1.368378	 -4.615720	 -4.475608
H	 -2.230353	 -3.776170	 -3.209070
H	 -3.440322	 -1.417144	 0.243099
H	 -3.694377	 -0.025850	 1.303346
H	 -2.331085	 -1.129829	 1.560495

	symmetry c1
}
set optking {
	frozen_dihedral = ("
		6 3 2 1
	")
}

ee,wfn = optimize('scf', return_wfn=True)
oeprop( wfn, 'DIPOLE', 'QUADRUPOLE', 'MULLIKEN_CHARGES')
f=open( 'psi4out.xyz', 'w' )
f.write( "22  " )
f.write( str(ee) + "\n" )
f.write( MOL.save_string_xyz() )
f.close()
--------------------------------------------------------------------------

    Molecular point group: c1
  Charge       = 0
  Multiplicity = 1
  Basis Set: CC-PVTZ
  Basis Set:
  @DF-RHF Final Energy:  -348.22236384849083
    Total Energy =                       -348.2223638484905450
    Molecular point group: c1
  Basis Set: CC-PVTZ
  Basis Set:
  Basis Set: CC-PVTZ
  Basis Set:
  @DF-RHF Final Energy:  -348.22180268003439
    Total Energy =                       -348.2218026800342727
  Basis Set: CC-PVTZ
  Basis Set:
  Basis Set: CC-PVTZ
  Basis Set:
  @DF-RHF Final Energy:  -348.22233264536067
    Total Energy =                       -348.2223326453610639
  Basis Set: CC-PVTZ
  Basis Set:
  Basis Set: CC-PVTZ
  Basis Set:
  @DF-RHF Final Energy:  -348.22309059560939
    Total Energy =                       -348.2230905956094489
  Basis Set: CC-PVTZ
  Basis Set:
  @DF-RHF Final Energy:  -348.22307763107733
    Total Energy =                       -348.2230776310771603
  @DF-RHF Final Energy:  -348.22319562977435
    Total Energy =                       -348.2231956297742954
  Basis Set: CC-PVTZ
  Basis Set:
  @DF-RHF Final Energy:  -348.22325144058129
    Total Energy =                       -348.2232514405811798
  Basis Set: CC-PVTZ
  Basis Set:
  Basis Set: CC-PVTZ
  Basis Set:
  @DF-RHF Final Energy:  -348.22326323624577
    Total Energy =                       -348.2232632362458844
  Basis Set: CC-PVTZ
  Basis Set:
  Basis Set: CC-PVTZ
  Basis Set:
  @DF-RHF Final Energy:  -348.22330324708031
    Total Energy =                       -348.2233032470802527
  Basis Set: CC-PVTZ
  Basis Set:
  Charge       = 0
  Multiplicity = 1
  Basis Set: CC-PVTZ
  Basis Set:

    Orbital Energies (a.u.)
    -----------------------

    Doubly Occupied:

       1A    -20.536984     2A    -11.319041     3A    -11.229270
       4A    -11.227701     5A    -11.226307     6A    -11.221686
       7A    -11.220038     8A    -11.212394     9A     -1.396742
      10A     -1.098720    11A     -1.046632    12A     -0.999579
      13A     -0.940275    14A     -0.861093    15A     -0.788438
      16A     -0.734339    17A     -0.662989    18A     -0.649947
      19A     -0.628224    20A     -0.622048    21A     -0.599476
      22A     -0.589247    23A     -0.553955    24A     -0.549332
      25A     -0.536933    26A     -0.520955    27A     -0.500016
      28A     -0.491889    29A     -0.471892    30A     -0.467384
      31A     -0.464173    32A     -0.398605

  @DF-RHF Final Energy:  -348.22330285501846

   => Energetics <=

    Nuclear Repulsion Energy =            373.6002819542745783
    One-Electron Energy =               -1212.1145614988265606
    Two-Electron Energy =                 490.2909766895334087
    DFT Exchange-Correlation Energy =       0.0000000000000000
    Empirical Dispersion Energy =           0.0000000000000000
    PCM Polarization Energy =               0.0000000000000000
    EFP Energy =                            0.0000000000000000
    Total Energy =                       -348.2233028550185736
    Molecular point group: c1
  Basis Set: CC-PVTZ
  Basis Set:

  -Total Gradient:
     Atom            X                  Y                   Z
    ------   -----------------  -----------------  -----------------
       1        0.000428957297     0.000298142469     0.000563100034
       2       -0.000486491712    -0.000242739311    -0.000707483473
       3       -0.000403112480    -0.000660625978    -0.000002218931
       4       -0.000035732937    -0.000040639228     0.000041548037
       5       -0.000004330507    -0.000016227671    -0.000027368437
       6        0.000444238964     0.000596757922     0.000226731466
       7       -0.000022142089    -0.000010344066     0.000000801092
       8        0.000019358860     0.000067874864    -0.000058501746
       9       -0.000046526599    -0.000059628394    -0.000028067578
      10        0.000007308511    -0.000016662681     0.000007661983
      11        0.000086387105    -0.000048897266     0.000009651124
      12        0.000017891952     0.000015071057    -0.000019010366
      13       -0.000010512985     0.000016405318    -0.000011703671
      14       -0.000022040208     0.000036126145     0.000029438434
      15        0.000001363574    -0.000023257809     0.000011789842
      16        0.000031836765     0.000001857750    -0.000002834961
      17        0.000006786320     0.000004198967    -0.000022322842
      18       -0.000022525116     0.000010705099    -0.000005117704
      19       -0.000042077101     0.000030322513     0.000063776790
      20        0.000027763294     0.000105043121     0.000079494420
      21        0.000099576082    -0.000059443495    -0.000022962836
      22       -0.000075976993    -0.000004039323    -0.000126400680

  **** Optimization is complete! (in 10 steps) ****
    Final optimized geometry and variables:
    Molecular point group: c1

    Geometry (in Angstrom), charge = 0, multiplicity = 1:

    O           -0.950574902738     2.581931425081     1.111819650127
    C           -0.699328433508     1.456170916968     1.396533836440
    C            0.511376331823     0.751709196018     0.818589230651
    C           -1.566996130657     0.675688692715     2.356905076090
    C            0.148407871242    -0.122358228937    -0.388309063590
    H            0.980698117008     0.143953202426     1.586516302139
    H            1.214978696237     1.516364520376     0.517442667341
    C            1.373452657920    -0.803827709970    -0.995326168360
    H           -0.580625912374    -0.868528885800    -0.092914063065
    H           -0.328244766256     0.500276414410    -1.139181631945
    C            1.088093455877    -1.619684807494    -2.257184045028
    H            1.833362940497    -1.447249171957    -0.248754775840
    H            2.109355007757    -0.042165699059    -1.235291543605
    C            0.199927184508    -2.842367757237    -2.039928276240
    H            2.035986864469    -1.947433620349    -2.672149403157
    H            0.637229343640    -0.974291735452    -3.006009371282
    H            0.623560299961    -3.503740895767    -1.290795822609
    H            0.096462990486    -3.408893275538    -2.958029088322
    H           -0.796737558607    -2.568717669739    -1.714869927608
    H           -1.796588895160    -0.309306345954     1.969646334714
    H           -2.478935200740     1.217905163761     2.553372546991
    H           -1.025094161339     0.537375623713     3.286965174695

  Mulliken Charges: (a.u.)
   Center  Symbol    Alpha    Beta     Spin     Total
       1     O     4.17612  4.17612  0.00000 -0.35225
       2     C     2.85861  2.85861  0.00000  0.28278
       3     C     3.09515  3.09515  0.00000 -0.19031
       4     C     3.15554  3.15554  0.00000 -0.31109
       5     C     3.10644  3.10644  0.00000 -0.21288
       6     H     0.44989  0.44989  0.00000  0.10022
       7     H     0.43837  0.43837  0.00000  0.12327
       8     C     3.09682  3.09682  0.00000 -0.19363
       9     H     0.44890  0.44890  0.00000  0.10220
      10     H     0.44268  0.44268  0.00000  0.11464
      11     C     3.09024  3.09024  0.00000 -0.18048
      12     H     0.45307  0.45307  0.00000  0.09386
      13     H     0.44588  0.44588  0.00000  0.10825
      14     C     3.15359  3.15359  0.00000 -0.30718
      15     H     0.44717  0.44717  0.00000  0.10565
      16     H     0.45233  0.45233  0.00000  0.09535
      17     H     0.45467  0.45467  0.00000  0.09066
      18     H     0.44454  0.44454  0.00000  0.11093
      19     H     0.45430  0.45430  0.00000  0.09141
      20     H     0.45146  0.45146  0.00000  0.09709
      21     H     0.43557  0.43557  0.00000  0.12887
      22     H     0.44868  0.44868  0.00000  0.10265

   Total alpha = 32.00000, Total beta = 32.00000, Total charge = -0.00000

*** Psi4 exiting successfully. Buy a developer a beer!
