  ==> Input File <==

--------------------------------------------------------------------------
set {
	reference rhf
	basis 6-31G*
}

set_num_threads( 4 )
memory 2 gb

molecule MOL {
0 1

H	 -2.646374	 -0.642757	 1.268656
C	 -2.083525	 -0.384536	 0.393091
O	 -0.807605	 -0.127164	 0.768327
F	 -2.118945	 -1.383102	 -0.486752
F	 -2.621877	 0.670592	 -0.209486
C	 0.084052	 0.273579	 -0.209957
C	 1.353033	 -0.546803	 -0.018071
Cl	 0.433844	 2.004619	 -0.074457
H	 -0.288836	 0.092657	 -1.202930
F	 2.322270	 0.209200	 0.452226
F	 1.733756	 -1.019421	 -1.188165
F	 1.170958	 -1.556139	 0.798055

	symmetry c1
}
set optking {
	frozen_dihedral = ("
		10 7 6 9
	")
}

ee = optimize('scf')
oeprop('DIPOLE', 'QUADRUPOLE', 'MULLIKEN_CHARGES')
f=open( 'psi4out.xyz', 'w' )
f.write( "12  " )
f.write( str(ee) + "\n" )
f.write( MOL.save_string_xyz() )
f.close()
--------------------------------------------------------------------------

    Molecular point group: c1
  Charge       = 0
  Multiplicity = 1
  Basis Set: 6-31G*
  Basis Set:
  @DF-RHF Final Energy: -1146.30356387331108
    Total Energy =                      -1146.3035638733108499
    Molecular point group: c1
  Basis Set: 6-31G*
  Basis Set:
  Basis Set: 6-31G*
  Basis Set:
  @DF-RHF Final Energy: -1146.30380062445238
    Total Energy =                      -1146.3038006244519238
  Basis Set: 6-31G*
  Basis Set:
  Basis Set: 6-31G*
  Basis Set:
  @DF-RHF Final Energy: -1146.30585222731906
    Total Energy =                      -1146.3058522273199742
  Basis Set: 6-31G*
  Basis Set:
  Basis Set: 6-31G*
  Basis Set:
  @DF-RHF Final Energy: -1146.30593826148197
    Total Energy =                      -1146.3059382614812876
  Basis Set: 6-31G*
  Basis Set:
  @DF-RHF Final Energy: -1146.30595554721640
    Total Energy =                      -1146.3059555472177635
  @DF-RHF Final Energy: -1146.30596473001947
    Total Energy =                      -1146.3059647300190136
  @DF-RHF Final Energy: -1146.30598183858501
    Total Energy =                      -1146.3059818385854669
  @DF-RHF Final Energy: -1146.30599855570745
    Total Energy =                      -1146.3059985557079017
  Basis Set: 6-31G*
  Basis Set:
  @DF-RHF Final Energy: -1146.30601855723080
    Total Energy =                      -1146.3060185572301179
  Basis Set: 6-31G*
  Basis Set:
  Basis Set: 6-31G*
  Basis Set:
  @DF-RHF Final Energy: -1146.30602479917616
    Total Energy =                      -1146.3060247991761571
  Basis Set: 6-31G*
  Basis Set:
  Basis Set: 6-31G*
  Basis Set:
  @DF-RHF Final Energy: -1146.30603062279465
    Total Energy =                      -1146.3060306227948786
  Basis Set: 6-31G*
  Basis Set:
  Charge       = 0
  Multiplicity = 1
  Basis Set: 6-31G*
  Basis Set:

    Orbital Energies (a.u.)
    -----------------------

    Doubly Occupied:

       1A   -104.844131     2A    -26.359244     3A    -26.357705
       4A    -26.355753     5A    -26.346920     6A    -26.346410
       7A    -20.647875     8A    -11.528792     9A    -11.489696
      10A    -11.401591    11A    -10.578675    12A     -8.048026
      13A     -8.044495    14A     -8.044380    15A     -1.761037
      16A     -1.717956    17A     -1.657727    18A     -1.653429
      19A     -1.638701    20A     -1.485587    21A     -1.177934
      22A     -1.045737    23A     -0.987706    24A     -0.919450
      25A     -0.856400    26A     -0.852646    27A     -0.844606
      28A     -0.826554    29A     -0.813552    30A     -0.790374
      31A     -0.727994    32A     -0.725667    33A     -0.703029
      34A     -0.701638    35A     -0.677607    36A     -0.672824
      37A     -0.657504    38A     -0.655833    39A     -0.646597
      40A     -0.631344    41A     -0.597070    42A     -0.576409
      43A     -0.524074    44A     -0.476463    45A     -0.467976

  @DF-RHF Final Energy: -1146.30603110828724

   => Energetics <=

    Nuclear Repulsion Energy =            737.3435652812109993
    One-Electron Energy =               -3057.5689572085320833
    Two-Electron Energy =                1173.9193608190348641
    DFT Exchange-Correlation Energy =       0.0000000000000000
    Empirical Dispersion Energy =           0.0000000000000000
    PCM Polarization Energy =               0.0000000000000000
    EFP Energy =                            0.0000000000000000
    Total Energy =                      -1146.3060311082863336
    Molecular point group: c1
  Basis Set: 6-31G*
  Basis Set:

  -Total Gradient:
     Atom            X                  Y                   Z
    ------   -----------------  -----------------  -----------------
       1       -0.000012165113     0.000016497991    -0.000003497695
       2        0.000013656533    -0.000047174166     0.000004714730
       3       -0.000011100130     0.000044624189    -0.000019816429
       4       -0.000028470745     0.000016332512    -0.000020176943
       5       -0.000005907270    -0.000003782046     0.000008173902
       6       -0.002866785283    -0.003808775134     0.000523069000
       7       -0.000949215838    -0.000627314071     0.004585388101
       8        0.000000004141    -0.000021715990     0.000006366412
       9        0.002694674404     0.003416013037    -0.001454545862
      10        0.001147058043     0.000989216409    -0.003621530977
      11       -0.000006123366    -0.000000512770    -0.000025705597
      12        0.000024374607     0.000026589946     0.000017561358

  **** Optimization is complete! (in 12 steps) ****
    Final optimized geometry and variables:
    Molecular point group: c1

    Geometry (in Angstrom), charge = 0, multiplicity = 1:

    H           -2.668872896893    -0.599595419655     1.262676333595
    C           -2.067287421682    -0.398161890591     0.398217525805
    O           -0.869856516671     0.077241775761     0.812159048504
    F           -1.906095312726    -1.507360573606    -0.321105231217
    F           -2.676184487993     0.480840426416    -0.393089589472
    C            0.061339814199     0.384160456131    -0.161839984996
    C            1.293795404273    -0.545036850802    -0.027787953074
    CL           0.509281824121     2.093158149006    -0.025871297557
    H           -0.321610367116     0.265752776663    -1.158781812156
    F            2.357286133114     0.048990343024     0.456125382878
    F            1.607528186170    -0.983535069678    -1.236640267690
    F            1.020867276508    -1.585859537172     0.721302202546

  Mulliken Charges: (a.u.)
   Center  Symbol    Alpha    Beta     Spin     Total
       1     H     0.40073  0.40073  0.00000  0.19853
       2     C     2.56632  2.56632  0.00000  0.86736
       3     O     4.29178  4.29178  0.00000 -0.58356
       4     F     4.68732  4.68732  0.00000 -0.37464
       5     F     4.68592  4.68592  0.00000 -0.37184
       6     C     3.07267  3.07267  0.00000 -0.14533
       7     C     2.42485  2.42485  0.00000  1.15031
       8    CL     8.49383  8.49383  0.00000  0.01234
       9     H     0.36090  0.36090  0.00000  0.27821
      10     F     4.66588  4.66588  0.00000 -0.33177
      11     F     4.68093  4.68093  0.00000 -0.36185
      12     F     4.66888  4.66888  0.00000 -0.33776

   Total alpha = 45.00000, Total beta = 45.00000, Total charge =  0.00000
