  ==> Input File <==

--------------------------------------------------------------------------
set {
	reference rhf
	basis cc-pvtz
}

set_num_threads( 4 )
memory 2 gb

molecule MOL {
0 1

H	 -2.698799	 -0.000846	 0.036018
C	 -1.694291	 -0.000483	 0.434279
O	 -0.828718	 -0.000608	 -0.655022
H	 -1.576855	 0.881100	 1.056504
H	 -1.576401	 -0.881658	 1.057001
C	 -1.241499	 -0.616951	 -1.849848
C	 -1.453672	 -2.118332	 -1.691394
C	 -2.445270	 0.074496	 -2.479994
H	 -0.394744	 -0.471060	 -2.508894
H	 -0.597116	 -2.571058	 -1.207235
H	 -1.575623	 -2.577059	 -2.665788
H	 -2.338694	 -2.348110	 -1.109568
H	 -2.276361	 1.142470	 -2.542805
H	 -2.603356	 -0.304586	 -3.483029
H	 -3.356562	 -0.097009	 -1.919037

	symmetry c1
}
set optking {
	frozen_dihedral = ("
		6 3 2 1
	")
}

ee = optimize('scf')
oeprop('DIPOLE', 'QUADRUPOLE', 'MULLIKEN_CHARGES')
f=open( 'psi4out.xyz', 'w' )
f.write( "15  " )
f.write( str(ee) + "\n" )
f.write( MOL.save_string_xyz() )
f.close()
--------------------------------------------------------------------------

    Molecular point group: c1
  Charge       = 0
  Multiplicity = 1
  Basis Set: CC-PVTZ
  Basis Set:
  @DF-RHF Final Energy:  -232.22257449555306
    Total Energy =                       -232.2225744955532605
    Molecular point group: c1
  Basis Set: CC-PVTZ
  Basis Set:
  Basis Set: CC-PVTZ
  Basis Set:
  @DF-RHF Final Energy:  -232.22431674868051
    Total Energy =                       -232.2243167486806215
  Basis Set: CC-PVTZ
  Basis Set:
  Basis Set: CC-PVTZ
  Basis Set:
  @DF-RHF Final Energy:  -232.22509269109037
    Total Energy =                       -232.2250926910902535
  Basis Set: CC-PVTZ
  Basis Set:
  Basis Set: CC-PVTZ
  Basis Set:
  @DF-RHF Final Energy:  -232.22511134826198
    Total Energy =                       -232.2251113482620326
  Basis Set: CC-PVTZ
  Basis Set:
  Basis Set: CC-PVTZ
  Basis Set:
  @DF-RHF Final Energy:  -232.22511650237971
    Total Energy =                       -232.2251165023798762
  Basis Set: CC-PVTZ
  Basis Set:
  Basis Set: CC-PVTZ
  Basis Set:
  @DF-RHF Final Energy:  -232.22511964675667
    Total Energy =                       -232.2251196467567524
  Basis Set: CC-PVTZ
  Basis Set:
  Charge       = 0
  Multiplicity = 1
  Basis Set: CC-PVTZ
  Basis Set:

    Orbital Energies (a.u.)
    -----------------------

    Doubly Occupied:

       1A    -20.540583     2A    -11.272972     3A    -11.258938
       4A    -11.209325     5A    -11.208048     6A     -1.372413
       7A     -1.051182     8A     -0.940666     9A     -0.931387
      10A     -0.781711    11A     -0.677040    12A     -0.641182
      13A     -0.634073    14A     -0.571730    15A     -0.563797
      16A     -0.553239    17A     -0.536234    18A     -0.500553
      19A     -0.498173    20A     -0.444416    21A     -0.407189

  @DF-RHF Final Energy:  -232.22512002269926

   => Energetics <=

    Nuclear Repulsion Energy =            199.0184807750263474
    One-Electron Energy =                -709.2974975592670717
    Two-Electron Energy =                 278.0538967615411821
    DFT Exchange-Correlation Energy =       0.0000000000000000
    Empirical Dispersion Energy =           0.0000000000000000
    PCM Polarization Energy =               0.0000000000000000
    EFP Energy =                            0.0000000000000000
    Total Energy =                       -232.2251200226995707
    Molecular point group: c1
  Basis Set: CC-PVTZ
  Basis Set:

  -Total Gradient:
     Atom            X                  Y                   Z
    ------   -----------------  -----------------  -----------------
       1        0.000175417644    -0.001916781387     0.000007610545
       2       -0.000621777412     0.003125102479    -0.000219323546
       3        0.001169065603    -0.002487921223     0.000665939419
       4        0.000002062848    -0.000005484416    -0.000000461182
       5       -0.000005589172     0.000005258475     0.000011030370
       6       -0.000703837102     0.001301444048    -0.000445789858
       7       -0.000014476484    -0.000016021360    -0.000012155866
       8        0.000007677826    -0.000002295835     0.000014947237
       9       -0.000011805367     0.000000799475    -0.000017109028
      10        0.000002149732     0.000008688173    -0.000011324956
      11       -0.000006183681    -0.000007905965    -0.000001069803
      12       -0.000003436108    -0.000004633324     0.000006923306
      13       -0.000001596004     0.000006582702    -0.000004173996
      14        0.000010991242    -0.000005616149     0.000007784669
      15        0.000001336436    -0.000001215695    -0.000002827311

  **** Optimization is complete! (in 7 steps) ****
    Final optimized geometry and variables:
    Molecular point group: c1

    Geometry (in Angstrom), charge = 0, multiplicity = 1:

    H           -1.198475879585     0.378594203891     1.411145903849
    C           -0.152560533928     0.473849391523     1.678294667159
    O            0.685929861132     0.562648042783     0.568607539882
    H           -0.026909804706     1.375132098950     2.262175594186
    H            0.109233051870    -0.377333354668     2.300392163544
    C            0.307334629861    -0.079429113380    -0.623607788791
    C            0.086661564327    -1.576042191580    -0.437143838500
    C           -0.874453944240     0.607837839546    -1.298594828527
    H            1.171017130081     0.050805937663    -1.263776629647
    H            0.946137447750    -2.027071888032     0.043685299831
    H           -0.053995193877    -2.053793318585    -1.399740617339
    H           -0.790547079331    -1.784987606903     0.164816260531
    H           -0.683683435111     1.669491440791    -1.393568207477
    H           -1.022832320440     0.197367630806    -2.290980297578
    H           -1.798908318864     0.474110782741    -0.749196783862

  Mulliken Charges: (a.u.)
   Center  Symbol    Alpha    Beta     Spin     Total
       1     H     0.46994  0.46994  0.00000  0.06011
       2     C     3.04012  3.04012  0.00000 -0.08023
       3     O     4.18557  4.18557  0.00000 -0.37113
       4     H     0.44485  0.44485  0.00000  0.11031
       5     H     0.46302  0.46302  0.00000  0.07396
       6     C     2.93805  2.93805  0.00000  0.12390
       7     C     3.15818  3.15818  0.00000 -0.31637
       8     C     3.15363  3.15363  0.00000 -0.30725
       9     H     0.44652  0.44652  0.00000  0.10696
      10     H     0.44438  0.44438  0.00000  0.11124
      11     H     0.44861  0.44861  0.00000  0.10279
      12     H     0.45525  0.45525  0.00000  0.08949
      13     H     0.44477  0.44477  0.00000  0.11046
      14     H     0.45129  0.45129  0.00000  0.09742
      15     H     0.45582  0.45582  0.00000  0.08835

   Total alpha = 21.00000, Total beta = 21.00000, Total charge = -0.00000
