                              Psi4 1.0.54 Driver

  ==> Input File <==

--------------------------------------------------------------------------
set {
	reference rhf
	basis cc-pvtz
}

set_num_threads( 4 )
memory 2 gb

molecule MOL {
0 1

O	 -2.440701	 -0.934798	 -0.415053
C	 -1.922978	 0.063265	 -0.045005
C	 -2.632749	 1.372204	 0.158357
O	 -0.637375	 0.157174	 0.243149
H	 -2.187724	 2.129143	 -0.474664
H	 -3.677681	 1.257276	 -0.079438
H	 -2.516788	 1.693160	 1.185542
C	 0.162530	 -1.009518	 0.097799
C	 1.587210	 -0.664190	 0.477086
H	 0.096803	 -1.356267	 -0.924704
H	 -0.233803	 -1.785900	 0.736810
C	 1.707065	 0.259088	 1.686614
H	 2.046397	 -0.192359	 -0.387356
H	 2.135509	 -1.583664	 0.658119
C	 3.153982	 0.606841	 2.019953
H	 1.151324	 1.172892	 1.493712
H	 1.240154	 -0.210187	 2.544879
H	 3.209878	 1.265578	 2.878631
H	 3.640433	 1.105901	 1.188269
H	 3.727381	 -0.284967	 2.249971

	symmetry c1
}
set optking {
	frozen_dihedral = ("
		12 9 8 10
	")
}

ee,wfn = optimize('scf', return_wfn=True)
oeprop( wfn, 'DIPOLE', 'QUADRUPOLE', 'MULLIKEN_CHARGES')
f=open( 'psi4out.xyz', 'w' )
f.write( "20  " )
f.write( str(ee) + "\n" )
f.write( MOL.save_string_xyz() )
f.close()
--------------------------------------------------------------------------

    Molecular point group: c1
  Charge       = 0
  Multiplicity = 1
  Basis Set: CC-PVTZ
  Basis Set:
  @DF-RHF Final Energy:  -384.08422166938198
    Total Energy =                       -384.0842216693814635
    Molecular point group: c1
  Basis Set: CC-PVTZ
  Basis Set:
  Basis Set: CC-PVTZ
  Basis Set:
  @DF-RHF Final Energy:  -383.12312417422169
    Total Energy =                       -383.1231241742218572
  Basis Set: CC-PVTZ
  Basis Set:
  Basis Set: CC-PVTZ
  Basis Set:
  @DF-RHF Final Energy:  -383.35048533765973
    Total Energy =                       -383.3504853376595065
  Basis Set: CC-PVTZ
  Basis Set:
  Basis Set: CC-PVTZ
  Basis Set:
  @DF-RHF Final Energy:  -383.74952361966842
    Total Energy =                       -383.7495236196685369
  Basis Set: CC-PVTZ
  Basis Set:
  @DF-RHF Final Energy:  -383.96766208076713
    Total Energy =                       -383.9676620807672975
  @DF-RHF Final Energy:  -384.06469657819542
    Total Energy =                       -384.0646965781950257
  @DF-RHF Final Energy:  -384.08402327866150
    Total Energy =                       -384.0840232786607658
  @DF-RHF Final Energy:  -384.08466535669550
    Total Energy =                       -384.0846653566958366
  @DF-RHF Final Energy:  -384.08233503409321
    Total Energy =                       -384.0823350340931484
  Basis Set: CC-PVTZ
  Basis Set:
  @DF-RHF Final Energy:  -384.08480121437134
    Total Energy =                       -384.0848012143712822
  Basis Set: CC-PVTZ
  Basis Set:
  Basis Set: CC-PVTZ
  Basis Set:
  @DF-RHF Final Energy:  -384.08494620096775
    Total Energy =                       -384.0849462009679200
  Basis Set: CC-PVTZ
  Basis Set:
  Basis Set: CC-PVTZ
  Basis Set:
  @DF-RHF Final Energy:  -384.08496171164290
    Total Energy =                       -384.0849617116429044
  Basis Set: CC-PVTZ
  Basis Set:
  Charge       = 0
  Multiplicity = 1
  Basis Set: CC-PVTZ
  Basis Set:

    Orbital Energies (a.u.)
    -----------------------

    Doubly Occupied:

       1A    -20.593555     2A    -20.532364     3A    -11.366389
       4A    -11.280957     5A    -11.231551     6A    -11.224143
       7A    -11.217970     8A    -11.211042     9A     -1.470593
      10A     -1.364707    11A     -1.085627    12A     -1.028795
      13A     -0.981659    14A     -0.881356    15A     -0.816172
      16A     -0.768463    17A     -0.692341    18A     -0.690443
      19A     -0.669483    20A     -0.634491    21A     -0.598566
      22A     -0.594286    23A     -0.573611    24A     -0.549542
      25A     -0.546368    26A     -0.534490    27A     -0.511425
      28A     -0.484828    29A     -0.475234    30A     -0.470453
      31A     -0.451703    32A     -0.441935

  @DF-RHF Final Energy:  -384.08496232201861

   => Energetics <=

    Nuclear Repulsion Energy =            386.8410570890336544
    One-Electron Energy =               -1289.9029672939127522
    Two-Electron Energy =                 518.9769478828601450
    DFT Exchange-Correlation Energy =       0.0000000000000000
    Empirical Dispersion Energy =           0.0000000000000000
    PCM Polarization Energy =               0.0000000000000000
    EFP Energy =                            0.0000000000000000
    Total Energy =                       -384.0849623220188960
    Molecular point group: c1
  Basis Set: CC-PVTZ
  Basis Set:

  -Total Gradient:
     Atom            X                  Y                   Z
    ------   -----------------  -----------------  -----------------
       1       -0.000016478250     0.000024676051    -0.000025783684
       2        0.000063674208     0.000015894757     0.000099212400
       3        0.000013816919    -0.000037154556    -0.000020438893
       4       -0.000079644206     0.000022540860    -0.000113119759
       5       -0.000004046147     0.000010820210    -0.000003688259
       6       -0.000002804869    -0.000006264950    -0.000018343724
       7       -0.000002956142     0.000012641714     0.000022222699
       8        0.002446010280    -0.005092514418     0.000314911153
       9       -0.000049194425    -0.004452254798     0.001672554489
      10       -0.002075358867     0.005388396767    -0.000650172758
      11        0.000014446424     0.000026288744    -0.000010262145
      12       -0.000336727343     0.004140835764    -0.001276406102
      13       -0.000026748520     0.000018932409     0.000001168342
      14        0.000009619804    -0.000003196391     0.000001567893
      15        0.000041702473    -0.000088179098    -0.000007375124
      16       -0.000000454094     0.000008401567     0.000002584219
      17        0.000025236744    -0.000026016714    -0.000002748391
      18       -0.000025084075     0.000011039037     0.000015276887
      19       -0.000002883674     0.000023626205    -0.000008477754
      20        0.000007873757     0.000001486838     0.000007318513

  **** Optimization is complete! (in 13 steps) ****
    Final optimized geometry and variables:
    Molecular point group: c1

    Geometry (in Angstrom), charge = 0, multiplicity = 1:

    O           -0.942119821767    -0.863233445083    -2.334413317338
    C           -1.131906061651    -0.021137557943    -1.524295756823
    C           -2.295115978452     0.930103153581    -1.535547547377
    O           -0.336572124298     0.194657279905    -0.492862811452
    H           -1.931065283929     1.948551181117    -1.578887734462
    H           -2.922500934963     0.723638075190    -2.387298135474
    H           -2.861943049825     0.822234021948    -0.619752652056
    C            0.813725986829    -0.635554319304    -0.358491122077
    C            1.596270412001    -0.197566732545     0.869770705679
    H            1.403871670902    -0.507496532593    -1.254141972808
    H            0.493243226698    -1.665117179834    -0.289268109439
    C            0.750346594809     0.122055482404     2.100248413848
    H            2.181675086699     0.681918814957     0.617551418767
    H            2.308496862950    -0.984821459027     1.097981117870
    C            1.605716839158     0.452484860956     3.318953423337
    H            0.096224879370     0.954452778233     1.878044790093
    H            0.105756276843    -0.722431758435     2.330550474248
    H            0.987070706766     0.691098720679     4.176217115236
    H            2.246660657560     1.306802395081     3.126964328465
    H            2.242585410276    -0.382061571924     3.592766960106

  Mulliken Charges: (a.u.)
   Center  Symbol    Alpha    Beta     Spin     Total
       1     O     4.19790  4.19790  0.00000 -0.39580
       2     C     2.80829  2.80829  0.00000  0.38343
       3     C     3.13900  3.13900  0.00000 -0.27800
       4     O     4.15244  4.15244  0.00000 -0.30488
       5     H     0.44590  0.44590  0.00000  0.10821
       6     H     0.43734  0.43734  0.00000  0.12532
       7     H     0.44592  0.44592  0.00000  0.10816
       8     C     2.99389  2.99389  0.00000  0.01221
       9     C     3.08842  3.08842  0.00000 -0.17684
      10     H     0.44545  0.44545  0.00000  0.10910
      11     H     0.44921  0.44921  0.00000  0.10157
      12     C     3.08263  3.08263  0.00000 -0.16527
      13     H     0.45272  0.45272  0.00000  0.09455
      14     H     0.45163  0.45163  0.00000  0.09673
      15     C     3.15095  3.15095  0.00000 -0.30190
      16     H     0.44522  0.44522  0.00000  0.10955
      17     H     0.45537  0.45537  0.00000  0.08926
      18     H     0.44740  0.44740  0.00000  0.10521
      19     H     0.45487  0.45487  0.00000  0.09026
      20     H     0.45543  0.45543  0.00000  0.08913

   Total alpha = 32.00000, Total beta = 32.00000, Total charge =  0.00000

*** Psi4 exiting successfully. Buy a developer a beer!
