                              Psi4 1.0.54 Driver

  ==> Input File <==

--------------------------------------------------------------------------
set {
	reference rhf
	basis cc-pvtz
}

set_num_threads( 4 )
memory 2 gb

molecule MOL {
0 1

H	 -3.162190	 0.493205	 -0.000107
C	 -2.363908	 -0.234727	 0.000005
O	 -1.158738	 0.454634	 -0.000087
H	 -2.464314	 -0.863616	 -0.882153
H	 -2.464327	 -0.863359	 0.882345
C	 -0.259069	 0.043071	 -0.980663
C	 1.007467	 0.868251	 -0.874091
H	 -0.703116	 0.162313	 -1.969219
H	 -0.029384	 -1.015479	 -0.856739
C	 2.047127	 0.476733	 -1.918203
H	 0.747322	 1.915605	 -0.980397
H	 1.415717	 0.747131	 0.123213
H	 1.667157	 0.613542	 -2.925176
H	 2.940373	 1.081196	 -1.819437
H	 2.340237	 -0.562641	 -1.814006

	symmetry c1
}
set optking {
	frozen_dihedral = ("
		6 3 2 4
	")
}

ee,wfn = optimize('scf', return_wfn=True)
oeprop( wfn, 'DIPOLE', 'QUADRUPOLE', 'MULLIKEN_CHARGES')
f=open( 'psi4out.xyz', 'w' )
f.write( "15  " )
f.write( str(ee) + "\n" )
f.write( MOL.save_string_xyz() )
f.close()
--------------------------------------------------------------------------

    Molecular point group: c1
  Charge       = 0
  Multiplicity = 1
  Basis Set: CC-PVTZ
  Basis Set:
  @DF-RHF Final Energy:  -232.22443908114280
    Total Energy =                       -232.2244390811427479
    Molecular point group: c1
  Basis Set: CC-PVTZ
  Basis Set:
  Basis Set: CC-PVTZ
  Basis Set:
  @DF-RHF Final Energy:  -232.22471745870507
    Total Energy =                       -232.2247174587051290
  Basis Set: CC-PVTZ
  Basis Set:
  Basis Set: CC-PVTZ
  Basis Set:
  @DF-RHF Final Energy:  -232.22481057086267
    Total Energy =                       -232.2248105708628145
  Basis Set: CC-PVTZ
  Basis Set:
  Charge       = 0
  Multiplicity = 1
  Basis Set: CC-PVTZ
  Basis Set:

    Orbital Energies (a.u.)
    -----------------------

    Doubly Occupied:

       1A    -20.544104     2A    -11.264885     3A    -11.261301
       4A    -11.212240     5A    -11.210467     6A     -1.377074
       7A     -1.058035     8A     -0.956103     9A     -0.877411
      10A     -0.809211    11A     -0.673272    12A     -0.653957
      13A     -0.631696    14A     -0.608301    15A     -0.563716
      16A     -0.545394    17A     -0.502935    18A     -0.489599
      19A     -0.479168    20A     -0.462033    21A     -0.411227

  @DF-RHF Final Energy:  -232.22481116072925

   => Energetics <=

    Nuclear Repulsion Energy =            189.6815942529594849
    One-Electron Energy =                -690.6285548002203996
    Two-Electron Energy =                 268.7221493865315551
    DFT Exchange-Correlation Energy =       0.0000000000000000
    Empirical Dispersion Energy =           0.0000000000000000
    PCM Polarization Energy =               0.0000000000000000
    EFP Energy =                            0.0000000000000000
    Total Energy =                       -232.2248111607293595
    Molecular point group: c1
  Basis Set: CC-PVTZ
  Basis Set:

  -Total Gradient:
     Atom            X                  Y                   Z
    ------   -----------------  -----------------  -----------------
       1       -0.000031855098    -0.000001730317    -0.000002085671
       2       -0.000922628662     0.001823123350    -0.001214228290
       3        0.000631541489    -0.001488004254     0.001269941828
       4        0.000630343817    -0.001077442515     0.000702846884
       5        0.000018157050    -0.000008827061     0.000002172479
       6       -0.000349369056     0.000734068223    -0.000714301500
       7       -0.000014260582    -0.000012859364    -0.000020138127
       8       -0.000005796538     0.000009814498     0.000029296881
       9       -0.000006770445     0.000010053852    -0.000014195956
      10        0.000042201262     0.000021783230    -0.000014843008
      11        0.000005951458    -0.000002234556     0.000000659008
      12       -0.000017292125    -0.000006276423    -0.000009979484
      13        0.000003161232    -0.000002053936     0.000000882523
      14        0.000020523744    -0.000004689700    -0.000017862071
      15       -0.000003907547     0.000005274973     0.000001834505

  **** Optimization is complete! (in 4 steps) ****
    Final optimized geometry and variables:
    Molecular point group: c1

    Geometry (in Angstrom), charge = 0, multiplicity = 1:

    H           -3.016876007847     0.223449103064     0.755542836259
    C           -2.216433941395    -0.505859469505     0.744593499936
    O           -0.988676232586     0.153878586136     0.727041493300
    H           -2.343951735108    -1.148681028924    -0.120541119018
    H           -2.298682931087    -1.123531802293     1.633380420464
    C           -0.076924398223    -0.273040171059    -0.237383335137
    C            1.192277169626     0.545640827992    -0.114465883623
    H           -0.502419422854    -0.155756919919    -1.233508640614
    H            0.147866506475    -1.331240147896    -0.104344440815
    C            2.245577822545     0.144647108770    -1.141464176189
    H            0.939239774478     1.594012955370    -0.228391136060
    H            1.584770426735     0.426321418400     0.889386964074
    H            1.881640174401     0.279837595960    -2.154618164223
    H            3.140755053552     0.744489907407    -1.031562971649
    H            2.531341866062    -0.895981533537    -1.029140326101

  Mulliken Charges: (a.u.)
   Center  Symbol    Alpha    Beta     Spin     Total
       1     H     0.45534  0.45534  0.00000  0.08932
       2     C     3.02907  3.02907  0.00000 -0.05813
       3     O     4.17643  4.17643  0.00000 -0.35285
       4     H     0.47340  0.47340  0.00000  0.05319
       5     H     0.46050  0.46050  0.00000  0.07900
       6     C     2.95535  2.95535  0.00000  0.08931
       7     C     3.08210  3.08210  0.00000 -0.16419
       8     H     0.47542  0.47542  0.00000  0.04916
       9     H     0.47609  0.47609  0.00000  0.04783
      10     C     3.15592  3.15592  0.00000 -0.31183
      11     H     0.45123  0.45123  0.00000  0.09754
      12     H     0.45113  0.45113  0.00000  0.09774
      13     H     0.45590  0.45590  0.00000  0.08820
      14     H     0.44629  0.44629  0.00000  0.10743
      15     H     0.45585  0.45585  0.00000  0.08830

   Total alpha = 21.00000, Total beta = 21.00000, Total charge = -0.00000

*** Psi4 exiting successfully. Buy a developer a beer!
