  ==> Input File <==

--------------------------------------------------------------------------
set {
	reference rhf
	basis 6-31G*
}

set_num_threads( 1 )
memory 2 gb

molecule MOL {
0 1

O	 0.625848	 1.349995	 -0.000749
C	 0.486307	 0.169203	 0.000779
C	 1.608116	 -0.841643	 0.000302
O	 -0.698257	 -0.426125	 0.001050
C	 2.990107	 -0.200498	 -0.000684
H	 1.468623	 -1.481519	 -0.865924
H	 1.469683	 -1.481289	 0.866878
H	 3.129736	 0.423364	 -0.875135
H	 3.757882	 -0.966877	 -0.001197
H	 3.130964	 0.423383	 0.873533
C	 -1.002191	 -1.285840	 1.094629
C	 -2.394414	 -1.835389	 0.866545
H	 -0.941276	 -0.720799	 2.014739
H	 -0.263400	 -2.074379	 1.139166
H	 -3.121754	 -1.032975	 0.818939
H	 -2.667670	 -2.498810	 1.680703
H	 -2.440264	 -2.394043	 -0.061388

	symmetry c1
}
set optking {
	frozen_dihedral = ("
		2 4 11 13,
		4 2 3 6
	")
}

ee = energy('scf')
oeprop('DIPOLE', 'QUADRUPOLE', 'MULLIKEN_CHARGES')
f=open( 'psi4out.xyz', 'w' )
f.write( "17  " )
f.write( str(ee) + "\n" )
f.write( MOL.save_string_xyz() )
f.close()
--------------------------------------------------------------------------

    Molecular point group: c1

    Geometry (in Angstrom), charge = 0, multiplicity = 1:

       Center              X                  Y                   Z               Mass
    ------------   -----------------  -----------------  -----------------  -----------------
           O          0.403966563725     1.791358182937    -0.286614326177    15.994914619560
           C          0.264425563725     0.610566182937    -0.285086326177    12.000000000000
           C          1.386234563725    -0.400279817063    -0.285563326177    12.000000000000
           O         -0.920138436275     0.015238182937    -0.284815326177    15.994914619560
           C          2.768225563725     0.240865182937    -0.286549326177    12.000000000000
           H          1.246741563725    -1.040155817063    -1.151789326177     1.007825032070
           H          1.247801563725    -1.039925817063     0.581012673823     1.007825032070
           H          2.907854563725     0.864727182937    -1.161000326177     1.007825032070
           H          3.536000563725    -0.525513817063    -0.287062326177     1.007825032070
           H          2.909082563725     0.864746182937     0.587667673823     1.007825032070
           C         -1.224072436275    -0.844476817063     0.808763673823    12.000000000000
           C         -2.616295436275    -1.394025817063     0.580679673823    12.000000000000
           H         -1.163157436275    -0.279435817063     1.728873673823     1.007825032070
           H         -0.485281436275    -1.633015817063     0.853300673823     1.007825032070
           H         -3.343635436275    -0.591611817063     0.533073673823     1.007825032070
           H         -2.889551436275    -2.057446817063     1.394837673823     1.007825032070
           H         -2.662145436275    -1.952679817063    -0.347253326177     1.007825032070

  Charge       = 0
  Multiplicity = 1
  Basis Set: 6-31G*
  Basis Set:

    Orbital Energies (a.u.)
    -----------------------

    Doubly Occupied:

       1A    -20.589765     2A    -20.551725     3A    -11.372832
       4A    -11.300888     5A    -11.239913     6A    -11.229005
       7A    -11.217661     8A     -1.462982     9A     -1.368056
      10A     -1.064239    11A     -1.044905    12A     -0.902544
      13A     -0.879995    14A     -0.772510    15A     -0.701730
      16A     -0.689302    17A     -0.659336    18A     -0.640785
      19A     -0.602094    20A     -0.567237    21A     -0.557883
      22A     -0.538500    23A     -0.529305    24A     -0.518240
      25A     -0.510237    26A     -0.482842    27A     -0.453908
      28A     -0.432050

  @DF-RHF Final Energy:  -344.88711131247544

   => Energetics <=

    Nuclear Repulsion Energy =            316.9324954457279091
    One-Electron Energy =               -1097.8782126637097463
    Two-Electron Energy =                 436.0586059055055443
    DFT Exchange-Correlation Energy =       0.0000000000000000
    Empirical Dispersion Energy =           0.0000000000000000
    PCM Polarization Energy =               0.0000000000000000
    EFP Energy =                            0.0000000000000000
    Total Energy =                       -344.8871113124762928

  Mulliken Charges: (a.u.)
   Center  Symbol    Alpha    Beta     Spin     Total
       1     O     4.26050  4.26050  0.00000 -0.52101
       2     C     2.60759  2.60759  0.00000  0.78482
       3     C     3.22237  3.22237  0.00000 -0.44475
       4     O     4.31113  4.31113  0.00000 -0.62226
       5     C     3.23726  3.23726  0.00000 -0.47451
       6     H     0.39913  0.39913  0.00000  0.20173
       7     H     0.40613  0.40613  0.00000  0.18773
       8     H     0.40823  0.40823  0.00000  0.18354
       9     H     0.41940  0.41940  0.00000  0.16121
      10     H     0.41057  0.41057  0.00000  0.17886
      11     C     3.00869  3.00869  0.00000 -0.01737
      12     C     3.24589  3.24589  0.00000 -0.49178
      13     H     0.41251  0.41251  0.00000  0.17498
      14     H     0.41911  0.41911  0.00000  0.16177
      15     H     0.40495  0.40495  0.00000  0.19010
      16     H     0.41722  0.41722  0.00000  0.16556
      17     H     0.40931  0.40931  0.00000  0.18138

   Total alpha = 28.00000, Total beta = 28.00000, Total charge = -0.00000
