  ==> Input File <==

--------------------------------------------------------------------------
set {
	reference rhf
	basis 6-31G*
}

set_num_threads( 1 )
memory 2 gb

molecule MOL {
0 1

H	 -1.266996	 -0.590427	 0.756254
N	 -0.626943	 -0.667432	 -0.000092
C	 -0.915411	 -1.623227	 -1.045060
C	 0.469286	 0.129090	 0.000148
H	 -0.966436	 -2.630957	 -0.646459
H	 -0.122915	 -1.574916	 -1.773994
H	 -1.856943	 -1.393830	 -1.532836
C	 1.788933	 -0.616240	 -0.000037
O	 0.411098	 1.327768	 -0.000049
H	 1.872803	 -1.245775	 -0.880381
H	 2.595421	 0.101576	 0.003713
H	 1.870096	 -1.252171	 0.875943

	symmetry c1
}
set optking {
	frozen_dihedral = ("
		4 2 3 5
	")
}

ee = energy('scf')
oeprop('DIPOLE', 'QUADRUPOLE', 'MULLIKEN_CHARGES')
f=open( 'psi4out.xyz', 'w' )
f.write( "12  " )
f.write( str(ee) + "\n" )
f.write( MOL.save_string_xyz() )
f.close()
--------------------------------------------------------------------------

    Molecular point group: c1

    Geometry (in Angstrom), charge = 0, multiplicity = 1:

       Center              X                  Y                   Z               Mass
    ------------   -----------------  -----------------  -----------------  -----------------
           H         -1.486723519764    -0.288086932783     0.972046555649     1.007825032070
           N         -0.846670519764    -0.365091932783     0.215700555649    14.003074004780
           C         -1.135138519764    -1.320886932783    -0.829267444351    12.000000000000
           C          0.249558480236     0.431430067217     0.215940555649    12.000000000000
           H         -1.186163519764    -2.328616932783    -0.430666444351     1.007825032070
           H         -0.342642519764    -1.272575932783    -1.558201444351     1.007825032070
           H         -2.076670519764    -1.091489932783    -1.317043444351     1.007825032070
           C          1.569205480236    -0.313899932783     0.215755555649    12.000000000000
           O          0.191370480236     1.630108067217     0.215743555649    15.994914619560
           H          1.653075480236    -0.943434932783    -0.664588444351     1.007825032070
           H          2.375693480236     0.403916067217     0.219505555649     1.007825032070
           H          1.650368480236    -0.949830932783     1.091735555649     1.007825032070

  Charge       = 0
  Multiplicity = 1
  Basis Set: 6-31G*
  Basis Set:

    Orbital Energies (a.u.)
    -----------------------

    Doubly Occupied:

       1A    -20.537258     2A    -15.555626     3A    -11.346172
       4A    -11.265969     5A    -11.224848     6A     -1.392540
       7A     -1.224268     8A     -1.002547     9A     -0.946504
      10A     -0.784385    11A     -0.679261    12A     -0.654678
      13A     -0.639088    14A     -0.592967    15A     -0.580975
      16A     -0.565688    17A     -0.554852    18A     -0.489096
      19A     -0.421090    20A     -0.374033

  @DF-RHF Final Energy:  -246.97274355527196

   => Energetics <=

    Nuclear Repulsion Energy =            181.4673194185568263
    One-Electron Energy =                -695.2163817637000420
    Two-Electron Energy =                 266.7763187898709134
    DFT Exchange-Correlation Energy =       0.0000000000000000
    Empirical Dispersion Energy =           0.0000000000000000
    PCM Polarization Energy =               0.0000000000000000
    EFP Energy =                            0.0000000000000000
    Total Energy =                       -246.9727435552723023

  Mulliken Charges: (a.u.)
   Center  Symbol    Alpha    Beta     Spin     Total
       1     H     0.30689  0.30689  0.00000  0.38622
       2     N     3.89698  3.89698  0.00000 -0.79397
       3     C     3.13540  3.13540  0.00000 -0.27081
       4     C     2.65791  2.65791  0.00000  0.68417
       5     H     0.41818  0.41818  0.00000  0.16364
       6     H     0.41275  0.41275  0.00000  0.17450
       7     H     0.40919  0.40919  0.00000  0.18161
       8     C     3.28250  3.28250  0.00000 -0.56500
       9     O     4.26358  4.26358  0.00000 -0.52716
      10     H     0.41101  0.41101  0.00000  0.17798
      11     H     0.39913  0.39913  0.00000  0.20175
      12     H     0.40646  0.40646  0.00000  0.18708

   Total alpha = 20.00000, Total beta = 20.00000, Total charge = -0.00000
