  ==> Input File <==

--------------------------------------------------------------------------
set {
	reference rhf
	basis 6-31G*
}

set_num_threads( 4 )
memory 2 gb

molecule MOL {
0 1

H	 -3.161837	 0.500524	 -0.000234
C	 -2.367097	 -0.232926	 -0.000000
O	 -1.158440	 0.455814	 -0.000122
H	 -2.468853	 -0.861886	 -0.882833
H	 -2.468942	 -0.861421	 0.883154
C	 -0.029776	 -0.365156	 0.000148
C	 1.212217	 0.508981	 0.000007
H	 -0.036772	 -1.013236	 -0.877259
H	 -0.036869	 -1.012778	 0.877897
C	 2.481573	 -0.279114	 0.320196
H	 1.300098	 0.982026	 -0.973218
H	 1.072563	 1.305727	 0.724156
H	 2.653155	 -1.067169	 -0.407782
H	 3.351597	 0.368855	 0.313781
H	 2.423746	 -0.741837	 1.301495

	symmetry c1
}
set optking {
	frozen_dihedral = ("
		11 7 6 8
	")
}

ee = optimize('scf')
oeprop('DIPOLE', 'QUADRUPOLE', 'MULLIKEN_CHARGES')
f=open( 'psi4out.xyz', 'w' )
f.write( "15  " )
f.write( str(ee) + "\n" )
f.write( MOL.save_string_xyz() )
f.close()
--------------------------------------------------------------------------

    Molecular point group: c1
  Charge       = 0
  Multiplicity = 1
  Basis Set: 6-31G*
  Basis Set:
  @DF-RHF Final Energy:  -232.13874397572567
    Total Energy =                       -232.1387439757256743
    Molecular point group: c1
  Basis Set: 6-31G*
  Basis Set:
  Basis Set: 6-31G*
  Basis Set:
  @DF-RHF Final Energy:  -232.13882583464243
    Total Energy =                       -232.1388258346425459
  Basis Set: 6-31G*
  Basis Set:
  Basis Set: 6-31G*
  Basis Set:
  @DF-RHF Final Energy:  -232.13885604266088
    Total Energy =                       -232.1388560426606773
  Basis Set: 6-31G*
  Basis Set:
  Charge       = 0
  Multiplicity = 1
  Basis Set: 6-31G*
  Basis Set:

    Orbital Energies (a.u.)
    -----------------------

    Doubly Occupied:

       1A    -20.552939     2A    -11.266358     3A    -11.263753
       4A    -11.214375     5A    -11.212743     6A     -1.377654
       7A     -1.056974     8A     -0.954958     9A     -0.876950
      10A     -0.808929    11A     -0.675122    12A     -0.653247
      13A     -0.630269    14A     -0.607186    15A     -0.565574
      16A     -0.542129    17A     -0.501102    18A     -0.488514
      19A     -0.478993    20A     -0.461298    21A     -0.413720

  @DF-RHF Final Energy:  -232.13885648987895

   => Energetics <=

    Nuclear Repulsion Energy =            189.7147050480544976
    One-Electron Energy =                -690.5015479720564144
    Two-Electron Energy =                 268.6479864341229700
    DFT Exchange-Correlation Energy =       0.0000000000000000
    Empirical Dispersion Energy =           0.0000000000000000
    PCM Polarization Energy =               0.0000000000000000
    EFP Energy =                            0.0000000000000000
    Total Energy =                       -232.1388564898789468
    Molecular point group: c1
  Basis Set: 6-31G*
  Basis Set:

  -Total Gradient:
     Atom            X                  Y                   Z
    ------   -----------------  -----------------  -----------------
       1        0.000008525586    -0.000001414251     0.000003591732
       2       -0.000030588347    -0.000004594879    -0.000003537378
       3        0.000029255299    -0.000009326689     0.000020096200
       4        0.000000124287    -0.000000041668     0.000001266075
       5       -0.000000957355     0.000002628723    -0.000001122782
       6        0.001896066383    -0.002712526906     0.001412272990
       7       -0.002068070704     0.002961534644     0.000745339711
       8       -0.001294728716     0.001810722313    -0.001349884879
       9        0.000026913627     0.000016555149    -0.000004996827
      10       -0.000001826653     0.000010409463     0.000017860847
      11        0.001403241305    -0.002038497950    -0.000861587315
      12        0.000003374247    -0.000020433373     0.000006805429
      13       -0.000010886500    -0.000001674992     0.000006893417
      14        0.000005317098    -0.000005119924    -0.000010608689
      15        0.000034240447    -0.000008219662     0.000017611469

  **** Optimization is complete! (in 4 steps) ****
    Final optimized geometry and variables:
    Molecular point group: c1

    Geometry (in Angstrom), charge = 0, multiplicity = 1:

    H           -3.159500334818     0.490820183020    -0.094464436422
    C           -2.363424572027    -0.241213464154    -0.086456398743
    O           -1.156112062588     0.448919882957    -0.058495866746
    H           -2.448341148776    -0.862641535206    -0.976445162790
    H           -2.480242959499    -0.877829946119     0.789103272979
    C           -0.025451608072    -0.372197456821    -0.040391637647
    C            1.214526838470     0.507257757858    -0.051854414619
    H           -0.035262740456    -1.022058217056    -0.915828260099
    H           -0.038660466246    -1.007060983411     0.845945075046
    C            2.490224550266    -0.285065105333     0.236779318155
    H            1.298416822338     0.980385444584    -1.025453406862
    H            1.085271001459     1.294100692549     0.683582581122
    H            2.630600896203    -1.086527216423    -0.483671576950
    H            3.364286583118     0.355726875514     0.187338774348
    H            2.463869071442    -0.731430712755     1.226753686701

  Mulliken Charges: (a.u.)
   Center  Symbol    Alpha    Beta     Spin     Total
       1     H     0.41224  0.41224  0.00000  0.17552
       2     C     3.07928  3.07928  0.00000 -0.15856
       3     O     4.30624  4.30624  0.00000 -0.61247
       4     H     0.43062  0.43062  0.00000  0.13876
       5     H     0.43064  0.43064  0.00000  0.13872
       6     C     2.98192  2.98192  0.00000  0.03615
       7     C     3.16004  3.16004  0.00000 -0.32008
       8     H     0.43275  0.43275  0.00000  0.13449
       9     H     0.43286  0.43286  0.00000  0.13428
      10     C     3.24798  3.24798  0.00000 -0.49596
      11     H     0.41601  0.41601  0.00000  0.16797
      12     H     0.41172  0.41172  0.00000  0.17656
      13     H     0.42162  0.42162  0.00000  0.15677
      14     H     0.41576  0.41576  0.00000  0.16847
      15     H     0.42031  0.42031  0.00000  0.15937

   Total alpha = 21.00000, Total beta = 21.00000, Total charge =  0.00000
