                              Psi4 1.0.54 Driver

  ==> Input File <==

--------------------------------------------------------------------------
set {
	reference rhf
	basis cc-pvtz
}

set_num_threads( 4 )
memory 2 gb

molecule MOL {
0 1

H	 -3.258660	 -0.290394	 1.471450
C	 -3.307964	 -0.275695	 0.374072
C	 -2.653809	 0.914422	 -0.273689
O	 -3.855140	 -1.148880	 -0.205112
C	 -1.221654	 0.626293	 -0.733678
H	 -3.277245	 1.246172	 -1.093812
H	 -2.636822	 1.704281	 0.474067
C	 -1.137394	 -0.372058	 -1.886231
H	 -0.762977	 1.562305	 -1.033404
H	 -0.639570	 0.261388	 0.109065
C	 0.294760	 -0.640683	 -2.340717
H	 -1.718307	 0.003843	 -2.724292
H	 -1.602927	 -1.310199	 -1.595373
C	 0.375087	 -1.630351	 -3.501472
H	 0.756859	 0.300517	 -2.621704
H	 0.870865	 -1.025961	 -1.502289
C	 1.795270	 -1.993771	 -3.938402
H	 -0.169216	 -1.229107	 -4.353248
H	 -0.141155	 -2.542615	 -3.215862
C	 2.589590	 -0.842333	 -4.550226
H	 1.734143	 -2.798034	 -4.664912
H	 2.340071	 -2.395785	 -3.088177
H	 2.065417	 -0.415823	 -5.399536
H	 2.766186	 -0.046281	 -3.836923
H	 3.556690	 -1.185764	 -4.899137

	symmetry c1
}
set optking {
	frozen_dihedral = ("
		6 3 2 4
	")
}

ee,wfn = optimize('scf', return_wfn=True)
oeprop( wfn, 'DIPOLE', 'QUADRUPOLE', 'MULLIKEN_CHARGES')
f=open( 'psi4out.xyz', 'w' )
f.write( "25  " )
f.write( str(ee) + "\n" )
f.write( MOL.save_string_xyz() )
f.close()
--------------------------------------------------------------------------

    Molecular point group: c1
  Charge       = 0
  Multiplicity = 1
  Basis Set: CC-PVTZ
  Basis Set:
  @DF-RHF Final Energy:  -387.25781188339710
    Total Energy =                       -387.2578118833972667
    Molecular point group: c1
  Basis Set: CC-PVTZ
  Basis Set:
  Basis Set: CC-PVTZ
  Basis Set:
  @DF-RHF Final Energy:  -387.25630252714626
    Total Energy =                       -387.2563025271458628
  Basis Set: CC-PVTZ
  Basis Set:
  Basis Set: CC-PVTZ
  Basis Set:
  @DF-RHF Final Energy:  -387.25803788830456
    Total Energy =                       -387.2580378883043295
  Basis Set: CC-PVTZ
  Basis Set:
  Basis Set: CC-PVTZ
  Basis Set:
  @DF-RHF Final Energy:  -387.25821164150506
    Total Energy =                       -387.2582116415052269
  Basis Set: CC-PVTZ
  Basis Set:
  Basis Set: CC-PVTZ
  Basis Set:
  @DF-RHF Final Energy:  -387.25821444464464
    Total Energy =                       -387.2582144446448638
  Basis Set: CC-PVTZ
  Basis Set:
  Basis Set: CC-PVTZ
  Basis Set:
  @DF-RHF Final Energy:  -387.25821555120888
    Total Energy =                       -387.2582155512087638
  Basis Set: CC-PVTZ
  Basis Set:
  Charge       = 0
  Multiplicity = 1
  Basis Set: CC-PVTZ
  Basis Set:

    Orbital Energies (a.u.)
    -----------------------

    Doubly Occupied:

       1A    -20.552471     2A    -11.321814     3A    -11.233849
       4A    -11.232199     5A    -11.213650     6A    -11.212968
       7A    -11.212690     8A    -11.210796     9A    -11.206222
      10A     -1.407445    11A     -1.099971    12A     -1.066974
      13A     -1.011470    14A     -0.941819    15A     -0.874442
      16A     -0.815496    17A     -0.784915    18A     -0.776478
      19A     -0.678810    20A     -0.662014    21A     -0.632412
      22A     -0.617807    23A     -0.595652    24A     -0.588882
      25A     -0.578220    26A     -0.552369    27A     -0.537855
      28A     -0.517861    29A     -0.509008    30A     -0.496303
      31A     -0.487131    32A     -0.475256    33A     -0.460885
      34A     -0.455491    35A     -0.439486    36A     -0.410046

  @DF-RHF Final Energy:  -387.25821546021666

   => Energetics <=

    Nuclear Repulsion Energy =            442.8291507755895964
    One-Electron Energy =               -1402.4324162258544675
    Two-Electron Energy =                 572.3450499900479826
    DFT Exchange-Correlation Energy =       0.0000000000000000
    Empirical Dispersion Energy =           0.0000000000000000
    PCM Polarization Energy =               0.0000000000000000
    EFP Energy =                            0.0000000000000000
    Total Energy =                       -387.2582154602168885
    Molecular point group: c1
  Basis Set: CC-PVTZ
  Basis Set:

  -Total Gradient:
     Atom            X                  Y                   Z
    ------   -----------------  -----------------  -----------------
       1        0.000022576257    -0.000001189466     0.000012223269
       2       -0.003350031326     0.002086015675     0.000370209772
       3        0.002422777875    -0.002315166428    -0.001664501205
       4        0.002103782093    -0.001210114233    -0.000075745943
       5        0.000018650429     0.000011102717     0.000019401658
       6       -0.001193570818     0.001421235600     0.001316084980
       7        0.000033672015    -0.000003076670     0.000016040045
       8       -0.000007765394     0.000004562907    -0.000015373698
       9       -0.000017315766     0.000004925538     0.000006490188
      10       -0.000018960792     0.000005241423     0.000019126719
      11       -0.000007963743     0.000007125067     0.000013220781
      12       -0.000001782164     0.000000934637    -0.000005253451
      13        0.000000561940    -0.000014784654    -0.000001871689
      14        0.000003817275     0.000013918187    -0.000018084862
      15       -0.000031518325    -0.000013364076     0.000005528916
      16        0.000002822507     0.000005255015     0.000000178120
      17        0.000006796947     0.000007318795     0.000034473160
      18        0.000003122737     0.000011891146     0.000001526559
      19       -0.000003306282    -0.000002327107    -0.000009249499
      20        0.000003620415    -0.000004022719    -0.000016035110
      21       -0.000001226814    -0.000010456715     0.000002566800
      22        0.000004160986     0.000004703704     0.000006950971
      23       -0.000000757201     0.000007195073    -0.000001261360
      24        0.000012379389    -0.000013681932    -0.000009467332
      25       -0.000004542242    -0.000003241487    -0.000007177786

  **** Optimization is complete! (in 7 steps) ****
    Final optimized geometry and variables:
    Molecular point group: c1

    Geometry (in Angstrom), charge = 0, multiplicity = 1:

    H           -2.493166328175     0.363629811520     3.369859604908
    C           -2.562750541007     0.336457385424     2.275052416712
    C           -1.941870424760     1.505347203388     1.552132623263
    O           -3.063769560643    -0.592855163186     1.741443298581
    C           -0.496589247453     1.216724460255     1.114527607615
    H           -2.562932525795     1.754311480207     0.699966201799
    H           -1.945181071105     2.358480640991     2.222427686605
    C           -0.371939451507     0.225566476138    -0.039809265701
    H           -0.043209499092     2.159716768444     0.827874485335
    H            0.071520996404     0.857891336066     1.969638733919
    C            1.078878508165    -0.033580839833    -0.438339626657
    H           -0.917765754182     0.612441387081    -0.896479547509
    H           -0.849514347205    -0.710560342367     0.224572764857
    C            1.206940223777    -1.008214891487    -1.607570189761
    H            1.553072956369     0.910720402234    -0.687997312386
    H            1.620422470525    -0.430987559006     0.417442548081
    C            2.643440445054    -1.372306123516    -1.986652484078
    H            0.702247020835    -0.593488247612    -2.477185895646
    H            0.674848750113    -1.921400012252    -1.356791211435
    C            3.467911287047    -0.217263420229    -2.549988681253
    H            2.611349743293    -2.168007055096    -2.724505714005
    H            3.149347043190    -1.786195460275    -1.118268412806
    H            2.981740574076     0.222310229622    -3.415155917356
    H            3.617475074432     0.569054549609    -1.819891888206
    H            4.447493553129    -0.560823530110    -2.862291959694

  Mulliken Charges: (a.u.)
   Center  Symbol    Alpha    Beta     Spin     Total
       1     H     0.45709  0.45709  0.00000  0.08582
       2     C     2.91248  2.91248  0.00000  0.17505
       3     C     3.09109  3.09109  0.00000 -0.18219
       4     O     4.16815  4.16815  0.00000 -0.33629
       5     C     3.10709  3.10709  0.00000 -0.21418
       6     H     0.44320  0.44320  0.00000  0.11361
       7     H     0.44307  0.44307  0.00000  0.11387
       8     C     3.08849  3.08849  0.00000 -0.17698
       9     H     0.44460  0.44460  0.00000  0.11080
      10     H     0.45162  0.45162  0.00000  0.09675
      11     C     3.09282  3.09282  0.00000 -0.18564
      12     H     0.45430  0.45430  0.00000  0.09140
      13     H     0.43969  0.43969  0.00000  0.12062
      14     C     3.09535  3.09535  0.00000 -0.19070
      15     H     0.45336  0.45336  0.00000  0.09327
      16     H     0.45486  0.45486  0.00000  0.09027
      17     C     3.09055  3.09055  0.00000 -0.18111
      18     H     0.45375  0.45375  0.00000  0.09251
      19     H     0.44716  0.44716  0.00000  0.10567
      20     C     3.15265  3.15265  0.00000 -0.30530
      21     H     0.44808  0.44808  0.00000  0.10384
      22     H     0.45487  0.45487  0.00000  0.09026
      23     H     0.45490  0.45490  0.00000  0.09019
      24     H     0.45446  0.45446  0.00000  0.09108
      25     H     0.44631  0.44631  0.00000  0.10737

   Total alpha = 36.00000, Total beta = 36.00000, Total charge = -0.00000

*** Psi4 exiting successfully. Buy a developer a beer!
