  ==> Input File <==

--------------------------------------------------------------------------
set {
	reference rhf
	basis 6-31G*
}

set_num_threads( 4 )
memory 2 gb

molecule MOL {
0 1

O	 0.216034	 0.013175	 0.761626
C	 1.122059	 0.121804	 -0.000188
C	 1.242002	 1.171362	 -1.078120
O	 2.172624	 -0.688929	 0.000216
C	 0.057667	 2.131900	 -1.123521
H	 2.174389	 1.703669	 -0.910616
H	 1.364286	 0.652077	 -2.024769
C	 0.204307	 3.184076	 -2.223879
H	 -0.045309	 2.619707	 -0.159184
H	 -0.856694	 1.566512	 -1.274461
C	 -0.978641	 4.149885	 -2.277277
H	 1.122377	 3.747130	 -2.068337
H	 0.309730	 2.689883	 -3.187585
H	 -1.089578	 4.685248	 -1.338803
H	 -0.849665	 4.885330	 -3.065162
H	 -1.907919	 3.620530	 -2.466661
C	 3.452279	 -0.082609	 0.000533
H	 3.583069	 0.529321	 -0.880332
H	 4.163299	 -0.894027	 0.001117
H	 3.582335	 0.529955	 0.881077

	symmetry c1
}
set optking {
	frozen_dihedral = ("
		1 2 4 17
	")
}

ee = optimize('scf')
oeprop('DIPOLE', 'QUADRUPOLE', 'MULLIKEN_CHARGES')
f=open( 'psi4out.xyz', 'w' )
f.write( "20  " )
f.write( str(ee) + "\n" )
f.write( MOL.save_string_xyz() )
f.close()
--------------------------------------------------------------------------

    Molecular point group: c1
  Charge       = 0
  Multiplicity = 1
  Basis Set: 6-31G*
  Basis Set:
  @DF-RHF Final Energy:  -383.91551848107406
    Total Energy =                       -383.9155184810738319
    Molecular point group: c1
  Basis Set: 6-31G*
  Basis Set:
  Basis Set: 6-31G*
  Basis Set:
  @DF-RHF Final Energy:  -383.91590067962392
    Total Energy =                       -383.9159006796238032
  Basis Set: 6-31G*
  Basis Set:
  Basis Set: 6-31G*
  Basis Set:
  @DF-RHF Final Energy:  -383.92051912207546
    Total Energy =                       -383.9205191220751203
  Basis Set: 6-31G*
  Basis Set:
  Basis Set: 6-31G*
  Basis Set:
  @DF-RHF Final Energy:  -383.92181659012044
    Total Energy =                       -383.9218165901199882
  Basis Set: 6-31G*
  Basis Set:
  @DF-RHF Final Energy:  -383.92211680544449
    Total Energy =                       -383.9221168054446025
  @DF-RHF Final Energy:  -383.92206340520005
    Total Energy =                       -383.9220634051997649
  Basis Set: 6-31G*
  Basis Set:
  @DF-RHF Final Energy:  -383.92224425922478
    Total Energy =                       -383.9222442592246125
  Basis Set: 6-31G*
  Basis Set:
  Basis Set: 6-31G*
  Basis Set:
  @DF-RHF Final Energy:  -383.92225671652221
    Total Energy =                       -383.9222567165222699
  Basis Set: 6-31G*
  Basis Set:
  Basis Set: 6-31G*
  Basis Set:
  @DF-RHF Final Energy:  -383.92225931707537
    Total Energy =                       -383.9222593170754863
  Basis Set: 6-31G*
  Basis Set:
  Charge       = 0
  Multiplicity = 1
  Basis Set: 6-31G*
  Basis Set:

    Orbital Energies (a.u.)
    -----------------------

    Doubly Occupied:

       1A    -20.592268     2A    -20.550073     3A    -11.374603
       4A    -11.295269     5A    -11.243341     6A    -11.224155
       7A    -11.223532     8A    -11.213325     9A     -1.460016
      10A     -1.367436    11A     -1.091201    12A     -1.017241
      13A     -0.978803    14A     -0.900452    15A     -0.809743
      16A     -0.766465    17A     -0.697551    18A     -0.683096
      19A     -0.674011    20A     -0.648475    21A     -0.612471
      22A     -0.591285    23A     -0.589979    24A     -0.553505
      25A     -0.539319    26A     -0.518553    27A     -0.498480
      28A     -0.483345    29A     -0.480265    30A     -0.473912
      31A     -0.451040    32A     -0.432731

  @DF-RHF Final Energy:  -383.92225947262909

   => Energetics <=

    Nuclear Repulsion Energy =            382.3837588054750540
    One-Electron Energy =               -1280.5401531249040090
    Two-Electron Energy =                 514.2341348467999751
    DFT Exchange-Correlation Energy =       0.0000000000000000
    Empirical Dispersion Energy =           0.0000000000000000
    PCM Polarization Energy =               0.0000000000000000
    EFP Energy =                            0.0000000000000000
    Total Energy =                       -383.9222594726289799
    Molecular point group: c1
  Basis Set: 6-31G*
  Basis Set:

  -Total Gradient:
     Atom            X                  Y                   Z
    ------   -----------------  -----------------  -----------------
       1        0.002147913924     0.002111203394     0.002417234535
       2       -0.003101819655    -0.002991539453    -0.001807211406
       3        0.000008741054    -0.000000893381     0.000000746901
       4        0.000876440677     0.000860274868    -0.003855036756
       5        0.000012199124     0.000005370504     0.000004064615
       6       -0.000007133822    -0.000006460907     0.000001286247
       7        0.000001060711     0.000002509083     0.000000734409
       8       -0.000005316767     0.000003118707    -0.000002810824
       9        0.000008697083    -0.000001749836     0.000001680229
      10       -0.000008226894     0.000003744339     0.000000121322
      11       -0.000002232051    -0.000006245038    -0.000005713543
      12       -0.000003287309     0.000002874277     0.000004438782
      13        0.000005632825     0.000001098155     0.000001037435
      14        0.000002705885    -0.000000281864    -0.000000403255
      15       -0.000000376679    -0.000002283687    -0.000001585117
      16       -0.000002655263     0.000000173994     0.000000617118
      17        0.000062186499     0.000024342293     0.003235284369
      18       -0.000010133927    -0.000009722279     0.000011464846
      19        0.000003036132    -0.000003250831    -0.000005693838
      20        0.000012568457     0.000007717667    -0.000000256076

  **** Optimization is complete! (in 10 steps) ****
    Final optimized geometry and variables:
    Molecular point group: c1

    Geometry (in Angstrom), charge = 0, multiplicity = 1:

    O           -0.640806479968    -1.076505688404     1.557233775844
    C            0.225903453479    -1.024214489219     0.755350163972
    C            0.325460073669     0.044820855742    -0.313433010731
    O            1.186865369514    -1.966337600379     0.738268244838
    C           -0.931095662569     0.905478656635    -0.419846013514
    H            1.187161632107     0.670712273668    -0.091502907095
    H            0.545840589928    -0.445478889861    -1.257983488862
    C           -0.809730104871     1.979962724679    -1.501484219431
    H           -1.128360098228     1.368006075526     0.541255318422
    H           -1.784168527362     0.267411955773    -0.629150941441
    C           -2.065572082832     2.842837245161    -1.617214621881
    H            0.046083564289     2.617130351323    -1.286714626494
    H           -0.606393561684     1.509528377125    -2.461384879860
    H           -2.276503783214     3.354223957615    -0.682619142337
    H           -1.953549764662     3.596802616025    -2.389963103884
    H           -2.933441120417     2.239241539622    -1.866091195549
    C            2.544073011453    -1.586996218902     0.708750547886
    H            2.823227671975    -1.157419663019    -0.245945462287
    H            3.110830350393    -2.491039436691     0.867214855288
    H            2.768216743390    -0.885055977196     1.503646887897

  Mulliken Charges: (a.u.)
   Center  Symbol    Alpha    Beta     Spin     Total
       1     O     4.25561  4.25561  0.00000 -0.51122
       2     C     2.60693  2.60693  0.00000  0.78615
       3     C     3.22623  3.22623  0.00000 -0.45245
       4     O     4.30924  4.30924  0.00000 -0.61848
       5     C     3.14938  3.14938  0.00000 -0.29876
       6     H     0.40535  0.40535  0.00000  0.18929
       7     H     0.40199  0.40199  0.00000  0.19603
       8     C     3.15453  3.15453  0.00000 -0.30906
       9     H     0.40842  0.40842  0.00000  0.18315
      10     H     0.41138  0.41138  0.00000  0.17725
      11     C     3.23957  3.23957  0.00000 -0.47914
      12     H     0.42388  0.42388  0.00000  0.15225
      13     H     0.42295  0.42295  0.00000  0.15411
      14     H     0.41933  0.41933  0.00000  0.16134
      15     H     0.41840  0.41840  0.00000  0.16320
      16     H     0.41922  0.41922  0.00000  0.16156
      17     C     3.09399  3.09399  0.00000 -0.18798
      18     H     0.41868  0.41868  0.00000  0.16263
      19     H     0.39957  0.39957  0.00000  0.20085
      20     H     0.41535  0.41535  0.00000  0.16929

   Total alpha = 32.00000, Total beta = 32.00000, Total charge = -0.00000
