  ==> Input File <==

--------------------------------------------------------------------------
set {
	reference rhf
	basis 6-31G*
}

set_num_threads( 4 )
memory 2 gb

molecule MOL {
0 1

H	 1.133904	 -1.163084	 0.500809
O	 1.306321	 -0.606375	 -0.246319
C	 0.709265	 0.639550	 -0.033818
C	 -0.793441	 0.596080	 0.058728
H	 1.004705	 1.263007	 -0.870011
H	 1.108753	 1.112234	 0.862845
C	 -1.530462	 -0.493172	 -0.025500
H	 -1.268471	 1.554324	 0.202247
H	 -1.092586	 -1.461565	 -0.186463
H	 -2.602122	 -0.450675	 0.050101

	symmetry c1
}
set optking {
	frozen_dihedral = ("
		5 3 4 7
	")
}

ee = optimize('scf')
oeprop('DIPOLE', 'QUADRUPOLE', 'MULLIKEN_CHARGES')
f=open( 'psi4out.xyz', 'w' )
f.write( "10  " )
f.write( str(ee) + "\n" )
f.write( MOL.save_string_xyz() )
f.close()
--------------------------------------------------------------------------

    Molecular point group: c1
  Charge       = 0
  Multiplicity = 1
  Basis Set: 6-31G*
  Basis Set:
  @DF-RHF Final Energy:  -191.91688808557799
    Total Energy =                       -191.9168880855779662
    Molecular point group: c1
  Basis Set: 6-31G*
  Basis Set:
  Basis Set: 6-31G*
  Basis Set:
  @DF-RHF Final Energy:  -191.91696801092939
    Total Energy =                       -191.9169680109292813
  Basis Set: 6-31G*
  Basis Set:
  Basis Set: 6-31G*
  Basis Set:
  @DF-RHF Final Energy:  -191.91700969824416
    Total Energy =                       -191.9170096982441009
  Basis Set: 6-31G*
  Basis Set:
  Charge       = 0
  Multiplicity = 1
  Basis Set: 6-31G*
  Basis Set:

    Orbital Energies (a.u.)
    -----------------------

    Doubly Occupied:

       1A    -20.561231     2A    -11.278799     3A    -11.231106
       4A    -11.219102     5A     -1.370020     6A     -1.058044
       7A     -0.929182     8A     -0.767963     9A     -0.690111
      10A     -0.661515    11A     -0.617428    12A     -0.569921
      13A     -0.534893    14A     -0.496091    15A     -0.447175
      16A     -0.364422

  @DF-RHF Final Energy:  -191.91700995118418

   => Energetics <=

    Nuclear Repulsion Energy =            119.3530933638107854
    One-Electron Energy =                -496.9461999285476281
    Two-Electron Energy =                 185.6760966135526587
    DFT Exchange-Correlation Energy =       0.0000000000000000
    Empirical Dispersion Energy =           0.0000000000000000
    PCM Polarization Energy =               0.0000000000000000
    EFP Energy =                            0.0000000000000000
    Total Energy =                       -191.9170099511841840
    Molecular point group: c1
  Basis Set: 6-31G*
  Basis Set:

  -Total Gradient:
     Atom            X                  Y                   Z
    ------   -----------------  -----------------  -----------------
       1        0.000001651706    -0.000007840205     0.000002261438
       2        0.000006089223    -0.000021270696    -0.000016191040
       3       -0.000007801217    -0.001570755383    -0.000352874062
       4       -0.000129803499     0.000531820137    -0.002014005472
       5        0.000014481618     0.001209851948     0.000922878662
       6        0.000017374838     0.000008051629     0.000002549638
       7        0.000113562733    -0.000128182193     0.001351121031
       8       -0.000008198600     0.000003431640     0.000020154217
       9       -0.000004032226    -0.000015743905     0.000035162972
      10       -0.000003324581    -0.000009362970     0.000048942617

  **** Optimization is complete! (in 4 steps) ****
    Final optimized geometry and variables:
    Molecular point group: c1

    Geometry (in Angstrom), charge = 0, multiplicity = 1:

    H            1.183589243735    -1.143585833956     0.595476386246
    O            1.313631480876    -0.611146781394    -0.177220182907
    C            0.712628173344     0.634487971749     0.018565160523
    C           -0.789352584820     0.594613815674     0.111874847657
    H            1.010264609995     1.258530650085    -0.816341652761
    H            1.107223081207     1.117389949799     0.912811880904
    C           -1.534248758519    -0.488885570895     0.026840442237
    H           -1.255756233931     1.551680841313     0.288394733883
    H           -1.108052860035    -1.457221105540    -0.163245369368
    H           -2.603971172192    -0.441079261788     0.122805550937

  Mulliken Charges: (a.u.)
   Center  Symbol    Alpha    Beta     Spin     Total
       1     H     0.28026  0.28026  0.00000  0.43948
       2     O     4.36604  4.36604  0.00000 -0.73209
       3     C     3.00252  3.00252  0.00000 -0.00504
       4     C     3.08890  3.08890  0.00000 -0.17781
       5     H     0.40887  0.40887  0.00000  0.18227
       6     H     0.42532  0.42532  0.00000  0.14935
       7     C     3.19846  3.19846  0.00000 -0.39692
       8     H     0.41046  0.41046  0.00000  0.17909
       9     H     0.40824  0.40824  0.00000  0.18352
      10     H     0.41093  0.41093  0.00000  0.17814

   Total alpha = 16.00000, Total beta = 16.00000, Total charge = -0.00000
