                              Psi4 1.0.54 Driver

  ==> Input File <==

--------------------------------------------------------------------------
set {
	reference rhf
	basis cc-pvtz
}

set_num_threads( 4 )
memory 2 gb

molecule MOL {
0 1

H	 -0.366580	 2.045936	 -0.305741
C	 0.351829	 1.335402	 0.083179
N	 -0.000018	 0.000080	 -0.334836
H	 1.327156	 1.599860	 -0.305475
H	 0.380566	 1.445403	 1.171445
C	 -1.385418	 -0.095207	 -0.727221
C	 0.886563	 -0.496212	 -1.359487
H	 -1.631922	 -1.121758	 -0.967054
H	 -2.023388	 0.219547	 0.088936
H	 -1.622681	 0.521903	 -1.598973
H	 1.909544	 -0.474800	 -1.005603
H	 0.637493	 -1.522272	 -1.598841
H	 0.836472	 0.088106	 -2.283161

	symmetry c1
}
set optking {
	frozen_dihedral = ("
		6 3 2 1
	")
}

ee,wfn = optimize('scf', return_wfn=True)
oeprop( wfn, 'DIPOLE', 'QUADRUPOLE', 'MULLIKEN_CHARGES')
f=open( 'psi4out.xyz', 'w' )
f.write( "13  " )
f.write( str(ee) + "\n" )
f.write( MOL.save_string_xyz() )
f.close()
--------------------------------------------------------------------------

    Molecular point group: c1
  Charge       = 0
  Multiplicity = 1
  Basis Set: CC-PVTZ
  Basis Set:
  @DF-RHF Final Energy:  -173.32787925203118
    Total Energy =                       -173.3278792520310390
    Molecular point group: c1
  Basis Set: CC-PVTZ
  Basis Set:
  Basis Set: CC-PVTZ
  Basis Set:
  @DF-RHF Final Energy:  -173.32850734246412
    Total Energy =                       -173.3285073424642633
  Basis Set: CC-PVTZ
  Basis Set:
  Basis Set: CC-PVTZ
  Basis Set:
  @DF-RHF Final Energy:  -173.32863277086628
    Total Energy =                       -173.3286327708663634
  Basis Set: CC-PVTZ
  Basis Set:
  Basis Set: CC-PVTZ
  Basis Set:
  @DF-RHF Final Energy:  -173.32863602990017
    Total Energy =                       -173.3286360299002524
  Basis Set: CC-PVTZ
  Basis Set:
  Charge       = 0
  Multiplicity = 1
  Basis Set: CC-PVTZ
  Basis Set:

    Orbital Energies (a.u.)
    -----------------------

    Doubly Occupied:

       1A    -15.537374     2A    -11.233958     3A    -11.233920
       4A    -11.233765     5A     -1.222611     6A     -0.951876
       7A     -0.950867     8A     -0.807631     9A     -0.639408
      10A     -0.630048    11A     -0.628124    12A     -0.549689
      13A     -0.545950    14A     -0.515108    15A     -0.500552
      16A     -0.499793    17A     -0.345590

  @DF-RHF Final Energy:  -173.32863646771125

   => Energetics <=

    Nuclear Repulsion Energy =            139.1099880490287433
    One-Electron Energy =                -508.8247229690076097
    Two-Electron Energy =                 196.3860984522675039
    DFT Exchange-Correlation Energy =       0.0000000000000000
    Empirical Dispersion Energy =           0.0000000000000000
    PCM Polarization Energy =               0.0000000000000000
    EFP Energy =                            0.0000000000000000
    Total Energy =                       -173.3286364677113625
    Molecular point group: c1
  Basis Set: CC-PVTZ
  Basis Set:

  -Total Gradient:
     Atom            X                  Y                   Z
    ------   -----------------  -----------------  -----------------
       1       -0.002266901595    -0.000493026348     0.003388784507
       2        0.003187179281     0.000871793933    -0.005436475445
       3       -0.001679331260    -0.001090950373     0.004891067913
       4       -0.000004387003    -0.000008173320    -0.000016787680
       5       -0.000001870098     0.000005353646     0.000018271677
       6        0.000805395502     0.000722953780    -0.002876750709
       7       -0.000024434383     0.000004599911     0.000073735875
       8       -0.000016956748    -0.000008200927    -0.000006509250
       9       -0.000018167608     0.000000413288    -0.000002667889
      10        0.000003824519     0.000005346149    -0.000003989540
      11        0.000011235281    -0.000001875147    -0.000013256232
      12        0.000007935234    -0.000011068396    -0.000014926947
      13       -0.000003521123     0.000002833804    -0.000000496280

  **** Optimization is complete! (in 5 steps) ****
    Final optimized geometry and variables:
    Molecular point group: c1

    Geometry (in Angstrom), charge = 0, multiplicity = 1:

    H           -0.318040730468     1.893877069501     0.329222233718
    C            0.390450984343     1.151675940359     0.691726149028
    N            0.043924962959    -0.194510595611     0.263718806934
    H            1.378645368343     1.428343980568     0.349910225266
    H            0.385271601462     1.219588500973     1.774958951117
    C           -1.342386468277    -0.305202413020    -0.122003540962
    C            0.920224565649    -0.701403439542    -0.767029961352
    H           -1.587819397063    -1.338318921425    -0.334108597206
    H           -1.981209253435     0.025915576402     0.687698931184
    H           -1.584385071824     0.290640178011    -1.006974700837
    H            1.945842096433    -0.692691818650    -0.421371956982
    H            0.658830617797    -1.726630035173    -0.998071683714
    H            0.870132419294    -0.125450866412    -1.696160024821

  Mulliken Charges: (a.u.)
   Center  Symbol    Alpha    Beta     Spin     Total
       1     H     0.46671  0.46671  0.00000  0.06657
       2     C     3.08653  3.08653  0.00000 -0.17305
       3     N     3.59931  3.59931  0.00000 -0.19863
       4     H     0.45767  0.45767  0.00000  0.08465
       5     H     0.45092  0.45092  0.00000  0.09815
       6     C     3.09113  3.09113  0.00000 -0.18226
       7     C     3.08990  3.08990  0.00000 -0.17979
       8     H     0.45336  0.45336  0.00000  0.09328
       9     H     0.45203  0.45203  0.00000  0.09593
      10     H     0.47317  0.47317  0.00000  0.05366
      11     H     0.45227  0.45227  0.00000  0.09547
      12     H     0.45333  0.45333  0.00000  0.09334
      13     H     0.47367  0.47367  0.00000  0.05266

   Total alpha = 17.00000, Total beta = 17.00000, Total charge =  0.00000

*** Psi4 exiting successfully. Buy a developer a beer!
