  ==> Input File <==

--------------------------------------------------------------------------
set {
	reference rhf
	basis cc-pvtz
}

set_num_threads( 4 )
memory 2 gb

molecule MOL {
0 1

H	 2.808338	 0.364424	 1.557860
O	 2.110845	 0.905066	 1.236512
C	 1.135873	 0.113391	 0.608264
C	 0.027642	 1.012027	 0.090274
H	 0.714697	 -0.598526	 1.313638
H	 1.576794	 -0.457346	 -0.204330
C	 -1.138737	 0.285728	 -0.581921
H	 0.464661	 1.708096	 -0.618252
H	 -0.340737	 1.603071	 0.925246
C	 -1.933983	 -0.631436	 0.343653
H	 -0.763151	 -0.285569	 -1.422081
H	 -1.808359	 1.035291	 -0.992333
H	 -2.789188	 -1.049673	 -0.174718
H	 -1.335629	 -1.461368	 0.700418
H	 -2.305435	 -0.092167	 1.209725

	symmetry c1
}
set optking {
	frozen_dihedral = ("
		2 3 4 8
	")
}

ee = optimize('scf')
oeprop('DIPOLE', 'QUADRUPOLE', 'MULLIKEN_CHARGES')
f=open( 'psi4out.xyz', 'w' )
f.write( "15  " )
f.write( str(ee) + "\n" )
f.write( MOL.save_string_xyz() )
f.close()
--------------------------------------------------------------------------

    Molecular point group: c1
  Charge       = 0
  Multiplicity = 1
  Basis Set: CC-PVTZ
  Basis Set:
  @DF-RHF Final Energy:  -232.23696160599596
    Total Energy =                       -232.2369616059962141
    Molecular point group: c1
  Basis Set: CC-PVTZ
  Basis Set:
  Basis Set: CC-PVTZ
  Basis Set:
  @DF-RHF Final Energy:  -232.23715942249021
    Total Energy =                       -232.2371594224903788
  Basis Set: CC-PVTZ
  Basis Set:
  Basis Set: CC-PVTZ
  Basis Set:
  @DF-RHF Final Energy:  -232.23723719403054
    Total Energy =                       -232.2372371940305129
  Basis Set: CC-PVTZ
  Basis Set:
  Basis Set: CC-PVTZ
  Basis Set:
  @DF-RHF Final Energy:  -232.23724052010766
    Total Energy =                       -232.2372405201076617
  Basis Set: CC-PVTZ
  Basis Set:
  Charge       = 0
  Multiplicity = 1
  Basis Set: CC-PVTZ
  Basis Set:

    Orbital Energies (a.u.)
    -----------------------

    Doubly Occupied:

       1A    -20.545376     2A    -11.264764     3A    -11.216601
       4A    -11.209710     5A    -11.208540     6A     -1.363179
       7A     -1.070649     8A     -0.972263     9A     -0.869776
      10A     -0.785201    11A     -0.698009    12A     -0.653562
      13A     -0.619509    14A     -0.582821    15A     -0.558544
      16A     -0.540119    17A     -0.507261    18A     -0.474897
      19A     -0.473620    20A     -0.457533    21A     -0.436189

  @DF-RHF Final Energy:  -232.23724091422150

   => Energetics <=

    Nuclear Repulsion Energy =            188.3187223524394653
    One-Electron Energy =                -688.0956820953781516
    Two-Electron Energy =                 267.5397188287173549
    DFT Exchange-Correlation Energy =       0.0000000000000000
    Empirical Dispersion Energy =           0.0000000000000000
    PCM Polarization Energy =               0.0000000000000000
    EFP Energy =                            0.0000000000000000
    Total Energy =                       -232.2372409142213314
    Molecular point group: c1
  Basis Set: CC-PVTZ
  Basis Set:

  -Total Gradient:
     Atom            X                  Y                   Z
    ------   -----------------  -----------------  -----------------
       1       -0.000031210512    -0.000016980909    -0.000027506033
       2       -0.000392737823    -0.000082570578     0.000650596831
       3        0.000467292096    -0.000033777793    -0.001015618180
       4        0.000110720315     0.000735160480     0.001111605504
       5       -0.000013819259     0.000000045877    -0.000005093694
       6        0.000015735838     0.000007735604     0.000020798690
       7        0.000025044958    -0.000051219489    -0.000015272927
       8       -0.000172385537    -0.000618865901    -0.000751384685
       9       -0.000008675564     0.000018759169     0.000007729016
      10       -0.000002969767     0.000018670451     0.000006565607
      11       -0.000000677340     0.000012593090    -0.000008236377
      12        0.000003921983     0.000004464437     0.000024574152
      13        0.000002422384    -0.000000413117     0.000000232228
      14        0.000006277559     0.000011204838    -0.000005411288
      15       -0.000008939330    -0.000004806160     0.000006421158

  **** Optimization is complete! (in 5 steps) ****
    Final optimized geometry and variables:
    Molecular point group: c1

    Geometry (in Angstrom), charge = 0, multiplicity = 1:

    H            2.724660036551     0.045601616891     1.163311888448
    O            2.015076284835     0.577809548690     0.854570170997
    C            1.052652268583    -0.222568550984     0.219531739194
    C           -0.070534708806     0.678071581434    -0.258081132961
    H            0.676218446257    -0.971446089981     0.910100772260
    H            1.489430888891    -0.746571133166    -0.628324023016
    C           -1.218126990079    -0.061250592710    -0.947978035040
    H            0.353496454945     1.397295007463    -0.950533067768
    H           -0.446637180516     1.241170982227     0.590141000727
    C           -2.053510920774    -0.950580741465    -0.029124239461
    H           -0.824983618272    -0.656777975387    -1.768036815628
    H           -1.870770091218     0.677359197410    -1.401326922238
    H           -2.888870532755    -1.381850432792    -0.568714161052
    H           -1.476287111502    -1.770143131795     0.382040328003
    H           -2.456053649445    -0.380789080307     0.801882656624

  Mulliken Charges: (a.u.)
   Center  Symbol    Alpha    Beta     Spin     Total
       1     H     0.39712  0.39712  0.00000  0.20576
       2     O     4.19568  4.19568  0.00000 -0.39136
       3     C     2.96157  2.96157  0.00000  0.07686
       4     C     3.09040  3.09040  0.00000 -0.18080
       5     H     0.47380  0.47380  0.00000  0.05239
       6     H     0.47457  0.47457  0.00000  0.05087
       7     C     3.09851  3.09851  0.00000 -0.19703
       8     H     0.44722  0.44722  0.00000  0.10556
       9     H     0.45107  0.45107  0.00000  0.09786
      10     C     3.15077  3.15077  0.00000 -0.30153
      11     H     0.45553  0.45553  0.00000  0.08895
      12     H     0.44726  0.44726  0.00000  0.10549
      13     H     0.44677  0.44677  0.00000  0.10647
      14     H     0.45633  0.45633  0.00000  0.08733
      15     H     0.45341  0.45341  0.00000  0.09318

   Total alpha = 21.00000, Total beta = 21.00000, Total charge =  0.00000
