  ==> Input File <==

--------------------------------------------------------------------------
set {
	reference rhf
	basis cc-pvtz
}

set_num_threads( 4 )
memory 2 gb

molecule MOL {
0 1

O	 -2.440701	 -0.934798	 -0.415053
C	 -1.922978	 0.063265	 -0.045005
C	 -2.632749	 1.372204	 0.158357
O	 -0.637375	 0.157174	 0.243149
H	 -2.187724	 2.129143	 -0.474664
H	 -3.677681	 1.257276	 -0.079438
H	 -2.516788	 1.693160	 1.185542
C	 0.162530	 -1.009518	 0.097799
C	 1.587210	 -0.664190	 0.477086
H	 0.096803	 -1.356267	 -0.924704
H	 -0.233803	 -1.785900	 0.736810
C	 2.256770	 0.342732	 -0.454344
H	 2.154716	 -1.590834	 0.479041
H	 1.598751	 -0.289614	 1.496104
C	 1.815891	 1.777380	 -0.184108
H	 3.335262	 0.269246	 -0.342307
H	 2.035442	 0.083278	 -1.483199
H	 2.308640	 2.470828	 -0.855460
H	 2.051698	 2.076821	 0.831826
H	 0.745486	 1.889722	 -0.320600

	symmetry c1
}
set optking {
	frozen_dihedral = ("
		16 12 9 8
	")
}

ee = optimize('scf')
oeprop('DIPOLE', 'QUADRUPOLE', 'MULLIKEN_CHARGES')
f=open( 'psi4out.xyz', 'w' )
f.write( "20  " )
f.write( str(ee) + "\n" )
f.write( MOL.save_string_xyz() )
f.close()
--------------------------------------------------------------------------

    Molecular point group: c1
  Charge       = 0
  Multiplicity = 1
  Basis Set: CC-PVTZ
  Basis Set:
  @DF-RHF Final Energy:  -384.08237986615961
    Total Energy =                       -384.0823798661596129
    Molecular point group: c1
  Basis Set: CC-PVTZ
  Basis Set:
  Basis Set: CC-PVTZ
  Basis Set:
  @DF-RHF Final Energy:  -384.08408459100059
    Total Energy =                       -384.0840845910006465
  Basis Set: CC-PVTZ
  Basis Set:
  Basis Set: CC-PVTZ
  Basis Set:
  @DF-RHF Final Energy:  -384.08408200809862
    Total Energy =                       -384.0840820080984486
  Basis Set: CC-PVTZ
  Basis Set:
  Basis Set: CC-PVTZ
  Basis Set:
  @DF-RHF Final Energy:  -384.08380418402970
    Total Energy =                       -384.0838041840295318
  Basis Set: CC-PVTZ
  Basis Set:
  Basis Set: CC-PVTZ
  Basis Set:
  @DF-RHF Final Energy:  -384.08425202831950
    Total Energy =                       -384.0842520283194972
  Basis Set: CC-PVTZ
  Basis Set:
  Basis Set: CC-PVTZ
  Basis Set:
  @DF-RHF Final Energy:  -384.08425550460692
    Total Energy =                       -384.0842555046073130
  Basis Set: CC-PVTZ
  Basis Set:
  Charge       = 0
  Multiplicity = 1
  Basis Set: CC-PVTZ
  Basis Set:

    Orbital Energies (a.u.)
    -----------------------

    Doubly Occupied:

       1A    -20.594530     2A    -20.533167     3A    -11.367078
       4A    -11.280620     5A    -11.232099     6A    -11.224625
       7A    -11.220712     8A    -11.206849     9A     -1.471442
      10A     -1.365577    11A     -1.085174    12A     -1.028111
      13A     -0.981253    14A     -0.888521    15A     -0.802788
      16A     -0.779520    17A     -0.693878    18A     -0.689431
      19A     -0.670023    20A     -0.621154    21A     -0.602350
      22A     -0.596183    23A     -0.575515    24A     -0.556706
      25A     -0.543614    26A     -0.535058    27A     -0.512026
      28A     -0.482232    29A     -0.476411    30A     -0.470200
      31A     -0.450104    32A     -0.441530

  @DF-RHF Final Energy:  -384.08425605628844

   => Energetics <=

    Nuclear Repulsion Energy =            392.9310111434177202
    One-Electron Energy =               -1302.0735729196494503
    Two-Electron Energy =                 525.0583057199432915
    DFT Exchange-Correlation Energy =       0.0000000000000000
    Empirical Dispersion Energy =           0.0000000000000000
    PCM Polarization Energy =               0.0000000000000000
    EFP Energy =                            0.0000000000000000
    Total Energy =                       -384.0842560562884955
    Molecular point group: c1
  Basis Set: CC-PVTZ
  Basis Set:

  -Total Gradient:
     Atom            X                  Y                   Z
    ------   -----------------  -----------------  -----------------
       1        0.000004203674     0.000015183098    -0.000013255619
       2       -0.000013770129    -0.000031387568     0.000039888578
       3        0.000011691564     0.000010739709    -0.000044277203
       4        0.000030896822     0.000028627652    -0.000059089473
       5        0.000002434339     0.000001155258     0.000015618869
       6       -0.000000665980    -0.000001980068     0.000005156429
       7       -0.000005626774    -0.000010817733     0.000010417761
       8        0.000133918630    -0.000438090510    -0.000151266091
       9       -0.000217058560     0.000456415328     0.000270143046
      10       -0.000010211347     0.000010498875    -0.000018372091
      11        0.000007569808     0.000003570954    -0.000021928023
      12        0.000049950250     0.000416771192     0.000467516373
      13       -0.000013569368    -0.000003694433     0.000009566076
      14       -0.000014343863    -0.000012179302    -0.000004964487
      15       -0.000018849440     0.000016264510    -0.000022714792
      16        0.000032739522    -0.000476696566    -0.000485022155
      17        0.000007760784     0.000005145353    -0.000006452681
      18       -0.000011409838     0.000009234490     0.000008925217
      19       -0.000003551776    -0.000001956588    -0.000008238509
      20        0.000027891674     0.000003196345     0.000008348778

  **** Optimization is complete! (in 7 steps) ****
    Final optimized geometry and variables:
    Molecular point group: c1

    Geometry (in Angstrom), charge = 0, multiplicity = 1:

    O           -2.210092370478    -1.107899559019    -0.428363567462
    C           -1.729689264223    -0.108385504009    -0.014690580017
    C           -2.488537114908     1.161644967068     0.247870447141
    O           -0.446867825298     0.021906664190     0.273079980563
    H           -2.084456405986     1.959060950968    -0.362591923036
    H           -3.531293176285     1.013068822492     0.019312425767
    H           -2.370147901812     1.449063438761     1.284527058900
    C            0.391134923011    -1.111246735739     0.082282884211
    C            1.808552738312    -0.775713014688     0.503268126593
    H            0.349554633332    -1.408497719690    -0.957090396529
    H            0.003706891103    -1.928491583365     0.673886914642
    C            2.577328075792     0.189975400816    -0.404826842809
    H            2.342247268390    -1.721234700137     0.525974953620
    H            1.798092387392    -0.403970175987     1.523233668841
    C            2.226028820126     1.667139301070    -0.245197666736
    H            3.636381022708     0.062704586825    -0.204476820556
    H            2.434294309374    -0.107903501947    -1.440276755546
    H            2.865240528981     2.277797178993    -0.872904908402
    H            2.366809712490     1.989450324233     0.781214399147
    H            1.199104183794     1.868827599321    -0.515103232422

  Mulliken Charges: (a.u.)
   Center  Symbol    Alpha    Beta     Spin     Total
       1     O     4.19725  4.19725  0.00000 -0.39450
       2     C     2.80940  2.80940  0.00000  0.38121
       3     C     3.13939  3.13939  0.00000 -0.27878
       4     O     4.15273  4.15273  0.00000 -0.30546
       5     H     0.44654  0.44654  0.00000  0.10692
       6     H     0.43652  0.43652  0.00000  0.12695
       7     H     0.44544  0.44544  0.00000  0.10912
       8     C     2.99095  2.99095  0.00000  0.01810
       9     C     3.09262  3.09262  0.00000 -0.18525
      10     H     0.45210  0.45210  0.00000  0.09580
      11     H     0.44427  0.44427  0.00000  0.11147
      12     C     3.09041  3.09041  0.00000 -0.18082
      13     H     0.44568  0.44568  0.00000  0.10864
      14     H     0.45165  0.45165  0.00000  0.09670
      15     C     3.14512  3.14512  0.00000 -0.29024
      16     H     0.44812  0.44812  0.00000  0.10376
      17     H     0.45481  0.45481  0.00000  0.09038
      18     H     0.44932  0.44932  0.00000  0.10135
      19     H     0.45651  0.45651  0.00000  0.08698
      20     H     0.45116  0.45116  0.00000  0.09768

   Total alpha = 32.00000, Total beta = 32.00000, Total charge = -0.00000
