  ==> Input File <==

--------------------------------------------------------------------------
set {
	reference rhf
	basis cc-pvtz
}

set_num_threads( 4 )
memory 2 gb

molecule MOL {
0 1

H	 2.366931	 -1.864337	 -0.668574
N	 1.386548	 -1.686451	 -0.679296
C	 1.107733	 -0.390071	 -1.263680
C	 0.830879	 -1.800297	 0.654163
H	 1.515745	 -0.358513	 -2.266617
H	 1.555086	 0.426231	 -0.693465
C	 -0.393889	 -0.175750	 -1.320894
H	 1.038275	 -2.790622	 1.040939
H	 1.260740	 -1.073094	 1.345548
C	 -0.670381	 -1.584128	 0.594436
H	 -0.829712	 -0.897662	 -2.017666
H	 -0.603164	 0.816453	 -1.702806
N	 -0.976577	 -0.298712	 -0.000000
H	 -1.079577	 -1.610272	 1.597429
H	 -1.125252	 -2.403066	 0.029614
C	 -2.391156	 -0.021003	 -0.000000
H	 -2.853954	 -0.458728	 -0.875714
H	 -2.853954	 -0.458728	 0.875714
H	 -2.614037	 1.049773	 -0.000000

	symmetry c1
}
set optking {
	frozen_dihedral = ("
		7 13 16 19
	")
}

ee = optimize('scf')
oeprop('DIPOLE', 'QUADRUPOLE', 'MULLIKEN_CHARGES')
f=open( 'psi4out.xyz', 'w' )
f.write( "19  " )
f.write( str(ee) + "\n" )
f.write( MOL.save_string_xyz() )
f.close()
--------------------------------------------------------------------------

    Molecular point group: c1
  Charge       = 0
  Multiplicity = 1
  Basis Set: CC-PVTZ
  Basis Set:
  @DF-RHF Final Energy:  -305.30643882637941
    Total Energy =                       -305.3064388263795763
    Molecular point group: c1
  Basis Set: CC-PVTZ
  Basis Set:
  Basis Set: CC-PVTZ
  Basis Set:
  @DF-RHF Final Energy:  -305.30720006995716
    Total Energy =                       -305.3072000699572754
  Basis Set: CC-PVTZ
  Basis Set:
  Basis Set: CC-PVTZ
  Basis Set:
  @DF-RHF Final Energy:  -305.30727668246169
    Total Energy =                       -305.3072766824617474
  Basis Set: CC-PVTZ
  Basis Set:
  Charge       = 0
  Multiplicity = 1
  Basis Set: CC-PVTZ
  Basis Set:

    Orbital Energies (a.u.)
    -----------------------

    Doubly Occupied:

       1A    -15.536817     2A    -15.531030     3A    -11.237084
       4A    -11.237058     5A    -11.235821     6A    -11.235668
       7A    -11.232965     8A     -1.248693     9A     -1.187322
      10A     -1.023520    11A     -0.965538    12A     -0.861207
      13A     -0.858540    14A     -0.758111    15A     -0.692618
      16A     -0.634204    17A     -0.626060    18A     -0.610171
      19A     -0.604432    20A     -0.581281    21A     -0.542850
      22A     -0.532796    23A     -0.510945    24A     -0.489904
      25A     -0.466386    26A     -0.457768    27A     -0.365859
      28A     -0.349280

  @DF-RHF Final Energy:  -305.30727839207708

   => Energetics <=

    Nuclear Repulsion Energy =            340.2212491504938612
    One-Electron Energy =               -1087.8291944995798985
    Two-Electron Energy =                 442.3006669570090708
    DFT Exchange-Correlation Energy =       0.0000000000000000
    Empirical Dispersion Energy =           0.0000000000000000
    PCM Polarization Energy =               0.0000000000000000
    EFP Energy =                            0.0000000000000000
    Total Energy =                       -305.3072783920770235
    Molecular point group: c1
  Basis Set: CC-PVTZ
  Basis Set:

  -Total Gradient:
     Atom            X                  Y                   Z
    ------   -----------------  -----------------  -----------------
       1       -0.000019108905     0.000005765148    -0.000003548070
       2       -0.000001177507    -0.000003638379    -0.000024654028
       3        0.000055563340     0.000003866220    -0.000003604658
       4        0.000029367678    -0.000049266338    -0.000005271528
       5        0.000009570339    -0.000013244558     0.000008743982
       6        0.000006316591     0.000010505923    -0.000002865593
       7       -0.000653212938    -0.003176550219    -0.000429831678
       8        0.000025912571    -0.000008075001    -0.000004354033
       9       -0.000022557790    -0.000004949531    -0.000003423684
      10       -0.000001367990     0.000138315933     0.000070136918
      11       -0.000019424845    -0.000007611984     0.000009133098
      12        0.000008676876     0.000006715386    -0.000049851963
      13        0.000752999556     0.004298927331     0.001799742849
      14       -0.000005451937    -0.000037207608     0.000011921459
      15        0.000022409493     0.000009139461    -0.000002595498
      16       -0.000104172781    -0.001166288545    -0.005774641501
      17       -0.000035799577    -0.000028422547    -0.000037332721
      18       -0.000000631538     0.000003224193    -0.000004169035
      19       -0.000047910639     0.000018795112     0.004446465681

  **** Optimization is complete! (in 4 steps) ****
    Final optimized geometry and variables:
    Molecular point group: c1

    Geometry (in Angstrom), charge = 0, multiplicity = 1:

    H            2.543243085489    -1.000525884879    -0.372457538030
    N            1.561668458697    -0.829430638348    -0.388847259762
    C            1.276195011831     0.466363897425    -0.970595357888
    C            0.997779641970    -0.952452344270     0.940088453436
    H            1.682965303249     0.501872593920    -1.974041454533
    H            1.719176474248     1.284689932619    -0.399808647002
    C           -0.226752776020     0.670345627557    -1.026000861417
    H            1.206794842234    -1.943939310797     1.323387075708
    H            1.420068899170    -0.227029788546     1.638143720306
    C           -0.504436741834    -0.741420266624     0.875574417642
    H           -0.660144820371    -0.060388084044    -1.714288619547
    H           -0.443870597257     1.657789926471    -1.417709830083
    N           -0.811301342433     0.553215905817     0.295836693149
    H           -0.914419636691    -0.781232088891     1.877312756400
    H           -0.952591721862    -1.556516235370     0.300027244143
    C           -2.230496284113     0.829403295432     0.277512754474
    H           -2.744977700427     0.371670675421    -0.568939812283
    H           -2.686898825104     0.451084081311     1.183692606947
    H           -2.406750020800     1.898830890283     0.267049444607

  Mulliken Charges: (a.u.)
   Center  Symbol    Alpha    Beta     Spin     Total
       1     H     0.44000  0.44000  0.00000  0.12000
       2     N     3.64289  3.64289  0.00000 -0.28578
       3     C     3.04073  3.04073  0.00000 -0.08147
       4     C     3.04164  3.04164  0.00000 -0.08329
       5     H     0.45250  0.45250  0.00000  0.09501
       6     H     0.46528  0.46528  0.00000  0.06943
       7     C     3.03585  3.03585  0.00000 -0.07170
       8     H     0.45252  0.45252  0.00000  0.09496
       9     H     0.46547  0.46547  0.00000  0.06906
      10     C     3.03293  3.03293  0.00000 -0.06586
      11     H     0.46725  0.46725  0.00000  0.06549
      12     H     0.45399  0.45399  0.00000  0.09202
      13     N     3.61620  3.61620  0.00000 -0.23239
      14     H     0.45397  0.45397  0.00000  0.09206
      15     H     0.46927  0.46927  0.00000  0.06146
      16     C     3.09643  3.09643  0.00000 -0.19287
      17     H     0.46772  0.46772  0.00000  0.06456
      18     H     0.45510  0.45510  0.00000  0.08980
      19     H     0.45025  0.45025  0.00000  0.09949

   Total alpha = 28.00000, Total beta = 28.00000, Total charge = -0.00000
