  ==> Input File <==

--------------------------------------------------------------------------
set {
	reference rhf
	basis 6-31G*
}

set_num_threads( 4 )
memory 2 gb

molecule MOL {
0 1

H	 1.290797	 -2.906963	 -1.499844
O	 1.357501	 -2.349593	 -0.730659
C	 0.577928	 -1.285657	 -0.922288
C	 0.624473	 -0.343591	 0.253101
O	 -0.058270	 -1.139629	 -1.914732
C	 -0.265902	 0.883932	 0.072916
H	 0.352875	 -0.919468	 1.131721
H	 1.663592	 -0.057541	 0.395089
C	 -1.728698	 0.646073	 0.462102
H	 -0.209144	 1.219470	 -0.958188
H	 0.135059	 1.692851	 0.673903
C	 -2.482460	 -0.343073	 -0.431425
H	 -2.245265	 1.602650	 0.432430
H	 -1.779332	 0.308348	 1.496285
C	 -3.960546	 -0.461025	 -0.060175
H	 -2.395034	 -0.026811	 -1.468912
H	 -2.024850	 -1.327147	 -0.371646
H	 -4.472726	 -1.168004	 -0.705284
H	 -4.465146	 0.496508	 -0.151489
H	 -4.081218	 -0.800940	 0.964585

	symmetry c1
}
set optking {
	frozen_dihedral = ("
		7 4 6 10
	")
}

ee = optimize('scf')
oeprop('DIPOLE', 'QUADRUPOLE', 'MULLIKEN_CHARGES')
f=open( 'psi4out.xyz', 'w' )
f.write( "20  " )
f.write( str(ee) + "\n" )
f.write( MOL.save_string_xyz() )
f.close()
--------------------------------------------------------------------------

    Molecular point group: c1
  Charge       = 0
  Multiplicity = 1
  Basis Set: 6-31G*
  Basis Set:
  @DF-RHF Final Energy:  -383.94393160319754
    Total Energy =                       -383.9439316031975977
    Molecular point group: c1
  Basis Set: 6-31G*
  Basis Set:
  Basis Set: 6-31G*
  Basis Set:
  @DF-RHF Final Energy:  -383.94548576697650
    Total Energy =                       -383.9454857669763896
  Basis Set: 6-31G*
  Basis Set:
  Basis Set: 6-31G*
  Basis Set:
  @DF-RHF Final Energy:  -383.94602666470570
    Total Energy =                       -383.9460266647055278
  Basis Set: 6-31G*
  Basis Set:
  Basis Set: 6-31G*
  Basis Set:
  @DF-RHF Final Energy:  -383.94520837329446
    Total Energy =                       -383.9452083732943493
  Basis Set: 6-31G*
  Basis Set:
  @DF-RHF Final Energy:  -383.94653595410091
    Total Energy =                       -383.9465359541004545
  @DF-RHF Final Energy:  -383.94667133928704
    Total Energy =                       -383.9466713392870361
  @DF-RHF Final Energy:  -383.94673951174224
    Total Energy =                       -383.9467395117420665
  Basis Set: 6-31G*
  Basis Set:
  @DF-RHF Final Energy:  -383.94677475966779
    Total Energy =                       -383.9467747596677327
  Basis Set: 6-31G*
  Basis Set:
  Basis Set: 6-31G*
  Basis Set:
  @DF-RHF Final Energy:  -383.94678156585275
    Total Energy =                       -383.9467815658525751
  Basis Set: 6-31G*
  Basis Set:
  Basis Set: 6-31G*
  Basis Set:
  @DF-RHF Final Energy:  -383.94678390640439
    Total Energy =                       -383.9467839064042209
  Basis Set: 6-31G*
  Basis Set:
  Charge       = 0
  Multiplicity = 1
  Basis Set: 6-31G*
  Basis Set:

    Orbital Energies (a.u.)
    -----------------------

    Doubly Occupied:

       1A    -20.614052     2A    -20.550948     3A    -11.381747
       4A    -11.240571     5A    -11.223609     6A    -11.218043
       7A    -11.214338     8A    -11.208330     9A     -1.475516
      10A     -1.365759    11A     -1.093712    12A     -1.037419
      13A     -0.958982    14A     -0.870960    15A     -0.813163
      16A     -0.773786    17A     -0.701203    18A     -0.691699
      19A     -0.662574    20A     -0.628943    21A     -0.600283
      22A     -0.593532    23A     -0.574500    24A     -0.552396
      25A     -0.537821    26A     -0.514208    27A     -0.495617
      28A     -0.482534    29A     -0.464493    30A     -0.460828
      31A     -0.455980    32A     -0.441558

  @DF-RHF Final Energy:  -383.94678436226536

   => Energetics <=

    Nuclear Repulsion Energy =            390.0433435169510403
    One-Electron Energy =               -1296.1820420808385279
    Two-Electron Energy =                 522.1919142016220121
    DFT Exchange-Correlation Energy =       0.0000000000000000
    Empirical Dispersion Energy =           0.0000000000000000
    PCM Polarization Energy =               0.0000000000000000
    EFP Energy =                            0.0000000000000000
    Total Energy =                       -383.9467843622654755
    Molecular point group: c1
  Basis Set: 6-31G*
  Basis Set:

  -Total Gradient:
     Atom            X                  Y                   Z
    ------   -----------------  -----------------  -----------------
       1        0.000005873198    -0.000002163627    -0.000002805085
       2       -0.000009183099    -0.000002972882    -0.000016341580
       3       -0.000012219160     0.000035371933     0.000013966439
       4        0.000252810090     0.000216563228     0.000311316646
       5        0.000007263351    -0.000028674327    -0.000037383802
       6        0.000332616314     0.000242570183     0.000080141332
       7       -0.000264626337    -0.000202811144    -0.000234606082
       8       -0.000005683438     0.000010118195    -0.000001209853
       9        0.000002890932    -0.000033891743     0.000010337426
      10       -0.000293925069    -0.000242173775    -0.000105970638
      11       -0.000013189823    -0.000003554326    -0.000009831363
      12       -0.000006878512     0.000006772357     0.000015782038
      13        0.000005992637    -0.000002518414    -0.000007040780
      14        0.000004161106    -0.000003555953     0.000005904590
      15       -0.000013680600    -0.000003037854     0.000025165149
      16        0.000007463100     0.000007392390    -0.000029877802
      17       -0.000006696487     0.000005202947    -0.000011062757
      18        0.000007179007    -0.000004068796     0.000007861357
      19        0.000001192857    -0.000003858268    -0.000014490457
      20       -0.000001360074     0.000009289882     0.000000145222

  **** Optimization is complete! (in 11 steps) ****
    Final optimized geometry and variables:
    Molecular point group: c1

    Geometry (in Angstrom), charge = 0, multiplicity = 1:

    H            1.833558324241    -2.387392979978    -1.044812505048
    O            1.779544899070    -1.887474774673    -0.235990893303
    C            1.369067791992    -0.656944795096    -0.537975017962
    C            1.319737523543     0.233181691136     0.679634864759
    O            1.121936560934    -0.331638642726    -1.653965243076
    C            0.416709501355     1.462262613035     0.528390355996
    H            1.042155562511    -0.369718473890     1.536941293531
    H            2.349342539100     0.540979079006     0.847749426639
    C           -1.051753454258     1.228123598915     0.904047413576
    H            0.485274347366     1.824783769039    -0.490873396276
    H            0.806050706175     2.248085706900     1.168662393351
    C           -1.793631629302     0.191237123766     0.056544236859
    H           -1.572819224745     2.179859474497     0.825836250450
    H           -1.108909046465     0.938644833946     1.952635322422
    C           -3.274366915313     0.093798719844     0.423523312219
    H           -1.692032212287     0.441251485726    -0.995372355704
    H           -1.337292176762    -0.788021771167     0.182163316857
    H           -3.779402626617    -0.654278443799    -0.179464677915
    H           -3.780252193880     1.042139886482     0.265809135824
    H           -3.404284584218    -0.179558257626     1.467108474592

  Mulliken Charges: (a.u.)
   Center  Symbol    Alpha    Beta     Spin     Total
       1     H     0.26795  0.26795  0.00000  0.46410
       2     O     4.35067  4.35067  0.00000 -0.70133
       3     C     2.62236  2.62236  0.00000  0.75528
       4     C     3.21238  3.21238  0.00000 -0.42476
       5     O     4.28163  4.28163  0.00000 -0.56326
       6     C     3.16168  3.16168  0.00000 -0.32337
       7     H     0.39805  0.39805  0.00000  0.20389
       8     H     0.39521  0.39521  0.00000  0.20957
       9     C     3.15246  3.15246  0.00000 -0.30493
      10     H     0.40028  0.40028  0.00000  0.19944
      11     H     0.41674  0.41674  0.00000  0.16651
      12     C     3.15754  3.15754  0.00000 -0.31509
      13     H     0.41966  0.41966  0.00000  0.16067
      14     H     0.42474  0.42474  0.00000  0.15051
      15     C     3.23946  3.23946  0.00000 -0.47893
      16     H     0.41075  0.41075  0.00000  0.17849
      17     H     0.42600  0.42600  0.00000  0.14801
      18     H     0.41821  0.41821  0.00000  0.16359
      19     H     0.42142  0.42142  0.00000  0.15717
      20     H     0.42278  0.42278  0.00000  0.15443

   Total alpha = 32.00000, Total beta = 32.00000, Total charge = -0.00000
