  ==> Input File <==

--------------------------------------------------------------------------
set {
	reference rhf
	basis cc-pvtz
}

set_num_threads( 4 )
memory 2 gb

molecule MOL {
0 1

H	 0.817127	 1.799155	 1.497638
C	 1.083002	 1.050590	 0.738824
C	 0.062554	 0.862911	 -0.350953
O	 2.109582	 0.469660	 0.815032
C	 -1.339253	 0.577611	 0.196911
H	 0.401069	 0.071887	 -1.007597
H	 0.041822	 1.788130	 -0.922454
C	 -1.813142	 -0.849710	 -0.061612
H	 -2.032833	 1.276441	 -0.256032
H	 -1.357249	 0.782269	 1.263793
H	 -1.839268	 -1.063526	 -1.124230
H	 -2.810118	 -1.001930	 0.334000
H	 -1.159274	 -1.579980	 0.402282

	symmetry c1
}
set optking {
	frozen_dihedral = ("
		6 3 5 9
	")
}

ee = optimize('scf')
oeprop('DIPOLE', 'QUADRUPOLE', 'MULLIKEN_CHARGES')
f=open( 'psi4out.xyz', 'w' )
f.write( "13  " )
f.write( str(ee) + "\n" )
f.write( MOL.save_string_xyz() )
f.close()
--------------------------------------------------------------------------

    Molecular point group: c1
  Charge       = 0
  Multiplicity = 1
  Basis Set: CC-PVTZ
  Basis Set:
  @DF-RHF Final Energy:  -231.06642053710164
    Total Energy =                       -231.0664205371019193
    Molecular point group: c1
  Basis Set: CC-PVTZ
  Basis Set:
  Basis Set: CC-PVTZ
  Basis Set:
  @DF-RHF Final Energy:  -231.06651151369175
    Total Energy =                       -231.0665115136917507
  Basis Set: CC-PVTZ
  Basis Set:
  Basis Set: CC-PVTZ
  Basis Set:
  @DF-RHF Final Energy:  -231.06670526034827
    Total Energy =                       -231.0667052603482716
  Basis Set: CC-PVTZ
  Basis Set:
  Basis Set: CC-PVTZ
  Basis Set:
  @DF-RHF Final Energy:  -231.06681384398598
    Total Energy =                       -231.0668138439860968
  Basis Set: CC-PVTZ
  Basis Set:
  Basis Set: CC-PVTZ
  Basis Set:
  @DF-RHF Final Energy:  -231.06681643577761
    Total Energy =                       -231.0668164357775254
  Basis Set: CC-PVTZ
  Basis Set:
  Basis Set: CC-PVTZ
  Basis Set:
  @DF-RHF Final Energy:  -231.06681810999243
    Total Energy =                       -231.0668181099926528
  Basis Set: CC-PVTZ
  Basis Set:
  Charge       = 0
  Multiplicity = 1
  Basis Set: CC-PVTZ
  Basis Set:

    Orbital Energies (a.u.)
    -----------------------

    Doubly Occupied:

       1A    -20.552547     2A    -11.321889     3A    -11.237176
       4A    -11.234508     5A    -11.219999     6A     -1.407649
       7A     -1.085308     8A     -0.976027     9A     -0.842245
      10A     -0.794773    11A     -0.672405    12A     -0.649669
      13A     -0.630070    14A     -0.586848    15A     -0.560915
      16A     -0.542571    17A     -0.500313    18A     -0.498002
      19A     -0.482060    20A     -0.413102

  @DF-RHF Final Energy:  -231.06681872537456

   => Energetics <=

    Nuclear Repulsion Energy =            172.2860563979490962
    One-Electron Energy =                -654.2895987076117308
    Two-Electron Energy =                 250.9367235842880746
    DFT Exchange-Correlation Energy =       0.0000000000000000
    Empirical Dispersion Energy =           0.0000000000000000
    PCM Polarization Energy =               0.0000000000000000
    EFP Energy =                            0.0000000000000000
    Total Energy =                       -231.0668187253745600
    Molecular point group: c1
  Basis Set: CC-PVTZ
  Basis Set:

  -Total Gradient:
     Atom            X                  Y                   Z
    ------   -----------------  -----------------  -----------------
       1        0.000009686568    -0.000004284458    -0.000012300017
       2        0.000038966373     0.000005255433     0.000086462703
       3       -0.001417201380     0.002106310069    -0.002341370361
       4       -0.000006396441     0.000001060327    -0.000028045770
       5       -0.000190422798    -0.002590999898    -0.002057122832
       6        0.001150243735    -0.001332867377     0.002223127215
       7        0.000004992116    -0.000011901203     0.000013164125
       8       -0.000014829405     0.000012448660     0.000012432686
       9        0.000412250131     0.001823479306     0.002089625080
      10       -0.000001271650     0.000013386200     0.000012785760
      11        0.000003169684    -0.000000493245     0.000004402493
      12        0.000009722070    -0.000013411694    -0.000014543982
      13        0.000001090997    -0.000007982119     0.000011382900

  **** Optimization is complete! (in 7 steps) ****
    Final optimized geometry and variables:
    Molecular point group: c1

    Geometry (in Angstrom), charge = 0, multiplicity = 1:

    H            0.817624039375     1.386113755980     1.230484069174
    C            1.059095083349     0.632055372526     0.469656361927
    C            0.047697256567     0.496798928383    -0.637966193730
    O            2.051088936881    -0.004143708722     0.560567875752
    C           -1.367429900237     0.201823597946    -0.094658135386
    H            0.395669185779    -0.291164319926    -1.291962884421
    H            0.055681427079     1.431115682581    -1.190693292433
    C           -1.805023441338    -1.241132063511    -0.320135539687
    H           -2.081588063447     0.884867963522    -0.537782722493
    H           -1.396628260217     0.416404680489     0.970370143225
    H           -1.850880231108    -1.472796693815    -1.378218577274
    H           -2.786069463964    -1.419973432957     0.103613832149
    H           -1.110606835025    -1.935010892232     0.140484011034

  Mulliken Charges: (a.u.)
   Center  Symbol    Alpha    Beta     Spin     Total
       1     H     0.46576  0.46576  0.00000  0.06849
       2     C     2.90352  2.90352  0.00000  0.19297
       3     C     3.08813  3.08813  0.00000 -0.17625
       4     O     4.16482  4.16482  0.00000 -0.32964
       5     C     3.09573  3.09573  0.00000 -0.19146
       6     H     0.44370  0.44370  0.00000  0.11259
       7     H     0.44285  0.44285  0.00000  0.11430
       8     C     3.14490  3.14490  0.00000 -0.28980
       9     H     0.44562  0.44562  0.00000  0.10875
      10     H     0.45574  0.45574  0.00000  0.08852
      11     H     0.45259  0.45259  0.00000  0.09482
      12     H     0.44760  0.44760  0.00000  0.10479
      13     H     0.44904  0.44904  0.00000  0.10192

   Total alpha = 20.00000, Total beta = 20.00000, Total charge = -0.00000
