  ==> Input File <==

--------------------------------------------------------------------------
set {
	reference rhf
	basis 6-31G*
}

set_num_threads( 1 )
memory 2 gb

molecule MOL {
0 1

O	 -1.092260	 1.344455	 -2.211340
C	 -1.528532	 0.801966	 -1.241904
C	 -0.889235	 -0.467034	 -0.705952
C	 -2.710774	 1.362171	 -0.483057
C	 0.379448	 -0.143569	 0.099626
H	 -0.629487	 -1.088695	 -1.555877
H	 -1.592124	 -1.017066	 -0.086727
C	 1.631333	 -0.777471	 -0.511575
H	 0.482768	 0.934507	 0.149241
H	 0.263088	 -0.495696	 1.123449
C	 2.915987	 -0.544314	 0.291766
H	 1.766672	 -0.399098	 -1.523130
H	 1.471257	 -1.849544	 -0.605828
C	 3.373361	 0.914346	 0.347591
H	 3.708709	 -1.142521	 -0.150311
H	 2.780642	 -0.921148	 1.303579
H	 3.506512	 1.320010	 -0.651625
H	 4.322697	 0.999599	 0.867103
H	 2.660624	 1.545032	 0.868198
H	 -3.554722	 0.682640	 -0.568230
H	 -2.985168	 2.327451	 -0.885210
H	 -2.479984	 1.454874	 0.574273

	symmetry c1
}
set optking {
	frozen_dihedral = ("
		6 3 2 1,
		3 5 8 12,
		12 8 11 15
	")
}

ee = energy('scf')
oeprop('DIPOLE', 'QUADRUPOLE', 'MULLIKEN_CHARGES')
f=open( 'psi4out.xyz', 'w' )
f.write( "22  " )
f.write( str(ee) + "\n" )
f.write( MOL.save_string_xyz() )
f.close()
--------------------------------------------------------------------------

    Molecular point group: c1

    Geometry (in Angstrom), charge = 0, multiplicity = 1:

       Center              X                  Y                   Z               Mass
    ------------   -----------------  -----------------  -----------------  -----------------
           O         -1.358559881109     1.014701738923    -1.659544953575    15.994914619560
           C         -1.794831881109     0.472212738923    -0.690108953575    12.000000000000
           C         -1.155534881109    -0.796787261077    -0.154156953575    12.000000000000
           C         -2.977073881109     1.032417738923     0.068738046425    12.000000000000
           C          0.113148118891    -0.473322261077     0.651421046425    12.000000000000
           H         -0.895786881109    -1.418448261077    -1.004081953575     1.007825032070
           H         -1.858423881109    -1.346819261077     0.465068046425     1.007825032070
           C          1.365033118891    -1.107224261077     0.040220046425    12.000000000000
           H          0.216468118891     0.604753738923     0.701036046425     1.007825032070
           H         -0.003211881109    -0.825449261077     1.675244046425     1.007825032070
           C          2.649687118891    -0.874067261077     0.843561046425    12.000000000000
           H          1.500372118891    -0.728851261077    -0.971334953575     1.007825032070
           H          1.204957118891    -2.179297261077    -0.054032953575     1.007825032070
           C          3.107061118891     0.584592738923     0.899386046425    12.000000000000
           H          3.442409118891    -1.472274261077     0.401484046425     1.007825032070
           H          2.514342118891    -1.250901261077     1.855374046425     1.007825032070
           H          3.240212118891     0.990256738923    -0.099829953575     1.007825032070
           H          4.056397118891     0.669845738923     1.418898046425     1.007825032070
           H          2.394324118891     1.215278738923     1.419993046425     1.007825032070
           H         -3.821021881109     0.352886738923    -0.016434953575     1.007825032070
           H         -3.251467881109     1.997697738923    -0.333414953575     1.007825032070
           H         -2.746283881109     1.125120738923     1.126068046425     1.007825032070

  Charge       = 0
  Multiplicity = 1
  Basis Set: 6-31G*
  Basis Set:

    Orbital Energies (a.u.)
    -----------------------

    Doubly Occupied:

       1A    -20.546700     2A    -11.324525     3A    -11.228453
       4A    -11.228405     5A    -11.227302     6A    -11.218876
       7A    -11.217528     8A    -11.208871     9A     -1.392899
      10A     -1.094104    11A     -1.042879    12A     -0.999078
      13A     -0.935192    14A     -0.856735    15A     -0.785121
      16A     -0.734900    17A     -0.661316    18A     -0.639145
      19A     -0.627134    20A     -0.611013    21A     -0.599353
      22A     -0.588096    23A     -0.553434    24A     -0.549174
      25A     -0.530865    26A     -0.519710    27A     -0.501852
      28A     -0.481442    29A     -0.465431    30A     -0.462716
      31A     -0.455528    32A     -0.396066

  @DF-RHF Final Energy:  -348.09238397989679

   => Energetics <=

    Nuclear Repulsion Energy =            376.6888767000832559
    One-Electron Energy =               -1218.1948374600906391
    Two-Electron Energy =                 493.4135767801119528
    DFT Exchange-Correlation Energy =       0.0000000000000000
    Empirical Dispersion Energy =           0.0000000000000000
    PCM Polarization Energy =               0.0000000000000000
    EFP Energy =                            0.0000000000000000
    Total Energy =                       -348.0923839798954305

  Mulliken Charges: (a.u.)
   Center  Symbol    Alpha    Beta     Spin     Total
       1     O     4.26259  4.26259  0.00000 -0.52519
       2     C     2.74191  2.74191  0.00000  0.51619
       3     C     3.20171  3.20171  0.00000 -0.40341
       4     C     3.28951  3.28951  0.00000 -0.57902
       5     C     3.16056  3.16056  0.00000 -0.32113
       6     H     0.39893  0.39893  0.00000  0.20214
       7     H     0.41431  0.41431  0.00000  0.17138
       8     C     3.15629  3.15629  0.00000 -0.31258
       9     H     0.41003  0.41003  0.00000  0.17993
      10     H     0.41856  0.41856  0.00000  0.16289
      11     C     3.15452  3.15452  0.00000 -0.30904
      12     H     0.41292  0.41292  0.00000  0.17416
      13     H     0.42119  0.42119  0.00000  0.15761
      14     C     3.24138  3.24138  0.00000 -0.48277
      15     H     0.41950  0.41950  0.00000  0.16100
      16     H     0.42411  0.42411  0.00000  0.15178
      17     H     0.41852  0.41852  0.00000  0.16296
      18     H     0.41898  0.41898  0.00000  0.16204
      19     H     0.42087  0.42087  0.00000  0.15825
      20     H     0.40669  0.40669  0.00000  0.18662
      21     H     0.39717  0.39717  0.00000  0.20566
      22     H     0.40974  0.40974  0.00000  0.18051

   Total alpha = 32.00000, Total beta = 32.00000, Total charge =  0.00000
