  ==> Input File <==

--------------------------------------------------------------------------
set {
	reference rhf
	basis cc-pvtz
}

set_num_threads( 4 )
memory 2 gb

molecule MOL {
0 1

H	 -2.412160	 0.528611	 2.238386
C	 -2.213210	 -0.354423	 1.635432
O	 -0.940595	 -0.315783	 1.081810
H	 -2.272141	 -1.227888	 2.268263
H	 -2.981445	 -0.426715	 0.867661
C	 -0.718530	 0.758693	 0.228682
C	 0.718529	 0.758687	 -0.228709
H	 -1.366826	 0.687396	 -0.644587
H	 -0.934047	 1.699551	 0.730447
O	 1.401606	 -0.295166	 0.366636
H	 0.748705	 0.673477	 -1.312803
H	 1.176496	 1.708671	 0.046552
C	 2.714315	 -0.441627	 -0.061017
H	 2.765292	 -0.641548	 -1.128869
H	 3.305661	 0.447341	 0.150952
H	 3.143725	 -1.278506	 0.470147

	symmetry c1
}
set optking {
	frozen_dihedral = ("
		3 6 7 11
	")
}

ee = optimize('scf')
oeprop('DIPOLE', 'QUADRUPOLE', 'MULLIKEN_CHARGES')
f=open( 'psi4out.xyz', 'w' )
f.write( "16  " )
f.write( str(ee) + "\n" )
f.write( MOL.save_string_xyz() )
f.close()
--------------------------------------------------------------------------

    Molecular point group: c1
  Charge       = 0
  Multiplicity = 1
  Basis Set: CC-PVTZ
  Basis Set:
  @DF-RHF Final Energy:  -307.08253873759719
    Total Energy =                       -307.0825387375971331
    Molecular point group: c1
  Basis Set: CC-PVTZ
  Basis Set:
  Basis Set: CC-PVTZ
  Basis Set:
  @DF-RHF Final Energy:  -307.08334540266935
    Total Energy =                       -307.0833454026691243
  Basis Set: CC-PVTZ
  Basis Set:
  Basis Set: CC-PVTZ
  Basis Set:
  @DF-RHF Final Energy:  -307.08440382668039
    Total Energy =                       -307.0844038266802158
  Basis Set: CC-PVTZ
  Basis Set:
  Basis Set: CC-PVTZ
  Basis Set:
  @DF-RHF Final Energy:  -307.08443464645660
    Total Energy =                       -307.0844346464565433
  Basis Set: CC-PVTZ
  Basis Set:
  Charge       = 0
  Multiplicity = 1
  Basis Set: CC-PVTZ
  Basis Set:

    Orbital Energies (a.u.)
    -----------------------

    Doubly Occupied:

       1A    -20.545735     2A    -20.545589     3A    -11.270058
       4A    -11.269483     5A    -11.260435     6A    -11.260376
       7A     -1.392686     8A     -1.372018     9A     -1.024196
      10A     -0.934652    11A     -0.897365    12A     -0.819268
      13A     -0.689763    14A     -0.674302    15A     -0.660080
      16A     -0.647616    17A     -0.618523    18A     -0.592249
      19A     -0.574943    20A     -0.516513    21A     -0.508617
      22A     -0.470063    23A     -0.469053    24A     -0.428323
      25A     -0.399517

  @DF-RHF Final Energy:  -307.08443607080210

   => Energetics <=

    Nuclear Repulsion Energy =            259.9361956491195542
    One-Electron Energy =                -934.3584139358816856
    Two-Electron Energy =                 367.3377822159599191
    DFT Exchange-Correlation Energy =       0.0000000000000000
    Empirical Dispersion Energy =           0.0000000000000000
    PCM Polarization Energy =               0.0000000000000000
    EFP Energy =                            0.0000000000000000
    Total Energy =                       -307.0844360708022123
    Molecular point group: c1
  Basis Set: CC-PVTZ
  Basis Set:

  -Total Gradient:
     Atom            X                  Y                   Z
    ------   -----------------  -----------------  -----------------
       1        0.000000100360     0.000000222120     0.000001651194
       2       -0.000005523600     0.000000600379     0.000014195637
       3        0.000187076045     0.000346541574     0.000523799903
       4       -0.000003243501    -0.000003818086    -0.000001815120
       5       -0.000004068845    -0.000006341335    -0.000001625172
       6       -0.000240316754    -0.000259013632    -0.000732441720
       7        0.000021961148    -0.000808557795     0.000222760929
       8        0.000007771008    -0.000020779568     0.000012226346
       9        0.000012648781     0.000003724117    -0.000012243259
      10        0.000021583652    -0.000059228658     0.000018934120
      11       -0.000000064129     0.000824629077    -0.000039452386
      12       -0.000006023870    -0.000010765634    -0.000000694796
      13       -0.000011639661    -0.000008859112    -0.000015931270
      14        0.000007231297    -0.000002510870     0.000000313819
      15        0.000005888443     0.000004452893     0.000006394627
      16        0.000006619625    -0.000000295472     0.000003927149

  **** Optimization is complete! (in 5 steps) ****
    Final optimized geometry and variables:
    Molecular point group: c1

    Geometry (in Angstrom), charge = 0, multiplicity = 1:

    H           -2.671672402121     0.576431272422     1.678089256062
    C           -2.445558573910    -0.328976779761     1.117826657974
    O           -1.145990648900    -0.317580535246     0.631810126010
    H           -2.542426548327    -1.178979877283     1.777226990570
    H           -3.173391547025    -0.424568616129     0.314129445951
    C           -0.882930724997     0.732416529394    -0.232997168427
    C            0.571979119244     0.698908628043    -0.743714907191
    H           -1.561845885689     0.693039635905    -1.083101821719
    H           -1.063816811011     1.679703093507     0.272151074670
    O            1.288921336576    -0.344901067995    -0.182501206572
    H            0.571044213995     0.610883607025    -1.828848302721
    H            1.053002299041     1.646965517296    -0.508286374196
    C            2.607052468949    -0.411261867547    -0.610820248921
    H            2.671625219745    -0.557503641938    -1.687462430633
    H            3.157643306755     0.492100722511    -0.354694485134
    H            3.070991775897    -1.252656600549    -0.117357056235

  Mulliken Charges: (a.u.)
   Center  Symbol    Alpha    Beta     Spin     Total
       1     H     0.47314  0.47314  0.00000  0.05372
       2     C     3.03230  3.03230  0.00000 -0.06460
       3     O     4.15597  4.15597  0.00000 -0.31195
       4     H     0.44563  0.44563  0.00000  0.10874
       5     H     0.47315  0.47315  0.00000  0.05369
       6     C     2.96688  2.96688  0.00000  0.06625
       7     C     2.96670  2.96670  0.00000  0.06661
       8     H     0.47645  0.47645  0.00000  0.04709
       9     H     0.47650  0.47650  0.00000  0.04700
      10     O     4.15583  4.15583  0.00000 -0.31166
      11     H     0.47649  0.47649  0.00000  0.04701
      12     H     0.47680  0.47680  0.00000  0.04641
      13     C     3.03236  3.03236  0.00000 -0.06472
      14     H     0.47303  0.47303  0.00000  0.05394
      15     H     0.47314  0.47314  0.00000  0.05372
      16     H     0.44562  0.44562  0.00000  0.10876

   Total alpha = 25.00000, Total beta = 25.00000, Total charge = -0.00000
