  ==> Input File <==

--------------------------------------------------------------------------
set {
	reference rhf
	basis 6-31G*
}

set_num_threads( 1 )
memory 2 gb

molecule MOL {
0 1

H	 1.917801	 -5.232247	 0.522345
O	 2.754375	 -5.015549	 0.137302
C	 2.556160	 -4.393083	 -1.106604
C	 2.029878	 -2.967002	 -0.988091
H	 3.524668	 -4.386271	 -1.589946
H	 1.888800	 -4.988488	 -1.728620
C	 0.638493	 -2.867443	 -0.358007
H	 2.737858	 -2.385658	 -0.403137
H	 2.007550	 -2.529907	 -1.984994
C	 0.115918	 -1.429151	 -0.302766
H	 0.670931	 -3.280513	 0.646327
H	 -0.061213	 -3.480059	 -0.926736
C	 -1.309753	 -1.282496	 0.241564
H	 0.794017	 -0.824681	 0.296938
H	 0.145672	 -1.011330	 -1.306877
C	 -2.037799	 -0.007733	 -0.193645
H	 -1.890610	 -2.142323	 -0.085726
H	 -1.285946	 -1.330893	 1.329189
C	 -3.489788	 0.042957	 0.286558
H	 -2.017067	 0.064384	 -1.280144
H	 -1.513726	 0.868678	 0.179924
C	 -4.216917	 1.317354	 -0.141063
H	 -4.025645	 -0.823308	 -0.095450
H	 -3.513059	 -0.038752	 1.371301
H	 -4.239342	 1.411634	 -1.223113
H	 -5.243387	 1.322503	 0.212445
H	 -3.726170	 2.201406	 0.256408

	symmetry c1
}
set optking {
	frozen_dihedral = ("
		14 10 7 4,
		10 7 4 8,
		8 4 3 2,
		10 13 16 20,
		20 16 19 22,
		4 3 2 1
	")
}

ee = energy('scf')
oeprop('DIPOLE', 'QUADRUPOLE', 'MULLIKEN_CHARGES')
f=open( 'psi4out.xyz', 'w' )
f.write( "27  " )
f.write( str(ee) + "\n" )
f.write( MOL.save_string_xyz() )
f.close()
--------------------------------------------------------------------------

    Molecular point group: c1

    Geometry (in Angstrom), charge = 0, multiplicity = 1:

       Center              X                  Y                   Z               Mass
    ------------   -----------------  -----------------  -----------------  -----------------
           H          2.213236942012    -3.341480832941     0.786713850244     1.007825032070
           O          3.049810942012    -3.124782832941     0.401670850244    15.994914619560
           C          2.851595942012    -2.502316832941    -0.842235149756    12.000000000000
           C          2.325313942012    -1.076235832941    -0.723722149756    12.000000000000
           H          3.820103942012    -2.495504832941    -1.325577149756     1.007825032070
           H          2.184235942012    -3.097721832941    -1.464251149756     1.007825032070
           C          0.933928942012    -0.976676832941    -0.093638149756    12.000000000000
           H          3.033293942012    -0.494891832941    -0.138768149756     1.007825032070
           H          2.302985942012    -0.639140832941    -1.720625149756     1.007825032070
           C          0.411353942012     0.461615167059    -0.038397149756    12.000000000000
           H          0.966366942012    -1.389746832941     0.910695850244     1.007825032070
           H          0.234222942012    -1.589292832941    -0.662367149756     1.007825032070
           C         -1.014317057988     0.608270167059     0.505932850244    12.000000000000
           H          1.089452942012     1.066085167059     0.561306850244     1.007825032070
           H          0.441107942012     0.879436167059    -1.042508149756     1.007825032070
           C         -1.742363057988     1.883033167059     0.070723850244    12.000000000000
           H         -1.595174057988    -0.251556832941     0.178642850244     1.007825032070
           H         -0.990510057988     0.559873167059     1.593557850244     1.007825032070
           C         -3.194352057988     1.933723167059     0.550926850244    12.000000000000
           H         -1.721631057988     1.955150167059    -1.015775149756     1.007825032070
           H         -1.218290057988     2.759444167059     0.444292850244     1.007825032070
           C         -3.921481057988     3.208120167059     0.123305850244    12.000000000000
           H         -3.730209057988     1.067458167059     0.168918850244     1.007825032070
           H         -3.217623057988     1.852014167059     1.635669850244     1.007825032070
           H         -3.943906057988     3.302400167059    -0.958744149756     1.007825032070
           H         -4.947951057988     3.213269167059     0.476813850244     1.007825032070
           H         -3.430734057988     4.092172167059     0.520776850244     1.007825032070

  Charge       = 0
  Multiplicity = 1
  Basis Set: 6-31G*
  Basis Set:

    Orbital Energies (a.u.)
    -----------------------

    Doubly Occupied:

       1A    -20.552332     2A    -11.267251     3A    -11.220921
       4A    -11.216762     5A    -11.216029     6A    -11.215451
       7A    -11.215303     8A    -11.214665     9A    -11.209335
      10A     -1.359106    11A     -1.094113    12A     -1.062960
      13A     -1.011592    14A     -0.950657    15A     -0.883553
      16A     -0.819914    17A     -0.791852    18A     -0.790161
      19A     -0.694267    20A     -0.658897    21A     -0.633870
      22A     -0.614035    23A     -0.600882    24A     -0.585783
      25A     -0.576533    26A     -0.555140    27A     -0.534475
      28A     -0.524267    29A     -0.509503    30A     -0.495738
      31A     -0.480536    32A     -0.475248    33A     -0.468660
      34A     -0.459824    35A     -0.459261    36A     -0.443562
      37A     -0.421457

  @DF-RHF Final Energy:  -388.28126654396823

   => Energetics <=

    Nuclear Repulsion Energy =            450.8528199395149727
    One-Electron Energy =               -1419.7003290957047739
    Two-Electron Energy =                 580.5662426122202078
    DFT Exchange-Correlation Energy =       0.0000000000000000
    Empirical Dispersion Energy =           0.0000000000000000
    PCM Polarization Energy =               0.0000000000000000
    EFP Energy =                            0.0000000000000000
    Total Energy =                       -388.2812665439695365

  Mulliken Charges: (a.u.)
   Center  Symbol    Alpha    Beta     Spin     Total
       1     H     0.27987  0.27987  0.00000  0.44027
       2     O     4.37097  4.37097  0.00000 -0.74193
       3     C     2.99740  2.99740  0.00000  0.00520
       4     C     3.16161  3.16161  0.00000 -0.32323
       5     H     0.41433  0.41433  0.00000  0.17135
       6     H     0.43200  0.43200  0.00000  0.13599
       7     C     3.16208  3.16208  0.00000 -0.32415
       8     H     0.41484  0.41484  0.00000  0.17031
       9     H     0.42400  0.42400  0.00000  0.15199
      10     C     3.15125  3.15125  0.00000 -0.30250
      11     H     0.42456  0.42456  0.00000  0.15088
      12     H     0.42484  0.42484  0.00000  0.15031
      13     C     3.15298  3.15298  0.00000 -0.30596
      14     H     0.42044  0.42044  0.00000  0.15912
      15     H     0.42337  0.42337  0.00000  0.15326
      16     C     3.15127  3.15127  0.00000 -0.30254
      17     H     0.42485  0.42485  0.00000  0.15031
      18     H     0.42225  0.42225  0.00000  0.15549
      19     C     3.15188  3.15188  0.00000 -0.30376
      20     H     0.42408  0.42408  0.00000  0.15184
      21     H     0.42309  0.42309  0.00000  0.15383
      22     C     3.23932  3.23932  0.00000 -0.47864
      23     H     0.42317  0.42317  0.00000  0.15366
      24     H     0.42286  0.42286  0.00000  0.15427
      25     H     0.42184  0.42184  0.00000  0.15633
      26     H     0.41921  0.41921  0.00000  0.16158
      27     H     0.42163  0.42163  0.00000  0.15674

   Total alpha = 37.00000, Total beta = 37.00000, Total charge =  0.00000
