  ==> Input File <==

--------------------------------------------------------------------------
set {
	reference rhf
	basis cc-pvtz
}

set_num_threads( 4 )
memory 2 gb

molecule MOL {
0 1

H	 -3.144994	 -1.202467	 -0.018751
O	 -2.321472	 -0.864941	 -0.318626
C	 -2.021813	 0.336996	 0.342658
C	 -0.669613	 0.837286	 -0.127252
H	 -2.780861	 1.084746	 0.127159
H	 -2.006390	 0.184138	 1.420053
C	 0.490865	 -0.082543	 0.241244
H	 -0.708709	 0.967192	 -1.204587
H	 -0.507562	 1.822272	 0.303070
C	 1.839800	 0.429565	 -0.255472
H	 0.305636	 -1.070211	 -0.165276
H	 0.527397	 -0.195943	 1.322876
C	 2.350175	 -0.321928	 -1.480446
H	 1.756088	 1.486845	 -0.491806
H	 2.572555	 0.353857	 0.543921
H	 1.655196	 -0.235316	 -2.308950
H	 3.307531	 0.065939	 -1.809587
H	 2.477291	 -1.378183	 -1.266878

	symmetry c1
}
set optking {
	frozen_dihedral = ("
		14 10 7 11
	")
}

ee = optimize('scf')
oeprop('DIPOLE', 'QUADRUPOLE', 'MULLIKEN_CHARGES')
f=open( 'psi4out.xyz', 'w' )
f.write( "18  " )
f.write( str(ee) + "\n" )
f.write( MOL.save_string_xyz() )
f.close()
--------------------------------------------------------------------------

    Molecular point group: c1
  Charge       = 0
  Multiplicity = 1
  Basis Set: CC-PVTZ
  Basis Set:
  @DF-RHF Final Energy:  -271.28183682618362
    Total Energy =                       -271.2818368261832802
    Molecular point group: c1
  Basis Set: CC-PVTZ
  Basis Set:
  Basis Set: CC-PVTZ
  Basis Set:
  @DF-RHF Final Energy:  -271.28214919336949
    Total Energy =                       -271.2821491933693778
  Basis Set: CC-PVTZ
  Basis Set:
  Basis Set: CC-PVTZ
  Basis Set:
  @DF-RHF Final Energy:  -271.28222061010553
    Total Energy =                       -271.2822206101052984
  Basis Set: CC-PVTZ
  Basis Set:
  Charge       = 0
  Multiplicity = 1
  Basis Set: CC-PVTZ
  Basis Set:

    Orbital Energies (a.u.)
    -----------------------

    Doubly Occupied:

       1A    -20.546466     2A    -11.265841     3A    -11.210767
       4A    -11.208839     5A    -11.204775     6A    -11.201598
       7A     -1.364302     8A     -1.074861     9A     -1.008132
      10A     -0.913433    11A     -0.822833    12A     -0.781130
      13A     -0.707834    14A     -0.641511    15A     -0.618859
      16A     -0.595814    17A     -0.570325    18A     -0.560054
      19A     -0.511009    20A     -0.504759    21A     -0.499419
      22A     -0.464881    23A     -0.454414    24A     -0.448745
      25A     -0.430396

  @DF-RHF Final Energy:  -271.28222146755957

   => Energetics <=

    Nuclear Repulsion Energy =            251.2757259783138863
    One-Electron Energy =                -865.8938965135571380
    Two-Electron Energy =                 343.3359490676838846
    DFT Exchange-Correlation Energy =       0.0000000000000000
    Empirical Dispersion Energy =           0.0000000000000000
    PCM Polarization Energy =               0.0000000000000000
    EFP Energy =                            0.0000000000000000
    Total Energy =                       -271.2822214675593955
    Molecular point group: c1
  Basis Set: CC-PVTZ
  Basis Set:

  -Total Gradient:
     Atom            X                  Y                   Z
    ------   -----------------  -----------------  -----------------
       1        0.000000008813     0.000003329536     0.000000946389
       2        0.000023401584    -0.000003532719     0.000047436997
       3       -0.000059675281     0.000031112751    -0.000082561478
       4        0.000064289248    -0.000056773605     0.000077615835
       5       -0.000024759674     0.000006214811     0.000015607954
       6        0.000010683258    -0.000020686427    -0.000020439153
       7        0.001468536340    -0.001650810161     0.002317030543
       8       -0.000004236529    -0.000004702161     0.000014358803
       9       -0.000001843488     0.000018897260    -0.000004232991
      10        0.000754836302     0.001151627453     0.002844852084
      11       -0.001384788570     0.001194853780    -0.002398665088
      12       -0.000023306545     0.000006377242    -0.000016884458
      13        0.000010919565     0.000035844401     0.000048269056
      14       -0.000840526411    -0.000707924360    -0.002806065571
      15        0.000003789354     0.000005632118    -0.000025445792
      16        0.000001872685     0.000006138650     0.000007647480
      17        0.000022443641    -0.000009601863    -0.000008567187
      18       -0.000021644301    -0.000005996707    -0.000010903422

  **** Optimization is complete! (in 4 steps) ****
    Final optimized geometry and variables:
    Molecular point group: c1

    Geometry (in Angstrom), charge = 0, multiplicity = 1:

    H           -3.018460073155    -1.242596877550     0.197390046502
    O           -2.191379522320    -0.896142069812    -0.081509887569
    C           -1.914666098860     0.301388260938     0.597601980232
    C           -0.555513090712     0.814869869861     0.163589198428
    H           -2.673842225418     1.046184679678     0.372399546681
    H           -1.922250611442     0.138119050932     1.673604757250
    C            0.605806529659    -0.096416055511     0.560515533388
    H           -0.568982703883     0.946865122387    -0.914336644574
    H           -0.412210036345     1.800043322531     0.599444755928
    C            1.963548969552     0.398234291730     0.028667121716
    H            0.400130004564    -1.085927456741     0.171444436948
    H            0.632277362120    -0.178009582643     1.642657822910
    C            2.428010130932    -0.353369526969    -1.217339175395
    H            1.892912355941     1.452767230634    -0.220865246457
    H            2.722498625554     0.309652622906     0.797863381410
    H            1.693686816667    -0.283665958642    -2.013063089295
    H            3.362725337823     0.047517266164    -1.593680497935
    H            2.579522412095    -1.405806400281    -1.003259089563

  Mulliken Charges: (a.u.)
   Center  Symbol    Alpha    Beta     Spin     Total
       1     H     0.39571  0.39571  0.00000  0.20858
       2     O     4.19833  4.19833  0.00000 -0.39667
       3     C     2.97380  2.97380  0.00000  0.05240
       4     C     3.09156  3.09156  0.00000 -0.18311
       5     H     0.46521  0.46521  0.00000  0.06958
       6     H     0.47361  0.47361  0.00000  0.05278
       7     C     3.09560  3.09560  0.00000 -0.19121
       8     H     0.45197  0.45197  0.00000  0.09605
       9     H     0.45340  0.45340  0.00000  0.09321
      10     C     3.08981  3.08981  0.00000 -0.17962
      11     H     0.44585  0.44585  0.00000  0.10831
      12     H     0.45259  0.45259  0.00000  0.09482
      13     C     3.14710  3.14710  0.00000 -0.29419
      14     H     0.45691  0.45691  0.00000  0.08619
      15     H     0.44908  0.44908  0.00000  0.10183
      16     H     0.45361  0.45361  0.00000  0.09278
      17     H     0.45084  0.45084  0.00000  0.09833
      18     H     0.45503  0.45503  0.00000  0.08994

   Total alpha = 25.00000, Total beta = 25.00000, Total charge = -0.00000
