  ==> Input File <==

--------------------------------------------------------------------------
set {
	reference rhf
	basis 6-31G*
}

set_num_threads( 4 )
memory 2 gb

molecule MOL {
0 1

O	 3.369247	 -3.183887	 0.879854
C	 2.777449	 -2.162209	 0.741981
C	 1.310924	 -1.948747	 1.029259
O	 3.347903	 -1.046386	 0.304773
C	 0.612333	 -3.203820	 1.547794
H	 1.240835	 -1.124623	 1.731468
H	 0.849778	 -1.595758	 0.110325
C	 -0.897816	 -3.032878	 1.744573
H	 1.072673	 -3.510318	 2.482280
H	 0.789936	 -4.012697	 0.847366
C	 -1.297589	 -2.048591	 2.847511
H	 -1.319321	 -4.007531	 1.979323
H	 -1.353530	 -2.726068	 0.804253
C	 -2.809130	 -1.996007	 3.078766
H	 -0.801584	 -2.330125	 3.775161
H	 -0.944803	 -1.049077	 2.603616
C	 -3.220684	 -1.011820	 4.175183
H	 -3.168430	 -2.990803	 3.336678
H	 -3.306487	 -1.724996	 2.148772
C	 -4.731352	 -0.968157	 4.402505
H	 -2.723791	 -1.280581	 5.104972
H	 -2.866198	 -0.016085	 3.917052
H	 -4.991569	 -0.261974	 5.184937
H	 -5.111865	 -1.942330	 4.696429
H	 -5.255305	 -0.668684	 3.499143
C	 4.728119	 -1.109107	 -0.004993
H	 4.882018	 -1.033965	 -1.071845
H	 5.068212	 -2.067527	 0.355250
H	 5.265056	 -0.311663	 0.488280

	symmetry c1
}
set optking {
	frozen_dihedral = ("
		2 4 26 27
	")
}

ee = optimize('scf')
oeprop('DIPOLE', 'QUADRUPOLE', 'MULLIKEN_CHARGES')
f=open( 'psi4out.xyz', 'w' )
f.write( "29  " )
f.write( str(ee) + "\n" )
f.write( MOL.save_string_xyz() )
f.close()
--------------------------------------------------------------------------

    Molecular point group: c1
  Charge       = 0
  Multiplicity = 1
  Basis Set: 6-31G*
  Basis Set:
  @DF-RHF Final Energy:  -501.03997294936494
    Total Energy =                       -501.0399729493656196
    Molecular point group: c1
  Basis Set: 6-31G*
  Basis Set:
  Basis Set: 6-31G*
  Basis Set:
  @DF-RHF Final Energy:  -501.04099474386589
    Total Energy =                       -501.0409947438657809
  Basis Set: 6-31G*
  Basis Set:
  Basis Set: 6-31G*
  Basis Set:
  @DF-RHF Final Energy:  -501.04207628434131
    Total Energy =                       -501.0420762843422153
  Basis Set: 6-31G*
  Basis Set:
  Basis Set: 6-31G*
  Basis Set:
  @DF-RHF Final Energy:  -501.04131548260182
    Total Energy =                       -501.0413154826019309
  Basis Set: 6-31G*
  Basis Set:
  Basis Set: 6-31G*
  Basis Set:
  @DF-RHF Final Energy:  -501.04211806899673
    Total Energy =                       -501.0421180689962739
  Basis Set: 6-31G*
  Basis Set:
  Basis Set: 6-31G*
  Basis Set:
  @DF-RHF Final Energy:  -501.04212002142106
    Total Energy =                       -501.0421200214215105
  Basis Set: 6-31G*
  Basis Set:
  Basis Set: 6-31G*
  Basis Set:
  @DF-RHF Final Energy:  -501.04211858011206
    Total Energy =                       -501.0421185801120600
  Basis Set: 6-31G*
  Basis Set:
  Charge       = 0
  Multiplicity = 1
  Basis Set: 6-31G*
  Basis Set:

    Orbital Energies (a.u.)
    -----------------------

    Doubly Occupied:

       1A    -20.602350     2A    -20.544474     3A    -11.373398
       4A    -11.279231     5A    -11.234107     6A    -11.218570
       7A    -11.217302     8A    -11.215785     9A    -11.215670
      10A    -11.214269    11A    -11.208956    12A     -1.466340
      13A     -1.362991    14A     -1.097712    15A     -1.066518
      16A     -1.019569    17A     -0.977812    18A     -0.928440
      19A     -0.861275    20A     -0.798921    21A     -0.790179
      22A     -0.762869    23A     -0.701666    24A     -0.680105
      25A     -0.672045    26A     -0.650650    27A     -0.628716
      28A     -0.604978    29A     -0.595165    30A     -0.580491
      31A     -0.568089    32A     -0.550093    33A     -0.533776
      34A     -0.527093    35A     -0.515170    36A     -0.511566
      37A     -0.496192    38A     -0.477583    39A     -0.469860
      40A     -0.462142    41A     -0.458430    42A     -0.451990
      43A     -0.441245    44A     -0.435206

  @DF-RHF Final Energy:  -501.04212015597886

   => Energetics <=

    Nuclear Repulsion Energy =            609.7202909769364396
    One-Electron Energy =               -1890.5868366797285489
    Two-Electron Energy =                 779.8244255468132451
    DFT Exchange-Correlation Energy =       0.0000000000000000
    Empirical Dispersion Energy =           0.0000000000000000
    PCM Polarization Energy =               0.0000000000000000
    EFP Energy =                            0.0000000000000000
    Total Energy =                       -501.0421201559788642
    Molecular point group: c1
  Basis Set: 6-31G*
  Basis Set:

  -Total Gradient:
     Atom            X                  Y                   Z
    ------   -----------------  -----------------  -----------------
       1        0.000008211145     0.000029911056    -0.000015714607
       2        0.000149086867     0.000164201894     0.000677635037
       3       -0.000002286897     0.000002236353     0.000009549959
       4       -0.000186531381    -0.000071854038    -0.000951603970
       5       -0.000006268234     0.000001136442    -0.000005646312
       6       -0.000002927274    -0.000002780079    -0.000005220138
       7       -0.000002860817    -0.000002688469    -0.000002875570
       8       -0.000001093527    -0.000001774114     0.000002341011
       9        0.000000851329     0.000001177349     0.000000554035
      10        0.000000337003     0.000002962153     0.000001366872
      11       -0.000000291682    -0.000000365413    -0.000001467435
      12       -0.000001565972     0.000000317600     0.000000808564
      13        0.000000112729    -0.000000088830    -0.000000075473
      14       -0.000000034856    -0.000000408306     0.000000669741
      15       -0.000000298370    -0.000000340976    -0.000000082337
      16        0.000000993436     0.000000178105    -0.000000003530
      17       -0.000000378713    -0.000000260907    -0.000000042872
      18        0.000000115538     0.000000053533     0.000000433199
      19       -0.000000134531    -0.000000451709     0.000000174687
      20       -0.000000129022     0.000000904777    -0.000000300883
      21       -0.000000260840    -0.000000322723    -0.000000004833
      22        0.000000238003    -0.000000014571     0.000000304976
      23       -0.000000249659     0.000000219441    -0.000000090932
      24        0.000000292985     0.000000106198     0.000000064153
      25       -0.000000192038    -0.000000148281    -0.000000025304
      26        0.000013658138    -0.000905877178     0.000219207480
      27        0.000021696535     0.000791394643     0.000068078912
      28        0.000011241347    -0.000005642876     0.000000592539
      29       -0.000001331275    -0.000001781069     0.000001373032

  **** Optimization is complete! (in 8 steps) ****
    Final optimized geometry and variables:
    Molecular point group: c1

    Geometry (in Angstrom), charge = 0, multiplicity = 1:

    O            3.026005065736    -1.258265871540    -0.986131455718
    C            2.449201101277    -0.228678842495    -1.125945007994
    C            0.983675386262    -0.002746759847    -0.840841458314
    O            3.019582978187     0.889414563018    -1.561093641227
    C            0.271604424767    -1.252462066032    -0.327964744059
    H            0.919941723310     0.819888532152    -0.136372616679
    H            0.528172936935     0.357613754789    -1.759684928928
    C           -1.237054576902    -1.066672911811    -0.133013421665
    H            0.727159808141    -1.567066658715     0.606150067824
    H            0.441956683988    -2.060605473023    -1.031009015311
    C           -1.628557493231    -0.082742956644     0.973224697714
    H           -1.669076099650    -2.037821397400     0.097147824716
    H           -1.688018138504    -0.751378213351    -1.072825934630
    C           -3.139864760311    -0.015533915525     1.202245132981
    H           -1.137027891199    -0.373088736346     1.900541779766
    H           -1.265097978791     0.914047202765     0.733939891200
    C           -3.543161805998     0.968728141127     2.301652964756
    H           -3.509770564951    -1.007545765418     1.455849043263
    H           -3.632874912809     0.264011483327     0.272465713705
    C           -5.053731527688     1.027502548547     2.526247335337
    H           -3.050960981610     0.691178759354     3.231356150097
    H           -3.177673600427     1.961643311505     2.048039281215
    H           -5.308019915138     1.733521642147     3.310782712233
    H           -5.445068947776     0.056325499456     2.815838667763
    H           -5.572731899594     1.335792182446     1.622991564991
    C            4.402588802178     0.887819438825    -1.872025671897
    H            4.515294574646     0.977068534844    -2.943988690245
    H            4.875897112479    -0.013755951287    -1.521670105614
    H            4.838458361809     1.753472188681    -1.394302472250

  Mulliken Charges: (a.u.)
   Center  Symbol    Alpha    Beta     Spin     Total
       1     O     4.28544  4.28544  0.00000 -0.57087
       2     C     2.60448  2.60448  0.00000  0.79105
       3     C     3.21020  3.21020  0.00000 -0.42041
       4     O     4.30952  4.30952  0.00000 -0.61904
       5     C     3.15374  3.15374  0.00000 -0.30749
       6     H     0.39897  0.39897  0.00000  0.20206
       7     H     0.40131  0.40131  0.00000  0.19739
       8     C     3.15659  3.15659  0.00000 -0.31317
       9     H     0.41317  0.41317  0.00000  0.17366
      10     H     0.40884  0.40884  0.00000  0.18232
      11     C     3.15503  3.15503  0.00000 -0.31005
      12     H     0.41832  0.41832  0.00000  0.16336
      13     H     0.42392  0.42392  0.00000  0.15216
      14     C     3.15028  3.15028  0.00000 -0.30056
      15     H     0.42265  0.42265  0.00000  0.15470
      16     H     0.42361  0.42361  0.00000  0.15277
      17     C     3.15144  3.15144  0.00000 -0.30289
      18     H     0.42334  0.42334  0.00000  0.15331
      19     H     0.42399  0.42399  0.00000  0.15202
      20     C     3.23934  3.23934  0.00000 -0.47868
      21     H     0.42282  0.42282  0.00000  0.15436
      22     H     0.42345  0.42345  0.00000  0.15310
      23     H     0.41926  0.41926  0.00000  0.16148
      24     H     0.42155  0.42155  0.00000  0.15689
      25     H     0.42184  0.42184  0.00000  0.15632
      26     C     3.09819  3.09819  0.00000 -0.19639
      27     H     0.41307  0.41307  0.00000  0.17386
      28     H     0.39411  0.39411  0.00000  0.21178
      29     H     0.41152  0.41152  0.00000  0.17696

   Total alpha = 44.00000, Total beta = 44.00000, Total charge =  0.00000
