  ==> Input File <==

--------------------------------------------------------------------------
set {
	reference rhf
	basis 6-31G*
}

set_num_threads( 4 )
memory 2 gb

molecule MOL {
0 1

H	 -3.135461	 -1.215070	 0.001379
O	 -2.310168	 -0.871793	 -0.309793
C	 -2.026376	 0.340750	 0.341611
C	 -0.673256	 0.843270	 -0.132153
H	 -2.792215	 1.080697	 0.115987
H	 -2.013526	 0.200402	 1.421792
C	 0.486613	 -0.083066	 0.235839
H	 -0.715586	 0.970948	 -1.210718
H	 -0.508072	 1.829858	 0.297090
C	 1.840406	 0.433480	 -0.254303
H	 0.300215	 -1.068318	 -0.178947
H	 0.519509	 -0.203625	 1.318070
C	 2.988490	 0.086446	 0.692873
H	 2.048131	 0.019056	 -1.238590
H	 1.792705	 1.513210	 -0.382172
H	 3.084043	 -0.988778	 0.813924
H	 3.935753	 0.463023	 0.318939
H	 2.827594	 0.515806	 1.677898

	symmetry c1
}
set optking {
	frozen_dihedral = ("
		14 10 7 11
	")
}

ee = optimize('scf')
oeprop('DIPOLE', 'QUADRUPOLE', 'MULLIKEN_CHARGES')
f=open( 'psi4out.xyz', 'w' )
f.write( "18  " )
f.write( str(ee) + "\n" )
f.write( MOL.save_string_xyz() )
f.close()
--------------------------------------------------------------------------

    Molecular point group: c1
  Charge       = 0
  Multiplicity = 1
  Basis Set: 6-31G*
  Basis Set:
  @DF-RHF Final Energy:  -271.17644736674094
    Total Energy =                       -271.1764473667409447
    Molecular point group: c1
  Basis Set: 6-31G*
  Basis Set:
  Basis Set: 6-31G*
  Basis Set:
  @DF-RHF Final Energy:  -271.17671810973525
    Total Energy =                       -271.1767181097351340
  Basis Set: 6-31G*
  Basis Set:
  Basis Set: 6-31G*
  Basis Set:
  @DF-RHF Final Energy:  -271.17679639907999
    Total Energy =                       -271.1767963990801036
  Basis Set: 6-31G*
  Basis Set:
  Charge       = 0
  Multiplicity = 1
  Basis Set: 6-31G*
  Basis Set:

    Orbital Energies (a.u.)
    -----------------------

    Doubly Occupied:

       1A    -20.553157     2A    -11.267785     3A    -11.211840
       4A    -11.210470     5A    -11.206064     6A    -11.204782
       7A     -1.359806     8A     -1.073357     9A     -1.008206
      10A     -0.912521    11A     -0.817761    12A     -0.783319
      13A     -0.705431    14A     -0.638839    15A     -0.624346
      16A     -0.585373    17A     -0.571996    18A     -0.554250
      19A     -0.521487    20A     -0.500258    21A     -0.490495
      22A     -0.466434    23A     -0.455918    24A     -0.447058
      25A     -0.427892

  @DF-RHF Final Energy:  -271.17679548749248

   => Energetics <=

    Nuclear Repulsion Energy =            248.9194782042164320
    One-Electron Energy =                -860.9948596060664840
    Two-Electron Energy =                 340.8985859143577954
    DFT Exchange-Correlation Energy =       0.0000000000000000
    Empirical Dispersion Energy =           0.0000000000000000
    PCM Polarization Energy =               0.0000000000000000
    EFP Energy =                            0.0000000000000000
    Total Energy =                       -271.1767954874923134
    Molecular point group: c1
  Basis Set: 6-31G*
  Basis Set:

  -Total Gradient:
     Atom            X                  Y                   Z
    ------   -----------------  -----------------  -----------------
       1        0.000002185425    -0.000007312366     0.000002657926
       2        0.000083598885    -0.000031842831     0.000059464575
       3       -0.000054517483     0.000031712741    -0.000179384192
       4        0.000043121303     0.000120649667     0.000141300464
       5       -0.000004287863     0.000018634140     0.000008514819
       6        0.000017827619    -0.000007409760    -0.000017731453
       7        0.003059569350    -0.003061879890     0.004679432666
       8       -0.000003886386     0.000028156324     0.000031892439
       9       -0.000088843905     0.000052290701     0.000030235471
      10       -0.003023397760     0.004583304540    -0.003311025080
      11       -0.001968468445     0.001702493328    -0.003486985837
      12        0.000090112443     0.000092894815    -0.000061535876
      13       -0.000050071230     0.000000517994     0.000126512761
      14        0.001941832788    -0.003454976215     0.001852138133
      15       -0.000089920266    -0.000055159049     0.000085929311
      16       -0.000001918838     0.000005003621     0.000022180362
      17       -0.000019407130    -0.000009552621    -0.000029843009
      18        0.000066471493    -0.000007525137     0.000046246521

  **** Optimization is complete! (in 4 steps) ****
    Final optimized geometry and variables:
    Molecular point group: c1

    Geometry (in Angstrom), charge = 0, multiplicity = 1:

    H           -3.113022779678    -1.345332886390    -0.153680220694
    O           -2.285679153610    -0.985942291453    -0.440257395997
    C           -2.041470733743     0.228323654873     0.224183398657
    C           -0.683898541100     0.755707173794    -0.207676414706
    H           -2.813124566641     0.956186844780    -0.020195715664
    H           -2.057460029877     0.082877879182     1.303743666977
    C            0.482832729992    -0.151059527220     0.195056389129
    H           -0.695362079271     0.882440863780    -1.287336399123
    H           -0.549109892197     1.745274533309     0.225203446854
    C            1.834472079732     0.351382891122    -0.339147063389
    H            0.280727745534    -1.141019819405    -0.197904198986
    H            0.514616911395    -0.228332303892     1.279845403939
    C            3.007859141471    -0.030709443208     0.566127234701
    H            2.014516392608    -0.080938082366    -1.319848056892
    H            1.814941411583     1.431216328483    -0.461582008010
    H            3.056745758303    -1.106905839994     0.707853916259
    H            3.954727126480     0.289964937254     0.142091856542
    H            2.911881021939     0.425936798827     1.547349816787

  Mulliken Charges: (a.u.)
   Center  Symbol    Alpha    Beta     Spin     Total
       1     H     0.28052  0.28052  0.00000  0.43896
       2     O     4.36984  4.36984  0.00000 -0.73968
       3     C     2.99743  2.99743  0.00000  0.00515
       4     C     3.16179  3.16179  0.00000 -0.32358
       5     H     0.42925  0.42925  0.00000  0.14150
       6     H     0.43277  0.43277  0.00000  0.13446
       7     C     3.15606  3.15606  0.00000 -0.31213
       8     H     0.41496  0.41496  0.00000  0.17008
       9     H     0.42425  0.42425  0.00000  0.15151
      10     C     3.15307  3.15307  0.00000 -0.30614
      11     H     0.40533  0.40533  0.00000  0.18934
      12     H     0.42599  0.42599  0.00000  0.14802
      13     C     3.23965  3.23965  0.00000 -0.47930
      14     H     0.42006  0.42006  0.00000  0.15988
      15     H     0.42328  0.42328  0.00000  0.15344
      16     H     0.42142  0.42142  0.00000  0.15716
      17     H     0.42114  0.42114  0.00000  0.15772
      18     H     0.42320  0.42320  0.00000  0.15360

   Total alpha = 25.00000, Total beta = 25.00000, Total charge =  0.00000
