                              Psi4 1.0.54 Driver

  ==> Input File <==

--------------------------------------------------------------------------
set {
	reference rhf
	basis cc-pvtz
}

set_num_threads( 4 )
memory 2 gb

molecule MOL {
0 1

H	 2.759212	 0.384604	 0.772563
N	 2.326826	 -0.066186	 0.000000
C	 0.934676	 -0.005420	 0.000000
H	 2.751246	 0.202102	 -0.857270
C	 0.226436	 -0.001077	 -1.195129
C	 0.226436	 -0.001077	 1.195129
H	 0.759091	 -0.011439	 -2.128123
C	 -1.153391	 0.009141	 -1.189028
H	 0.759091	 -0.011439	 2.128123
C	 -1.153391	 0.009141	 1.189028
H	 -1.680905	 0.012964	 -2.124348
C	 -1.857876	 0.014675	 0.000000
H	 -1.680905	 0.012964	 2.124348
H	 -2.930222	 0.022904	 0.000000

	symmetry c1
}
set optking {
	frozen_dihedral = ("
		1 2 3 5
	")
}

ee,wfn = optimize('scf', return_wfn=True)
oeprop( wfn, 'DIPOLE', 'QUADRUPOLE', 'MULLIKEN_CHARGES')
f=open( 'psi4out.xyz', 'w' )
f.write( "14  " )
f.write( str(ee) + "\n" )
f.write( MOL.save_string_xyz() )
f.close()
--------------------------------------------------------------------------

    Molecular point group: c1
  Charge       = 0
  Multiplicity = 1
  Basis Set: CC-PVTZ
  Basis Set:
  @DF-RHF Final Energy:  -285.83362701621706
    Total Energy =                       -285.8336270162171786
    Molecular point group: c1
  Basis Set: CC-PVTZ
  Basis Set:
  Basis Set: CC-PVTZ
  Basis Set:
  @DF-RHF Final Energy:  -285.83364571779930
    Total Energy =                       -285.8336457177995271
  Basis Set: CC-PVTZ
  Basis Set:
  Basis Set: CC-PVTZ
  Basis Set:
  @DF-RHF Final Energy:  -285.83365096485153
    Total Energy =                       -285.8336509648519268
  Basis Set: CC-PVTZ
  Basis Set:
  Charge       = 0
  Multiplicity = 1
  Basis Set: CC-PVTZ
  Basis Set:

    Orbital Energies (a.u.)
    -----------------------

    Doubly Occupied:

       1A    -15.556137     2A    -11.270837     3A    -11.227328
       4A    -11.227246     5A    -11.215997     6A    -11.215652
       7A    -11.211381     8A     -1.227057     9A     -1.130814
      10A     -1.013668    11A     -0.988114    12A     -0.833036
      13A     -0.813578    14A     -0.708147    15A     -0.687033
      16A     -0.654843    17A     -0.599187    18A     -0.594422
      19A     -0.581809    20A     -0.535231    21A     -0.506527
      22A     -0.487514    23A     -0.449219    24A     -0.336416
      25A     -0.295289

  @DF-RHF Final Energy:  -285.83365174888741

   => Energetics <=

    Nuclear Repulsion Energy =            273.7283988064020832
    One-Electron Energy =                -928.3911351670526528
    Two-Electron Energy =                 368.8290846117631645
    DFT Exchange-Correlation Energy =       0.0000000000000000
    Empirical Dispersion Energy =           0.0000000000000000
    PCM Polarization Energy =               0.0000000000000000
    EFP Energy =                            0.0000000000000000
    Total Energy =                       -285.8336517488874051
    Molecular point group: c1
  Basis Set: CC-PVTZ
  Basis Set:

  -Total Gradient:
     Atom            X                  Y                   Z
    ------   -----------------  -----------------  -----------------
       1        0.000023963159     0.000709089785    -0.000437150020
       2       -0.000100349454    -0.000595381401     0.000531140215
       3        0.000074666596    -0.000748542606    -0.000119636288
       4        0.000037835000     0.000008584542     0.000001246234
       5       -0.000025643664     0.000621517224    -0.000006236247
       6       -0.000037708433    -0.000005348445     0.000015384394
       7        0.000007059473     0.000002488698    -0.000009077712
       8        0.000058045032     0.000022820269    -0.000014760073
       9       -0.000000356424    -0.000010749730    -0.000007202334
      10       -0.000032155174     0.000022840774    -0.000018768958
      11        0.000004057883    -0.000007763064     0.000002299934
      12       -0.000009293960    -0.000023653549     0.000058862296
      13       -0.000002212892     0.000006875783     0.000005728041
      14        0.000002092857    -0.000002778279    -0.000001829481

  **** Optimization is complete! (in 4 steps) ****
    Final optimized geometry and variables:
    Molecular point group: c1

    Geometry (in Angstrom), charge = 0, multiplicity = 1:

    H            2.753272660752     0.381634820613     0.779666733554
    N            2.328079756582    -0.069265476508     0.002538496553
    C            0.934404242686    -0.009593454788    -0.001393310482
    H            2.749554016246     0.224332021695    -0.848292742226
    C            0.225244239998    -0.002781173475    -1.195192623207
    C            0.227381700439    -0.001264589877     1.194855319732
    H            0.756353142004    -0.011065868483    -2.129171091408
    C           -1.155179187452     0.007788244326    -1.187817639899
    H            0.761905932199    -0.014798870559     2.126613603314
    C           -1.151909044969     0.014656490133     1.190396038599
    H           -1.683642802082     0.011491694575    -2.122582387954
    C           -1.857833042445     0.018065673738     0.001623482926
    H           -1.678567585144     0.022179021072     2.126169223870
    H           -2.930157623194     0.028675316661     0.002900939820

  Mulliken Charges: (a.u.)
   Center  Symbol    Alpha    Beta     Spin     Total
       1     H     0.42184  0.42184  0.00000  0.15633
       2     N     3.66735  3.66735  0.00000 -0.33470
       3     C     2.88960  2.88960  0.00000  0.22081
       4     H     0.42398  0.42398  0.00000  0.15205
       5     C     3.11779  3.11779  0.00000 -0.23558
       6     C     3.11642  3.11642  0.00000 -0.23284
       7     H     0.43447  0.43447  0.00000  0.13106
       8     C     3.05830  3.05830  0.00000 -0.11659
       9     H     0.43290  0.43290  0.00000  0.13420
      10     C     3.05810  3.05810  0.00000 -0.11620
      11     H     0.42470  0.42470  0.00000  0.15060
      12     C     3.10460  3.10460  0.00000 -0.20920
      13     H     0.42466  0.42466  0.00000  0.15069
      14     H     0.42531  0.42531  0.00000  0.14938

   Total alpha = 25.00000, Total beta = 25.00000, Total charge = -0.00000

*** Psi4 exiting successfully. Buy a developer a beer!
