  ==> Input File <==

--------------------------------------------------------------------------
set {
	reference rhf
	basis 6-31G*
}

set_num_threads( 1 )
memory 2 gb

molecule MOL {
0 1

O	 2.862325	 1.357334	 0.000267
C	 2.843464	 0.164689	 -0.000222
C	 1.546494	 -0.624492	 -0.000609
C	 4.124123	 -0.644674	 -0.000428
C	 0.291004	 0.242674	 0.000989
H	 1.557904	 -1.283758	 -0.867573
H	 1.558622	 -1.285963	 0.864672
C	 -0.913588	 -0.468575	 -0.617756
H	 0.493489	 1.162763	 -0.538052
H	 0.062730	 0.536290	 1.020709
C	 -2.178097	 0.392076	 -0.622780
H	 -0.676579	 -0.763305	 -1.639034
H	 -1.110093	 -1.391167	 -0.073443
C	 -3.387417	 -0.312382	 -1.240272
H	 -1.983030	 1.314313	 -1.167250
H	 -2.416476	 0.686574	 0.397731
C	 -4.646593	 0.553734	 -1.241886
H	 -3.150749	 -0.606185	 -2.260807
H	 -3.584325	 -1.233661	 -0.695909
H	 -4.492566	 1.468217	 -1.807702
H	 -5.485943	 0.027542	 -1.686087
H	 -4.929900	 0.835342	 -0.231648
H	 4.165367	 -1.288615	 -0.874074
H	 4.976217	 0.020734	 -0.001915
H	 4.166763	 -1.286207	 0.874930

	symmetry c1
}
set optking {
	frozen_dihedral = ("
		9 5 8 12,
		15 11 8 12,
		15 11 14 18,
		1 2 3 6
	")
}

ee = energy('scf')
oeprop('DIPOLE', 'QUADRUPOLE', 'MULLIKEN_CHARGES')
f=open( 'psi4out.xyz', 'w' )
f.write( "25  " )
f.write( str(ee) + "\n" )
f.write( MOL.save_string_xyz() )
f.close()
--------------------------------------------------------------------------

    Molecular point group: c1

    Geometry (in Angstrom), charge = 0, multiplicity = 1:

       Center              X                  Y                   Z               Mass
    ------------   -----------------  -----------------  -----------------  -----------------
           O          2.807674217171     1.277441791952     0.417256270131    15.994914619560
           C          2.788813217171     0.084796791952     0.416767270131    12.000000000000
           C          1.491843217171    -0.704384208048     0.416380270131    12.000000000000
           C          4.069472217171    -0.724566208048     0.416561270131    12.000000000000
           C          0.236353217171     0.162781791952     0.417978270131    12.000000000000
           H          1.503253217171    -1.363650208048    -0.450583729869     1.007825032070
           H          1.503971217171    -1.365855208048     1.281661270131     1.007825032070
           C         -0.968238782829    -0.548467208048    -0.200766729869    12.000000000000
           H          0.438838217171     1.082870791952    -0.121062729869     1.007825032070
           H          0.008079217171     0.456397791952     1.437698270131     1.007825032070
           C         -2.232747782829     0.312183791952    -0.205790729869    12.000000000000
           H         -0.731229782829    -0.843197208048    -1.222044729869     1.007825032070
           H         -1.164743782829    -1.471059208048     0.343546270131     1.007825032070
           C         -3.442067782829    -0.392274208048    -0.823282729869    12.000000000000
           H         -2.037680782829     1.234420791952    -0.750260729869     1.007825032070
           H         -2.471126782829     0.606681791952     0.814720270131     1.007825032070
           C         -4.701243782829     0.473841791952    -0.824896729869    12.000000000000
           H         -3.205399782829    -0.686077208048    -1.843817729869     1.007825032070
           H         -3.638975782829    -1.313553208048    -0.278919729869     1.007825032070
           H         -4.547216782829     1.388324791952    -1.390712729869     1.007825032070
           H         -5.540593782829    -0.052350208048    -1.269097729869     1.007825032070
           H         -4.984550782829     0.755449791952     0.185341270131     1.007825032070
           H          4.110716217171    -1.368507208048    -0.457084729869     1.007825032070
           H          4.921566217171    -0.059158208048     0.415074270131     1.007825032070
           H          4.112112217171    -1.366099208048     1.291919270131     1.007825032070

  Charge       = 0
  Multiplicity = 1
  Basis Set: 6-31G*
  Basis Set:

    Orbital Energies (a.u.)
    -----------------------

    Doubly Occupied:

       1A    -20.550777     2A    -11.326687     3A    -11.231267
       4A    -11.228619     5A    -11.216394     6A    -11.214949
       7A    -11.214808     8A    -11.212892     9A    -11.207989
      10A     -1.396313    11A     -1.093082    12A     -1.056000
      13A     -1.014469    14A     -0.968986    15A     -0.890264
      16A     -0.814023    17A     -0.790539    18A     -0.729909
      19A     -0.663790    20A     -0.649392    21A     -0.631882
      22A     -0.623958    23A     -0.595431    24A     -0.583845
      25A     -0.568612    26A     -0.559339    27A     -0.538311
      28A     -0.525824    29A     -0.512909    30A     -0.492447
      31A     -0.485006    32A     -0.471988    33A     -0.463727
      34A     -0.461099    35A     -0.449021    36A     -0.400272

  @DF-RHF Final Energy:  -387.13454213098970

   => Energetics <=

    Nuclear Repulsion Energy =            439.0114021138104476
    One-Electron Energy =               -1394.6222430252641971
    Two-Electron Energy =                 568.4762987804637078
    DFT Exchange-Correlation Energy =       0.0000000000000000
    Empirical Dispersion Energy =           0.0000000000000000
    PCM Polarization Energy =               0.0000000000000000
    EFP Energy =                            0.0000000000000000
    Total Energy =                       -387.1345421309900985

  Mulliken Charges: (a.u.)
   Center  Symbol    Alpha    Beta     Spin     Total
       1     O     4.26052  4.26052  0.00000 -0.52104
       2     C     2.73729  2.73729  0.00000  0.52542
       3     C     3.21235  3.21235  0.00000 -0.42470
       4     C     3.28672  3.28672  0.00000 -0.57344
       5     C     3.15161  3.15161  0.00000 -0.30322
       6     H     0.40935  0.40935  0.00000  0.18131
       7     H     0.40839  0.40839  0.00000  0.18323
       8     C     3.15500  3.15500  0.00000 -0.31001
       9     H     0.40184  0.40184  0.00000  0.19632
      10     H     0.41749  0.41749  0.00000  0.16503
      11     C     3.15103  3.15103  0.00000 -0.30205
      12     H     0.42410  0.42410  0.00000  0.15181
      13     H     0.42536  0.42536  0.00000  0.14928
      14     C     3.15147  3.15147  0.00000 -0.30294
      15     H     0.42169  0.42169  0.00000  0.15662
      16     H     0.42326  0.42326  0.00000  0.15349
      17     C     3.23931  3.23931  0.00000 -0.47862
      18     H     0.42343  0.42343  0.00000  0.15314
      19     H     0.42372  0.42372  0.00000  0.15256
      20     H     0.42119  0.42119  0.00000  0.15761
      21     H     0.41960  0.41960  0.00000  0.16080
      22     H     0.42164  0.42164  0.00000  0.15672
      23     H     0.40867  0.40867  0.00000  0.18267
      24     H     0.39642  0.39642  0.00000  0.20716
      25     H     0.40857  0.40857  0.00000  0.18286

   Total alpha = 36.00000, Total beta = 36.00000, Total charge = -0.00000
