  ==> Input File <==

--------------------------------------------------------------------------
set {
	reference rhf
	basis cc-pvtz
}

set_num_threads( 4 )
memory 2 gb

molecule MOL {
0 1

H	 -0.380860	 -1.354051	 0.664688
N	 -0.625934	 -0.663929	 -0.000707
C	 -1.978635	 -0.158664	 0.001017
C	 0.327854	 -0.244544	 -0.861513
H	 -2.519057	 -0.493535	 -0.876362
H	 -1.938890	 0.917202	 -0.004137
H	 -2.514266	 -0.485137	 0.884506
C	 1.675762	 -0.907136	 -0.680030
O	 0.136024	 0.586720	 -1.698936
H	 1.592438	 -1.978553	 -0.820460
H	 2.364454	 -0.502792	 -1.403410
H	 2.054899	 -0.727635	 0.319296

	symmetry c1
}
set optking {
	frozen_dihedral = ("
		4 2 3 5
	")
}

ee = optimize('scf')
oeprop('DIPOLE', 'QUADRUPOLE', 'MULLIKEN_CHARGES')
f=open( 'psi4out.xyz', 'w' )
f.write( "12  " )
f.write( str(ee) + "\n" )
f.write( MOL.save_string_xyz() )
f.close()
--------------------------------------------------------------------------

    Molecular point group: c1
  Charge       = 0
  Multiplicity = 1
  Basis Set: CC-PVTZ
  Basis Set:
  @DF-RHF Final Energy:  -247.10067180422863
    Total Energy =                       -247.1006718042286252
    Molecular point group: c1
  Basis Set: CC-PVTZ
  Basis Set:
  Basis Set: CC-PVTZ
  Basis Set:
  @DF-RHF Final Energy:  -247.10117842264802
    Total Energy =                       -247.1011784226478767
  Basis Set: CC-PVTZ
  Basis Set:
  Basis Set: CC-PVTZ
  Basis Set:
  @DF-RHF Final Energy:  -247.10105459030979
    Total Energy =                       -247.1010545903097864
  Basis Set: CC-PVTZ
  Basis Set:
  Basis Set: CC-PVTZ
  Basis Set:
  @DF-RHF Final Energy:  -247.10126176180319
    Total Energy =                       -247.1012617618031300
  Basis Set: CC-PVTZ
  Basis Set:
  @DF-RHF Final Energy:  -247.10126537888718
    Total Energy =                       -247.1012653788872058
  @DF-RHF Final Energy:  -247.10127377925636
    Total Energy =                       -247.1012737792563030
  @DF-RHF Final Energy:  -247.10128219062770
    Total Energy =                       -247.1012821906277281
  @DF-RHF Final Energy:  -247.10128878814962
    Total Energy =                       -247.1012887881498159
  @DF-RHF Final Energy:  -247.10129152482367
    Total Energy =                       -247.1012915248235231
  @DF-RHF Final Energy:  -247.10129692468487
    Total Energy =                       -247.1012969246848456
  @DF-RHF Final Energy:  -247.10130132899462
    Total Energy =                       -247.1013013289945093
  @DF-RHF Final Energy:  -247.10122315298054
    Total Energy =                       -247.1012231529805945
  @DF-RHF Final Energy:  -247.10130410249155
    Total Energy =                       -247.1013041024915537
  @DF-RHF Final Energy:  -247.10131483498520
    Total Energy =                       -247.1013148349851463
  @DF-RHF Final Energy:  -247.10135260146657
    Total Energy =                       -247.1013526014665445
  @DF-RHF Final Energy:  -247.10137990057345
    Total Energy =                       -247.1013799005737042
  @DF-RHF Final Energy:  -247.10139759361687
    Total Energy =                       -247.1013975936168663
  @DF-RHF Final Energy:  -247.10141177394232
    Total Energy =                       -247.1014117739424023
  @DF-RHF Final Energy:  -247.10142078737323
    Total Energy =                       -247.1014207873733426
  @DF-RHF Final Energy:  -247.10142899895757
    Total Energy =                       -247.1014289989578288
  @DF-RHF Final Energy:  -247.10143093111031
    Total Energy =                       -247.1014309311103716
  @DF-RHF Final Energy:  -247.10143280654512
    Total Energy =                       -247.1014328065451764
  @DF-RHF Final Energy:  -247.10143815911394
    Total Energy =                       -247.1014381591139681
  @DF-RHF Final Energy:  -247.10143943053180
    Total Energy =                       -247.1014394305317410
  @DF-RHF Final Energy:  -247.10144067281411
    Total Energy =                       -247.1014406728142490
  @DF-RHF Final Energy:  -247.10144188743320
    Total Energy =                       -247.1014418874331682
  @DF-RHF Final Energy:  -247.10144307424068
    Total Energy =                       -247.1014430742407626
  Basis Set: CC-PVTZ
  Basis Set:
  @DF-RHF Final Energy:  -247.10144646682215
    Total Energy =                       -247.1014464668221535
  Basis Set: CC-PVTZ
  Basis Set:
  Basis Set: CC-PVTZ
  Basis Set:
  @DF-RHF Final Energy:  -247.10144960829945
    Total Energy =                       -247.1014496082996175
  Basis Set: CC-PVTZ
  Basis Set:
  Basis Set: CC-PVTZ
  Basis Set:
  @DF-RHF Final Energy:  -247.10145249811220
    Total Energy =                       -247.1014524981122804
  Basis Set: CC-PVTZ
  Basis Set:
  Charge       = 0
  Multiplicity = 1
  Basis Set: CC-PVTZ
  Basis Set:

    Orbital Energies (a.u.)
    -----------------------

    Doubly Occupied:

       1A    -20.505301     2A    -15.576110     3A    -11.335295
       4A    -11.254098     5A    -11.228417     6A     -1.388079
       7A     -1.231265     8A     -1.016171     9A     -0.933862
      10A     -0.789928    11A     -0.690679    12A     -0.651634
      13A     -0.636113    14A     -0.585403    15A     -0.582735
      16A     -0.556755    17A     -0.547879    18A     -0.505842
      19A     -0.417055    20A     -0.391066

  @DF-RHF Final Energy:  -247.10145318262244

   => Energetics <=

    Nuclear Repulsion Energy =            181.8896956026048883
    One-Electron Energy =                -696.3349227210512709
    Two-Electron Energy =                 267.3437739358238332
    DFT Exchange-Correlation Energy =       0.0000000000000000
    Empirical Dispersion Energy =           0.0000000000000000
    PCM Polarization Energy =               0.0000000000000000
    EFP Energy =                            0.0000000000000000
    Total Energy =                       -247.1014531826225493
    Molecular point group: c1
  Basis Set: CC-PVTZ
  Basis Set:

  -Total Gradient:
     Atom            X                  Y                   Z
    ------   -----------------  -----------------  -----------------
       1       -0.000000481526    -0.000003796136    -0.000002847215
       2       -0.000026405188    -0.000079086117    -0.000036048705
       3        0.000019389264     0.000052713565    -0.000029530388
       4        0.000006811164     0.000025105167     0.000018154674
       5       -0.000012461066    -0.000031783909     0.000029818752
       6       -0.000000056508    -0.000000142528    -0.000001072977
       7        0.000000284542     0.000001241157     0.000000350412
       8        0.000002427303     0.000003634461    -0.000000768545
       9        0.000012315384     0.000035046421     0.000020743997
      10       -0.000010141607    -0.000016079547     0.000023439842
      11       -0.000002764926    -0.000012574400    -0.000025584389
      12        0.000011083164     0.000025721868     0.000003344538

  **** Optimization is complete! (in 31 steps) ****
    Final optimized geometry and variables:
    Molecular point group: c1

    Geometry (in Angstrom), charge = 0, multiplicity = 1:

    H           -0.232109283097    -0.910794415638     1.455120343234
    N           -0.478299261255    -0.272214163280     0.741959673113
    C           -1.848997259178     0.175729217934     0.651147755357
    C            0.427867948594     0.013014469056    -0.215697057684
    H           -2.391918725649    -0.343367207473    -0.129514874755
    H           -1.880410739822     1.233295983964     0.437182761135
    H           -2.337712646915    -0.005773336697     1.598052274123
    C            1.791459174094    -0.615264830438    -0.038749744832
    O            0.170042117584     0.706234932345    -1.155623399666
    H            1.826516619841    -1.532157715113    -0.615565490285
    H            2.537203277997     0.058664386512    -0.431352632612
    H            2.015942922758    -0.847575456308     0.994161719752

  Mulliken Charges: (a.u.)
   Center  Symbol    Alpha    Beta     Spin     Total
       1     H     0.41135  0.41135  0.00000  0.17729
       2     N     3.61459  3.61459  0.00000 -0.22918
       3     C     3.07670  3.07670  0.00000 -0.15340
       4     C     2.84113  2.84113  0.00000  0.31775
       5     H     0.45497  0.45497  0.00000  0.09007
       6     H     0.44234  0.44234  0.00000  0.11532
       7     H     0.45577  0.45577  0.00000  0.08846
       8     C     3.14648  3.14648  0.00000 -0.29296
       9     O     4.21871  4.21871  0.00000 -0.43741
      10     H     0.44437  0.44437  0.00000  0.11126
      11     H     0.43620  0.43620  0.00000  0.12760
      12     H     0.45740  0.45740  0.00000  0.08520

   Total alpha = 20.00000, Total beta = 20.00000, Total charge = -0.00000
