  ==> Input File <==

--------------------------------------------------------------------------
set {
	reference rhf
	basis 6-31G*
}

set_num_threads( 1 )
memory 2 gb

molecule MOL {
0 1

H	 -1.895537	 -0.589908	 0.876256
O	 -2.035884	 -0.060112	 0.102722
C	 -0.955155	 0.788182	 -0.092531
C	 0.353668	 0.040312	 -0.004810
H	 -0.985057	 1.290372	 -1.054184
H	 -0.974469	 1.533190	 0.688632
F	 0.394464	 -0.937475	 -0.903053
F	 1.368604	 0.853376	 -0.249821
F	 0.546173	 -0.502608	 1.179981

	symmetry c1
}
set optking {
	frozen_dihedral = ("
		7 4 3 5
	")
}

ee = energy('scf')
oeprop('DIPOLE', 'QUADRUPOLE', 'MULLIKEN_CHARGES')
f=open( 'psi4out.xyz', 'w' )
f.write( "9  " )
f.write( str(ee) + "\n" )
f.write( MOL.save_string_xyz() )
f.close()
--------------------------------------------------------------------------

    Molecular point group: c1

    Geometry (in Angstrom), charge = 0, multiplicity = 1:

       Center              X                  Y                   Z               Mass
    ------------   -----------------  -----------------  -----------------  -----------------
           H         -1.897587000337    -0.590758663777     0.861211769814     1.007825032070
           O         -2.037934000337    -0.060962663777     0.087677769814    15.994914619560
           C         -0.957205000337     0.787331336223    -0.107575230186    12.000000000000
           C          0.351617999663     0.039461336223    -0.019854230186    12.000000000000
           H         -0.987107000337     1.289521336223    -1.069228230186     1.007825032070
           H         -0.976519000337     1.532339336223     0.673587769814     1.007825032070
           F          0.392413999663    -0.938325663777    -0.918097230186    18.998403224000
           F          1.366553999663     0.852525336223    -0.264865230186    18.998403224000
           F          0.544122999663    -0.503458663777     1.164936769814    18.998403224000

  Charge       = 0
  Multiplicity = 1
  Basis Set: 6-31G*
  Basis Set:

    Orbital Energies (a.u.)
    -----------------------

    Doubly Occupied:

       1A    -26.352931     2A    -26.345439     3A    -26.337460
       4A    -20.588208     5A    -11.503420     6A    -11.310004
       7A     -1.744033     8A     -1.646147     9A     -1.635405
      10A     -1.402120    11A     -1.049038    12A     -0.926299
      13A     -0.834135    14A     -0.831068    15A     -0.810113
      16A     -0.723358    17A     -0.715666    18A     -0.693968
      19A     -0.669674    20A     -0.661416    21A     -0.645012
      22A     -0.635438    23A     -0.619516    24A     -0.527122
      25A     -0.477497

  @DF-RHF Final Energy:  -450.65984964370790

   => Energetics <=

    Nuclear Repulsion Energy =            277.3703348407020144
    One-Electron Energy =               -1176.6913983706226645
    Two-Electron Energy =                 448.6612138862128631
    DFT Exchange-Correlation Energy =       0.0000000000000000
    Empirical Dispersion Energy =           0.0000000000000000
    PCM Polarization Energy =               0.0000000000000000
    EFP Energy =                            0.0000000000000000
    Total Energy =                       -450.6598496437077301

  Mulliken Charges: (a.u.)
   Center  Symbol    Alpha    Beta     Spin     Total
       1     H     0.27245  0.27245  0.00000  0.45510
       2     O     4.36403  4.36403  0.00000 -0.72805
       3     C     3.04348  3.04348  0.00000 -0.08696
       4     C     2.47409  2.47409  0.00000  1.05182
       5     H     0.39506  0.39506  0.00000  0.20987
       6     H     0.41029  0.41029  0.00000  0.17943
       7     F     4.67988  4.67988  0.00000 -0.35977
       8     F     4.68104  4.68104  0.00000 -0.36209
       9     F     4.67968  4.67968  0.00000 -0.35935

   Total alpha = 25.00000, Total beta = 25.00000, Total charge =  0.00000
