  ==> Input File <==

--------------------------------------------------------------------------
set {
	reference rhf
	basis 6-31G*
}

set_num_threads( 1 )
memory 2 gb

molecule MOL {
0 1

H	 2.756765	 -0.201008	 -0.702837
O	 1.913719	 -0.642339	 -0.738721
C	 1.050492	 0.053836	 0.000068
C	 -0.318135	 -0.576402	 0.000164
O	 1.364608	 1.046071	 0.572603
C	 -1.454360	 0.441875	 -0.000474
H	 -0.374042	 -1.230163	 -0.866135
H	 -0.374274	 -1.229227	 0.867154
C	 -2.826123	 -0.230780	 0.000056
H	 -1.357605	 1.085198	 -0.868380
H	 -1.357504	 1.086451	 0.866496
H	 -2.959731	 -0.858053	 -0.876869
H	 -3.619374	 0.509403	 -0.000080
H	 -2.959371	 -0.857318	 0.877556

	symmetry c1
}
set optking {
	frozen_dihedral = ("
		7 4 6 10,
		1 2 3 5
	")
}

ee = energy('scf')
oeprop('DIPOLE', 'QUADRUPOLE', 'MULLIKEN_CHARGES')
f=open( 'psi4out.xyz', 'w' )
f.write( "14  " )
f.write( str(ee) + "\n" )
f.write( MOL.save_string_xyz() )
f.close()
--------------------------------------------------------------------------

    Molecular point group: c1

    Geometry (in Angstrom), charge = 0, multiplicity = 1:

       Center              X                  Y                   Z               Mass
    ------------   -----------------  -----------------  -----------------  -----------------
           H          2.762060209461    -0.212501477921    -0.664588515694     1.007825032070
           O          1.919014209461    -0.653832477921    -0.700472515694    15.994914619560
           C          1.055787209461     0.042342522079     0.038316484306    12.000000000000
           C         -0.312839790539    -0.587895477921     0.038412484306    12.000000000000
           O          1.369903209461     1.034577522079     0.610851484306    15.994914619560
           C         -1.449064790539     0.430381522079     0.037774484306    12.000000000000
           H         -0.368746790539    -1.241656477921    -0.827886515694     1.007825032070
           H         -0.368978790539    -1.240720477921     0.905402484306     1.007825032070
           C         -2.820827790539    -0.242273477921     0.038304484306    12.000000000000
           H         -1.352309790539     1.073704522079    -0.830131515694     1.007825032070
           H         -1.352208790539     1.074957522079     0.904744484306     1.007825032070
           H         -2.954435790539    -0.869546477921    -0.838620515694     1.007825032070
           H         -3.614078790539     0.497909522079     0.038168484306     1.007825032070
           H         -2.954075790539    -0.868811477921     0.915804484306     1.007825032070

  Charge       = 0
  Multiplicity = 1
  Basis Set: 6-31G*
  Basis Set:

    Orbital Energies (a.u.)
    -----------------------

    Doubly Occupied:

       1A    -20.614117     2A    -20.550946     3A    -11.381595
       4A    -11.240327     5A    -11.229052     6A    -11.218570
       7A     -1.475203     8A     -1.365892     9A     -1.084352
      10A     -0.980032    11A     -0.857293    12A     -0.795627
      13A     -0.701703    14A     -0.687610    15A     -0.659630
      16A     -0.620468    17A     -0.594381    18A     -0.572749
      19A     -0.546464    20A     -0.509636    21A     -0.494436
      22A     -0.483937    23A     -0.475691    24A     -0.442607

  @DF-RHF Final Energy:  -305.87959793294414

   => Energetics <=

    Nuclear Repulsion Energy =            239.8590435751374912
    One-Electron Energy =                -892.3125902796134596
    Two-Electron Energy =                 346.5739487715313771
    DFT Exchange-Correlation Energy =       0.0000000000000000
    Empirical Dispersion Energy =           0.0000000000000000
    PCM Polarization Energy =               0.0000000000000000
    EFP Energy =                            0.0000000000000000
    Total Energy =                       -305.8795979329445345

  Mulliken Charges: (a.u.)
   Center  Symbol    Alpha    Beta     Spin     Total
       1     H     0.26834  0.26834  0.00000  0.46332
       2     O     4.34992  4.34992  0.00000 -0.69983
       3     C     2.62257  2.62257  0.00000  0.75486
       4     C     3.21079  3.21079  0.00000 -0.42159
       5     O     4.27912  4.27912  0.00000 -0.55825
       6     C     3.15676  3.15676  0.00000 -0.31352
       7     H     0.39920  0.39920  0.00000  0.20160
       8     H     0.39789  0.39789  0.00000  0.20421
       9     C     3.24250  3.24250  0.00000 -0.48501
      10     H     0.41457  0.41457  0.00000  0.17086
      11     H     0.40420  0.40420  0.00000  0.19160
      12     H     0.42007  0.42007  0.00000  0.15985
      13     H     0.41436  0.41436  0.00000  0.17128
      14     H     0.41969  0.41969  0.00000  0.16061

   Total alpha = 24.00000, Total beta = 24.00000, Total charge = -0.00000
