                              Psi4 1.0.54 Driver

  ==> Input File <==

--------------------------------------------------------------------------
set {
	reference rhf
	basis cc-pvtz
}

set_num_threads( 4 )
memory 2 gb

molecule MOL {
0 1

H	 3.085854	 0.516200	 -0.891978
N	 2.264718	 -0.050549	 -0.881013
C	 1.263552	 0.494993	 0.021953
H	 2.542393	 -0.965925	 -0.594097
C	 -0.016533	 -0.325589	 -0.026925
H	 1.049682	 1.510301	 -0.294913
H	 1.611230	 0.556075	 1.054122
C	 -1.280353	 0.525521	 0.047747
H	 -0.016686	 -0.912532	 -0.939714
H	 -0.014099	 -1.037598	 0.796369
C	 -2.560681	 -0.301323	 -0.007747
H	 -1.279957	 1.241025	 -0.770189
H	 -1.270445	 1.110526	 0.963468
H	 -2.617064	 -0.872870	 -0.928010
H	 -3.439525	 0.331102	 0.043462
H	 -2.609427	 -1.002736	 0.818585

	symmetry c1
}
set optking {
	frozen_dihedral = ("
		6 3 5 9
	")
}

ee,wfn = optimize('scf', return_wfn=True)
oeprop( wfn, 'DIPOLE', 'QUADRUPOLE', 'MULLIKEN_CHARGES')
f=open( 'psi4out.xyz', 'w' )
f.write( "16  " )
f.write( str(ee) + "\n" )
f.write( MOL.save_string_xyz() )
f.close()
--------------------------------------------------------------------------

    Molecular point group: c1
  Charge       = 0
  Multiplicity = 1
  Basis Set: CC-PVTZ
  Basis Set:
  @DF-RHF Final Energy:  -212.39609680095492
    Total Energy =                       -212.3960968009549219
    Molecular point group: c1
  Basis Set: CC-PVTZ
  Basis Set:
  Basis Set: CC-PVTZ
  Basis Set:
  @DF-RHF Final Energy:  -212.39634201407299
    Total Energy =                       -212.3963420140730705
  Basis Set: CC-PVTZ
  Basis Set:
  Basis Set: CC-PVTZ
  Basis Set:
  @DF-RHF Final Energy:  -212.39645966618426
    Total Energy =                       -212.3964596661844553
  Basis Set: CC-PVTZ
  Basis Set:
  Basis Set: CC-PVTZ
  Basis Set:
  @DF-RHF Final Energy:  -212.39646327009490
    Total Energy =                       -212.3964632700946709
  Basis Set: CC-PVTZ
  Basis Set:
  Charge       = 0
  Multiplicity = 1
  Basis Set: CC-PVTZ
  Basis Set:

    Orbital Energies (a.u.)
    -----------------------

    Doubly Occupied:

       1A    -15.527472     2A    -11.237989     3A    -11.213000
       4A    -11.207779     5A    -11.205403     6A     -1.178167
       7A     -1.060094     8A     -0.958599     9A     -0.844878
      10A     -0.793521    11A     -0.655452    12A     -0.648601
      13A     -0.597931    14A     -0.578715    15A     -0.572075
      16A     -0.518164    17A     -0.503747    18A     -0.468571
      19A     -0.465313    20A     -0.462207    21A     -0.382834

  @DF-RHF Final Energy:  -212.39646393449294

   => Energetics <=

    Nuclear Repulsion Energy =            186.4533791030275438
    One-Electron Energy =                -655.5386642392095382
    Two-Electron Energy =                 256.6888212016893362
    DFT Exchange-Correlation Energy =       0.0000000000000000
    Empirical Dispersion Energy =           0.0000000000000000
    PCM Polarization Energy =               0.0000000000000000
    EFP Energy =                            0.0000000000000000
    Total Energy =                       -212.3964639344926582
    Molecular point group: c1
  Basis Set: CC-PVTZ
  Basis Set:

  -Total Gradient:
     Atom            X                  Y                   Z
    ------   -----------------  -----------------  -----------------
       1        0.000043062379     0.000018426481    -0.000033405452
       2       -0.000044794312     0.000068133166     0.000011410161
       3        0.001409568200    -0.002034395893    -0.004730812899
       4       -0.000015853861    -0.000040861023     0.000023816599
       5       -0.002720006167     0.004386202690    -0.001341490963
       6       -0.000815706828     0.000937753505     0.004168334107
       7        0.000012787020     0.000000738161     0.000040542124
       8        0.000035134513    -0.000005661868    -0.000078438959
       9        0.002067355535    -0.003311832354     0.001904615122
      10        0.000040224229    -0.000005572220     0.000003702016
      11       -0.000011502948    -0.000003371140     0.000037721560
      12        0.000002890709     0.000004049602     0.000008675690
      13        0.000017295924    -0.000009828166    -0.000015166962
      14        0.000001033286     0.000015724895     0.000010045524
      15       -0.000014104250    -0.000016380426     0.000007188929
      16       -0.000007383430    -0.000003125408    -0.000016736597

  **** Optimization is complete! (in 5 steps) ****
    Final optimized geometry and variables:
    Molecular point group: c1

    Geometry (in Angstrom), charge = 0, multiplicity = 1:

    H            3.147794963558     0.480900360842    -0.696985042127
    N            2.312936751979    -0.063712895056    -0.751371571693
    C            1.295883826676     0.452005355432     0.151134046695
    H            2.559793775733    -1.000541178993    -0.507042195234
    C            0.012099771526    -0.381542755795     0.092622126774
    H            1.077195670493     1.478521968933    -0.121727495077
    H            1.638253390778     0.496594858365     1.185952837437
    C           -1.261588747952     0.441294016270     0.250121094406
    H           -0.000454795505    -0.933332768961    -0.841577103177
    H            0.042239368315    -1.137552512584     0.874385309604
    C           -2.526080651134    -0.410229939413     0.271436461772
    H           -1.322704573610     1.159742902473    -0.562123612611
    H           -1.203502061597     1.022085725350     1.167381485139
    H           -2.625765578857    -0.982600320563    -0.644741369308
    H           -3.412514442614     0.204940500298     0.375404872748
    H           -2.511895076660    -1.112370998462     1.098432643193

  Mulliken Charges: (a.u.)
   Center  Symbol    Alpha    Beta     Spin     Total
       1     H     0.43077  0.43077  0.00000  0.13846
       2     N     3.68510  3.68510  0.00000 -0.37020
       3     C     3.02738  3.02738  0.00000 -0.05477
       4     H     0.43103  0.43103  0.00000  0.13794
       5     C     3.08614  3.08614  0.00000 -0.17229
       6     H     0.45965  0.45965  0.00000  0.08071
       7     H     0.46800  0.46800  0.00000  0.06401
       8     C     3.08622  3.08622  0.00000 -0.17245
       9     H     0.45080  0.45080  0.00000  0.09840
      10     H     0.45804  0.45804  0.00000  0.08392
      11     C     3.15004  3.15004  0.00000 -0.30008
      12     H     0.45245  0.45245  0.00000  0.09509
      13     H     0.45564  0.45564  0.00000  0.08872
      14     H     0.45407  0.45407  0.00000  0.09186
      15     H     0.44890  0.44890  0.00000  0.10221
      16     H     0.45577  0.45577  0.00000  0.08846

   Total alpha = 21.00000, Total beta = 21.00000, Total charge = -0.00000

*** Psi4 exiting successfully. Buy a developer a beer!
