  ==> Input File <==

--------------------------------------------------------------------------
set {
	reference rhf
	basis cc-pvtz
}

set_num_threads( 4 )
memory 2 gb

molecule MOL {
0 1

H	 2.190573	 -0.629143	 -0.208718
O	 1.355408	 -0.529451	 0.208662
C	 0.700177	 0.619554	 -0.266242
C	 -0.713111	 0.588314	 0.266177
H	 0.678680	 0.627133	 -1.351786
H	 1.199747	 1.521489	 0.077736
O	 -1.421673	 -0.521378	 -0.196983
H	 -1.244794	 1.469161	 -0.069059
H	 -0.685100	 0.604721	 1.352683
H	 -1.559350	 -1.110755	 0.523922

	symmetry c1
}
set optking {
	frozen_dihedral = ("
		10 7 4 3
	")
}

ee = optimize('scf')
oeprop('DIPOLE', 'QUADRUPOLE', 'MULLIKEN_CHARGES')
f=open( 'psi4out.xyz', 'w' )
f.write( "10  " )
f.write( str(ee) + "\n" )
f.write( MOL.save_string_xyz() )
f.close()
--------------------------------------------------------------------------

    Molecular point group: c1
  Charge       = 0
  Multiplicity = 1
  Basis Set: CC-PVTZ
  Basis Set:
  @DF-RHF Final Energy:  -229.02421744184980
    Total Energy =                       -229.0242174418497711
    Molecular point group: c1
  Basis Set: CC-PVTZ
  Basis Set:
  Basis Set: CC-PVTZ
  Basis Set:
  @DF-RHF Final Energy:  -229.02503492266166
    Total Energy =                       -229.0250349226616038
  Basis Set: CC-PVTZ
  Basis Set:
  Basis Set: CC-PVTZ
  Basis Set:
  @DF-RHF Final Energy:  -229.02510282414721
    Total Energy =                       -229.0251028241470976
  Basis Set: CC-PVTZ
  Basis Set:
  Basis Set: CC-PVTZ
  Basis Set:
  @DF-RHF Final Energy:  -229.02510737288529
    Total Energy =                       -229.0251073728853157
  Basis Set: CC-PVTZ
  Basis Set:
  Basis Set: CC-PVTZ
  Basis Set:
  @DF-RHF Final Energy:  -229.02510846968042
    Total Energy =                       -229.0251084696803048
  Basis Set: CC-PVTZ
  Basis Set:
  Charge       = 0
  Multiplicity = 1
  Basis Set: CC-PVTZ
  Basis Set:

    Orbital Energies (a.u.)
    -----------------------

    Doubly Occupied:

       1A    -20.549751     2A    -20.544491     3A    -11.268113
       4A    -11.267303     5A     -1.376327     6A     -1.355335
       7A     -1.003428     8A     -0.836601     9A     -0.724899
      10A     -0.699232    11A     -0.628407    12A     -0.602560
      13A     -0.584234    14A     -0.524992    15A     -0.487973
      16A     -0.449947    17A     -0.436422

  @DF-RHF Final Energy:  -229.02510859070478

   => Energetics <=

    Nuclear Repulsion Energy =            133.5605894437709082
    One-Electron Energy =                -578.4913703306963271
    Two-Electron Energy =                 215.9056722962207004
    DFT Exchange-Correlation Energy =       0.0000000000000000
    Empirical Dispersion Energy =           0.0000000000000000
    PCM Polarization Energy =               0.0000000000000000
    EFP Energy =                            0.0000000000000000
    Total Energy =                       -229.0251085907046900
    Molecular point group: c1
  Basis Set: CC-PVTZ
  Basis Set:

  -Total Gradient:
     Atom            X                  Y                   Z
    ------   -----------------  -----------------  -----------------
       1       -0.000005050032     0.000006791468     0.000001150720
       2       -0.000035404225     0.000018206802    -0.000011264600
       3       -0.000423719390     0.000877102594    -0.001135760946
       4        0.000192271191    -0.000946798363     0.001766905837
       5       -0.000007542535    -0.000000359657    -0.000006881721
       6        0.000002452466     0.000001391442    -0.000008975213
       7        0.002354736418    -0.001087270852    -0.001226310124
       8        0.000003909000    -0.000010132262     0.000000412678
       9       -0.000009589297    -0.000002428392     0.000001732844
      10       -0.002072063595     0.001143497218     0.000618990525

  **** Optimization is complete! (in 6 steps) ****
    Final optimized geometry and variables:
    Molecular point group: c1

    Geometry (in Angstrom), charge = 0, multiplicity = 1:

    H            2.218800622211    -0.623897594448    -0.207899708823
    O            1.413275481163    -0.495677876640     0.257062124043
    C            0.699062608893     0.578334225257    -0.291406550263
    C           -0.702418895794     0.563725655917     0.268410226385
    H            0.644687621290     0.499641518396    -1.372853896403
    H            1.172787386883     1.525068678020    -0.039299497531
    O           -1.447293010400    -0.503996359741    -0.248545872688
    H           -1.197699653823     1.488167137789    -0.008808457942
    H           -0.653811709033     0.524253890980     1.351202574082
    H           -1.604918659488    -1.145989405312     0.416313186292

  Mulliken Charges: (a.u.)
   Center  Symbol    Alpha    Beta     Spin     Total
       1     H     0.39306  0.39306  0.00000  0.21387
       2     O     4.20171  4.20171  0.00000 -0.40342
       3     C     2.96010  2.96010  0.00000  0.07979
       4     C     2.96925  2.96925  0.00000  0.06149
       5     H     0.47182  0.47182  0.00000  0.05637
       6     H     0.47809  0.47809  0.00000  0.04381
       7     O     4.20523  4.20523  0.00000 -0.41046
       8     H     0.46456  0.46456  0.00000  0.07089
       9     H     0.46767  0.46767  0.00000  0.06467
      10     H     0.38851  0.38851  0.00000  0.22299

   Total alpha = 17.00000, Total beta = 17.00000, Total charge =  0.00000
