                              Psi4 1.0.54 Driver

  ==> Input File <==

--------------------------------------------------------------------------
set {
	reference rhf
	basis cc-pvtz
}

set_num_threads( 4 )
memory 2 gb

molecule MOL {
0 1

O	 -2.071633	 -1.227563	 -0.223463
C	 -1.652164	 -0.152425	 0.058082
C	 -0.327811	 0.006324	 0.778296
C	 -2.402515	 1.108629	 -0.298924
C	 0.843231	 -0.001575	 -0.211665
H	 -0.319484	 0.928173	 1.350354
H	 -0.227804	 -0.823091	 1.466705
C	 2.121544	 0.581639	 0.383319
H	 0.575320	 0.560220	 -1.102903
H	 1.021249	 -1.022815	 -0.530637
C	 3.292285	 0.564300	 -0.593527
H	 1.935727	 1.602188	 0.706545
H	 2.386981	 0.021868	 1.275362
H	 3.070081	 1.145744	 -1.482111
H	 3.522094	 -0.447287	 -0.910149
H	 4.184845	 0.980360	 -0.141165
H	 -3.240910	 0.874416	 -0.936711
H	 -1.747554	 1.818823	 -0.790984
H	 -2.760419	 1.579708	 0.610998

	symmetry c1
}
set optking {
	frozen_dihedral = ("
		9 5 3 2
	")
}

ee,wfn = optimize('scf', return_wfn=True)
oeprop( wfn, 'DIPOLE', 'QUADRUPOLE', 'MULLIKEN_CHARGES')
f=open( 'psi4out.xyz', 'w' )
f.write( "19  " )
f.write( str(ee) + "\n" )
f.write( MOL.save_string_xyz() )
f.close()
--------------------------------------------------------------------------

    Molecular point group: c1
  Charge       = 0
  Multiplicity = 1
  Basis Set: CC-PVTZ
  Basis Set:
  @DF-RHF Final Energy:  -309.17610688932683
    Total Energy =                       -309.1761068893268884
    Molecular point group: c1
  Basis Set: CC-PVTZ
  Basis Set:
  Basis Set: CC-PVTZ
  Basis Set:
  @DF-RHF Final Energy:  -309.17621828224037
    Total Energy =                       -309.1762182822400291
  Basis Set: CC-PVTZ
  Basis Set:
  Basis Set: CC-PVTZ
  Basis Set:
  @DF-RHF Final Energy:  -309.17528951701820
    Total Energy =                       -309.1752895170185411
  Basis Set: CC-PVTZ
  Basis Set:
  Basis Set: CC-PVTZ
  Basis Set:
  @DF-RHF Final Energy:  -309.17628509692031
    Total Energy =                       -309.1762850969201395
  Basis Set: CC-PVTZ
  Basis Set:
  Basis Set: CC-PVTZ
  Basis Set:
  @DF-RHF Final Energy:  -309.17629635205617
    Total Energy =                       -309.1762963520562835
  Basis Set: CC-PVTZ
  Basis Set:
  Basis Set: CC-PVTZ
  Basis Set:
  @DF-RHF Final Energy:  -309.17629869583624
    Total Energy =                       -309.1762986958362944
  Basis Set: CC-PVTZ
  Basis Set:
  Basis Set: CC-PVTZ
  Basis Set:
  @DF-RHF Final Energy:  -309.17629978040765
    Total Energy =                       -309.1762997804074757
  Basis Set: CC-PVTZ
  Basis Set:
  Charge       = 0
  Multiplicity = 1
  Basis Set: CC-PVTZ
  Basis Set:

    Orbital Energies (a.u.)
    -----------------------

    Doubly Occupied:

       1A    -20.536768     2A    -11.319359     3A    -11.229584
       4A    -11.228041     5A    -11.227012     6A    -11.224245
       7A    -11.213985     8A     -1.396747     9A     -1.093495
      10A     -1.031044    11A     -0.984448    12A     -0.891983
      13A     -0.808804    14A     -0.735073    15A     -0.662979
      16A     -0.649672    17A     -0.624293    18A     -0.615380
      19A     -0.584095    20A     -0.575617    21A     -0.552773
      22A     -0.540074    23A     -0.510171    24A     -0.505848
      25A     -0.484354    26A     -0.476571    27A     -0.470281
      28A     -0.399148

  @DF-RHF Final Energy:  -309.17630002748393

   => Energetics <=

    Nuclear Repulsion Energy =            302.0643621336867568
    One-Electron Energy =               -1017.3376409240191833
    Two-Electron Energy =                 406.0969787628484937
    DFT Exchange-Correlation Energy =       0.0000000000000000
    Empirical Dispersion Energy =           0.0000000000000000
    PCM Polarization Energy =               0.0000000000000000
    EFP Energy =                            0.0000000000000000
    Total Energy =                       -309.1763000274838760
    Molecular point group: c1
  Basis Set: CC-PVTZ
  Basis Set:

  -Total Gradient:
     Atom            X                  Y                   Z
    ------   -----------------  -----------------  -----------------
       1        0.000019762453     0.000045625121     0.000005891985
       2       -0.000217727234     0.002091130645    -0.000167513212
       3       -0.000031412578    -0.003453442826    -0.000108451596
       4        0.000002948242     0.000016997406     0.000014688841
       5        0.001285513103     0.003917705247     0.001610800387
       6        0.000026281576    -0.000027938386     0.000050138224
       7       -0.000031076014    -0.000034017406    -0.000033996341
       8       -0.000011382712     0.000026206623    -0.000019552184
       9       -0.001062469744    -0.002581873832    -0.001339336659
      10        0.000008671269     0.000001162302    -0.000000306411
      11        0.000001050850    -0.000003790493    -0.000011476677
      12       -0.000001648723    -0.000002625908     0.000006168287
      13       -0.000000251351     0.000004829803     0.000002637579
      14        0.000005336962    -0.000004708897     0.000005409383
      15        0.000003534780     0.000006967156    -0.000001619937
      16       -0.000000916343    -0.000000051318    -0.000001199068
      17       -0.000001412534     0.000004777587    -0.000001779373
      18       -0.000000269966    -0.000002374139    -0.000001041197
      19        0.000005467965    -0.000004578687    -0.000009462029

  **** Optimization is complete! (in 8 steps) ****
    Final optimized geometry and variables:
    Molecular point group: c1

    Geometry (in Angstrom), charge = 0, multiplicity = 1:

    O           -2.072130807801    -1.363968153540    -0.165735247181
    C           -1.632786482416    -0.287962437613     0.080226349523
    C           -0.313099945827    -0.121572081312     0.804679993498
    C           -2.357819498355     0.973559076855    -0.326742357332
    C            0.860834073779    -0.095605027410    -0.186572067214
    H           -0.328759734244     0.801941386841     1.374827685867
    H           -0.197502995985    -0.945152968961     1.496279221001
    C            2.145980823871     0.456583146678     0.420092882363
    H            0.591104169583     0.475566959149    -1.071071369820
    H            1.028852726869    -1.107800874758    -0.539279296559
    C            3.324881551140     0.416253961287    -0.546020964050
    H            1.979175303402     1.479770565774     0.744960708555
    H            2.390902321046    -0.110985544321     1.313491902919
    H            3.120211390217     0.998896004597    -1.438015433595
    H            3.540251419267    -0.599834851356    -0.858134501314
    H            4.220307045636     0.818411867913    -0.086843762949
    H           -3.171869081821     0.734405607646    -0.993598275472
    H           -1.682022703076     1.676313117503    -0.799987003259
    H           -2.751365952718     1.455520118651     0.562631550078

  Mulliken Charges: (a.u.)
   Center  Symbol    Alpha    Beta     Spin     Total
       1     O     4.17715  4.17715  0.00000 -0.35429
       2     C     2.85854  2.85854  0.00000  0.28292
       3     C     3.09773  3.09773  0.00000 -0.19545
       4     C     3.15584  3.15584  0.00000 -0.31169
       5     C     3.09752  3.09752  0.00000 -0.19503
       6     H     0.45101  0.45101  0.00000  0.09799
       7     H     0.43800  0.43800  0.00000  0.12400
       8     C     3.08653  3.08653  0.00000 -0.17305
       9     H     0.45129  0.45129  0.00000  0.09742
      10     H     0.44190  0.44190  0.00000  0.11619
      11     C     3.14929  3.14929  0.00000 -0.29858
      12     H     0.45418  0.45418  0.00000  0.09163
      13     H     0.45162  0.45162  0.00000  0.09676
      14     H     0.45477  0.45477  0.00000  0.09046
      15     H     0.45275  0.45275  0.00000  0.09451
      16     H     0.44735  0.44735  0.00000  0.10530
      17     H     0.43588  0.43588  0.00000  0.12824
      18     H     0.45082  0.45082  0.00000  0.09835
      19     H     0.44784  0.44784  0.00000  0.10433

   Total alpha = 28.00000, Total beta = 28.00000, Total charge = -0.00000

*** Psi4 exiting successfully. Buy a developer a beer!
