  ==> Input File <==

--------------------------------------------------------------------------
set {
	reference rhf
	basis 6-31G*
}

set_num_threads( 1 )
memory 2 gb

molecule MOL {
0 1

H	 -3.985022	 0.274304	 -1.151895
C	 -3.313449	 -0.383736	 -0.635529
C	 -2.076860	 -0.007332	 -0.404944
H	 -3.677132	 -1.342955	 -0.318441
O	 -1.180634	 -0.819263	 0.215062
H	 -1.695242	 0.951733	 -0.707859
C	 0.051604	 -1.018856	 -0.387932
C	 1.043764	 0.054862	 -0.001873
H	 -0.017620	 -1.041351	 -1.469781
H	 0.437898	 -1.966374	 -0.042284
F	 2.212596	 -0.199467	 -0.571921
F	 0.652529	 1.252447	 -0.405055
F	 1.230877	 0.110694	 1.300533

	symmetry c1
}
set optking {
	frozen_dihedral = ("
		11 8 7 9,
		3 5 7 9,
		6 3 2 1
	")
}

ee = energy('scf')
oeprop('DIPOLE', 'QUADRUPOLE', 'MULLIKEN_CHARGES')
f=open( 'psi4out.xyz', 'w' )
f.write( "13  " )
f.write( str(ee) + "\n" )
f.write( MOL.save_string_xyz() )
f.close()
--------------------------------------------------------------------------

    Molecular point group: c1

    Geometry (in Angstrom), charge = 0, multiplicity = 1:

       Center              X                  Y                   Z               Mass
    ------------   -----------------  -----------------  -----------------  -----------------
           H         -3.972223497536     0.356871589188    -1.062268918974     1.007825032070
           C         -3.300650497536    -0.301168410812    -0.545902918974    12.000000000000
           C         -2.064061497536     0.075235589188    -0.315317918974    12.000000000000
           H         -3.664333497536    -1.260387410812    -0.228814918974     1.007825032070
           O         -1.167835497536    -0.736695410812     0.304688081026    15.994914619560
           H         -1.682443497536     1.034300589188    -0.618232918974     1.007825032070
           C          0.064402502464    -0.936288410812    -0.298305918974    12.000000000000
           C          1.056562502464     0.137429589188     0.087753081026    12.000000000000
           H         -0.004821497536    -0.958783410812    -1.380154918974     1.007825032070
           H          0.450696502464    -1.883806410812     0.047342081026     1.007825032070
           F          2.225394502464    -0.116899410812    -0.482294918974    18.998403224000
           F          0.665327502464     1.335014589188    -0.315428918974    18.998403224000
           F          1.243675502464     0.193261589188     1.390159081026    18.998403224000

  Charge       = 0
  Multiplicity = 1
  Basis Set: 6-31G*
  Basis Set:

    Orbital Energies (a.u.)
    -----------------------

    Doubly Occupied:

       1A    -26.346745     2A    -26.344421     3A    -26.340953
       4A    -20.600657     5A    -11.503148     6A    -11.315753
       7A    -11.294607     8A    -11.223094     9A     -1.742869
      10A     -1.641607    11A     -1.638920    12A     -1.433095
      13A     -1.082493    14A     -1.016979    15A     -0.926428
      16A     -0.836390    17A     -0.831887    18A     -0.828045
      19A     -0.775340    20A     -0.724784    21A     -0.712641
      22A     -0.702312    23A     -0.676060    24A     -0.658824
      25A     -0.654760    26A     -0.644349    27A     -0.633271
      28A     -0.595090    29A     -0.567234    30A     -0.528109
      31A     -0.477317    32A     -0.364737

  @DF-RHF Final Energy:  -527.53409394396363

   => Energetics <=

    Nuclear Repulsion Energy =            412.7839147502773471
    One-Electron Energy =               -1549.3102276736540261
    Two-Electron Energy =                 608.9922189794128826
    DFT Exchange-Correlation Energy =       0.0000000000000000
    Empirical Dispersion Energy =           0.0000000000000000
    PCM Polarization Energy =               0.0000000000000000
    EFP Energy =                            0.0000000000000000
    Total Energy =                       -527.5340939439638532

  Mulliken Charges: (a.u.)
   Center  Symbol    Alpha    Beta     Spin     Total
       1     H     0.40641  0.40641  0.00000  0.18718
       2     C     3.22082  3.22082  0.00000 -0.44165
       3     C     2.91556  2.91556  0.00000  0.16888
       4     H     0.40201  0.40201  0.00000  0.19599
       5     O     4.30687  4.30687  0.00000 -0.61375
       6     H     0.39896  0.39896  0.00000  0.20208
       7     C     3.05823  3.05823  0.00000 -0.11645
       8     C     2.45891  2.45891  0.00000  1.08218
       9     H     0.40425  0.40425  0.00000  0.19151
      10     H     0.39084  0.39084  0.00000  0.21832
      11     F     4.68276  4.68276  0.00000 -0.36552
      12     F     4.67993  4.67993  0.00000 -0.35987
      13     F     4.67446  4.67446  0.00000 -0.34891

   Total alpha = 32.00000, Total beta = 32.00000, Total charge = -0.00000
