                              Psi4 1.0.54 Driver

  ==> Input File <==

--------------------------------------------------------------------------
set {
	reference rhf
	basis cc-pvtz
}

set_num_threads( 4 )
memory 2 gb

molecule MOL {
0 1

H	 -2.171709	 0.882708	 0.500286
C	 -2.016894	 0.001719	 -0.114152
O	 -0.775228	 0.000056	 -0.739966
H	 -2.760846	 0.003757	 -0.898169
H	 -2.174774	 -0.879864	 0.498643
C	 -0.631443	 -0.582938	 -2.020092
C	 0.843755	 -0.384642	 -2.350776
C	 -0.960650	 -2.076627	 -1.986075
C	 -1.497926	 0.137148	 -3.055118
H	 1.461696	 -0.871345	 -1.606886
H	 1.087239	 0.670259	 -2.352930
H	 1.082563	 -0.797460	 -3.323669
H	 -0.391658	 -2.569363	 -1.206890
H	 -0.708464	 -2.535762	 -2.934488
H	 -2.013217	 -2.257934	 -1.807768
H	 -1.307407	 1.203308	 -3.028729
H	 -1.269012	 -0.225423	 -4.050115
H	 -2.554980	 -0.025803	 -2.885855

	symmetry c1
}
set optking {
	frozen_dihedral = ("
		6 3 2 5
	")
}

ee,wfn = optimize('scf', return_wfn=True)
oeprop( wfn, 'DIPOLE', 'QUADRUPOLE', 'MULLIKEN_CHARGES')
f=open( 'psi4out.xyz', 'w' )
f.write( "18  " )
f.write( str(ee) + "\n" )
f.write( MOL.save_string_xyz() )
f.close()
--------------------------------------------------------------------------

    Molecular point group: c1
  Charge       = 0
  Multiplicity = 1
  Basis Set: CC-PVTZ
  Basis Set:
  @DF-RHF Final Energy:  -271.27284613819745
    Total Energy =                       -271.2728461381974512
    Molecular point group: c1
  Basis Set: CC-PVTZ
  Basis Set:
  Basis Set: CC-PVTZ
  Basis Set:
  @DF-RHF Final Energy:  -271.20364193343187
    Total Energy =                       -271.2036419334321522
  Basis Set: CC-PVTZ
  Basis Set:
  Basis Set: CC-PVTZ
  Basis Set:
  @DF-RHF Final Energy:  -271.26859440636571
    Total Energy =                       -271.2685944063657644
  Basis Set: CC-PVTZ
  Basis Set:
  Basis Set: CC-PVTZ
  Basis Set:
  @DF-RHF Final Energy:  -271.27549230537085
    Total Energy =                       -271.2754923053707898
  Basis Set: CC-PVTZ
  Basis Set:
  @DF-RHF Final Energy:  -271.27421677978543
    Total Energy =                       -271.2742167797854904
  @DF-RHF Final Energy:  -271.27575294966886
    Total Energy =                       -271.2757529496687994
  @DF-RHF Final Energy:  -271.27583572585985
    Total Energy =                       -271.2758357258599062
  Basis Set: CC-PVTZ
  Basis Set:
  @DF-RHF Final Energy:  -271.27586724103975
    Total Energy =                       -271.2758672410399186
  Basis Set: CC-PVTZ
  Basis Set:
  Basis Set: CC-PVTZ
  Basis Set:
  @DF-RHF Final Energy:  -271.27586421952822
    Total Energy =                       -271.2758642195279322
  Basis Set: CC-PVTZ
  Basis Set:
  Basis Set: CC-PVTZ
  Basis Set:
  @DF-RHF Final Energy:  -271.27587019625923
    Total Energy =                       -271.2758701962591772
  Basis Set: CC-PVTZ
  Basis Set:
  Charge       = 0
  Multiplicity = 1
  Basis Set: CC-PVTZ
  Basis Set:

    Orbital Energies (a.u.)
    -----------------------

    Doubly Occupied:

       1A    -20.539522     2A    -11.280366     3A    -11.258417
       4A    -11.207782     5A    -11.206413     6A    -11.201860
       7A     -1.372651     8A     -1.074313     9A     -0.946923
      10A     -0.940673    11A     -0.913364    12A     -0.753624
      13A     -0.656506    14A     -0.646554    15A     -0.640126
      16A     -0.591773    17A     -0.573425    18A     -0.553123
      19A     -0.536698    20A     -0.525109    21A     -0.515343
      22A     -0.490818    23A     -0.487839    24A     -0.440451
      25A     -0.405655

  @DF-RHF Final Energy:  -271.27587018706271

   => Energetics <=

    Nuclear Repulsion Energy =            272.6538716815801422
    One-Electron Energy =                -908.3408358706370791
    Two-Electron Energy =                 364.4110940019944564
    DFT Exchange-Correlation Energy =       0.0000000000000000
    Empirical Dispersion Energy =           0.0000000000000000
    PCM Polarization Energy =               0.0000000000000000
    EFP Energy =                            0.0000000000000000
    Total Energy =                       -271.2758701870624236
    Molecular point group: c1
  Basis Set: CC-PVTZ
  Basis Set:

  -Total Gradient:
     Atom            X                  Y                   Z
    ------   -----------------  -----------------  -----------------
       1       -0.000006434255     0.000001056305    -0.000000115899
       2       -0.001442085337    -0.001531450900    -0.001542300305
       3        0.001515177405    -0.001008154850     0.001696828732
       4        0.000006884896    -0.000002501097    -0.000014116959
       5        0.000791367299     0.001562723819     0.000844119513
       6       -0.000859072144     0.000978326172    -0.000983659500
       7        0.000004576673    -0.000000723493     0.000001486648
       8       -0.000002806305    -0.000001359669     0.000007363191
       9       -0.000010349339    -0.000009622791    -0.000005981135
      10        0.000010548208     0.000006559690    -0.000000457967
      11       -0.000008798845    -0.000000438358    -0.000001747573
      12        0.000004673512    -0.000004139327     0.000008376885
      13       -0.000002907945     0.000001765458    -0.000006349047
      14       -0.000000112950     0.000001348604     0.000000232446
      15        0.000000498440     0.000004675176     0.000001529501
      16        0.000007473779    -0.000000569486    -0.000005336595
      17       -0.000005433993    -0.000002973811     0.000003988724
      18       -0.000003199101     0.000005478558    -0.000003860658

  **** Optimization is complete! (in 11 steps) ****
    Final optimized geometry and variables:
    Molecular point group: c1

    Geometry (in Angstrom), charge = 0, multiplicity = 1:

    H           -1.010753104886     1.876462569785     1.919221117054
    C           -0.887499509514     0.848817670472     1.604041978455
    O            0.146323395002     0.821042605430     0.671491851075
    H           -1.833523954772     0.506535801114     1.202870865915
    H           -0.645228784698     0.258532294324     2.482760497678
    C            0.168839690078    -0.180808579232    -0.325918483135
    C            1.514700802958     0.010723634634    -1.016224588104
    C            0.093112734737    -1.577453371018     0.292922794193
    C           -0.963374750413     0.032143496061    -1.332874957284
    H            2.321446346905    -0.119740885428    -0.306202816954
    H            1.584724146227     1.010440891898    -1.425736601192
    H            1.642668743677    -0.702909940492    -1.821541238171
    H            0.878102969940    -1.707010225679     1.028335330038
    H            0.215559017718    -2.334599252672    -0.472251146641
    H           -0.859623945754    -1.753230095074     0.777527046833
    H           -0.922564756751     1.038375876162    -1.731340185150
    H           -0.869546247158    -0.666037993065    -2.156344097741
    H           -1.939781778805    -0.119175349658    -0.890214913361

  Mulliken Charges: (a.u.)
   Center  Symbol    Alpha    Beta     Spin     Total
       1     H     0.44501  0.44501  0.00000  0.10997
       2     C     3.04508  3.04508  0.00000 -0.09015
       3     O     4.19184  4.19184  0.00000 -0.38368
       4     H     0.46876  0.46876  0.00000  0.06248
       5     H     0.46290  0.46290  0.00000  0.07421
       6     C     2.87785  2.87785  0.00000  0.24430
       7     C     3.14226  3.14226  0.00000 -0.28453
       8     C     3.16417  3.16417  0.00000 -0.32833
       9     C     3.15957  3.15957  0.00000 -0.31915
      10     H     0.44942  0.44942  0.00000  0.10117
      11     H     0.44846  0.44846  0.00000  0.10308
      12     H     0.45925  0.45925  0.00000  0.08150
      13     H     0.44573  0.44573  0.00000  0.10855
      14     H     0.44676  0.44676  0.00000  0.10647
      15     H     0.44825  0.44825  0.00000  0.10351
      16     H     0.44643  0.44643  0.00000  0.10715
      17     H     0.44965  0.44965  0.00000  0.10070
      18     H     0.44862  0.44862  0.00000  0.10276

   Total alpha = 25.00000, Total beta = 25.00000, Total charge = -0.00000

*** Psi4 exiting successfully. Buy a developer a beer!
