  ==> Input File <==

--------------------------------------------------------------------------
set {
	reference rhf
	basis cc-pvtz
}

set_num_threads( 4 )
memory 2 gb

molecule MOL {
0 1

H	 -0.079617	 1.586602	 1.003470
C	 0.836578	 1.117224	 0.663719
N	 0.526300	 -0.128137	 0.000000
H	 1.450168	 0.926083	 1.534932
H	 1.359727	 1.834624	 0.027934
C	 -0.247113	 0.037112	 -1.209233
H	 1.366686	 -0.625854	 -0.199220
H	 -0.996493	 -0.743733	 -1.271440
H	 0.397975	 -0.057351	 -2.073512
H	 -0.763794	 0.997171	 -1.271673

	symmetry c1
}
set optking {
	frozen_dihedral = ("
		2 3 6 8
	")
}

ee = optimize('scf')
oeprop('DIPOLE', 'QUADRUPOLE', 'MULLIKEN_CHARGES')
f=open( 'psi4out.xyz', 'w' )
f.write( "10  " )
f.write( str(ee) + "\n" )
f.write( MOL.save_string_xyz() )
f.close()
--------------------------------------------------------------------------

    Molecular point group: c1
  Charge       = 0
  Multiplicity = 1
  Basis Set: CC-PVTZ
  Basis Set:
  @DF-RHF Final Energy:  -134.28778629139885
    Total Energy =                       -134.2877862913989020
    Molecular point group: c1
  Basis Set: CC-PVTZ
  Basis Set:
  Basis Set: CC-PVTZ
  Basis Set:
  @DF-RHF Final Energy:  -134.28898891424345
    Total Energy =                       -134.2889889142434470
  Basis Set: CC-PVTZ
  Basis Set:
  Basis Set: CC-PVTZ
  Basis Set:
  @DF-RHF Final Energy:  -134.28914304569224
    Total Energy =                       -134.2891430456923274
  Basis Set: CC-PVTZ
  Basis Set:
  Basis Set: CC-PVTZ
  Basis Set:
  @DF-RHF Final Energy:  -134.28915803349690
    Total Energy =                       -134.2891580334968751
  Basis Set: CC-PVTZ
  Basis Set:
  Charge       = 0
  Multiplicity = 1
  Basis Set: CC-PVTZ
  Basis Set:

    Orbital Energies (a.u.)
    -----------------------

    Doubly Occupied:

       1A    -15.528931     2A    -11.234397     3A    -11.233707
       4A     -1.196347     5A     -0.947915     6A     -0.855589
       7A     -0.661219     8A     -0.609065     9A     -0.589172
      10A     -0.544993    11A     -0.512071    12A     -0.506553
      13A     -0.357589

  @DF-RHF Final Energy:  -134.28915967546899

   => Energetics <=

    Nuclear Repulsion Energy =             84.5256334529392745
    One-Electron Energy =                -348.0744931893631247
    Two-Electron Energy =                 129.2597000609548559
    DFT Exchange-Correlation Energy =       0.0000000000000000
    Empirical Dispersion Energy =           0.0000000000000000
    PCM Polarization Energy =               0.0000000000000000
    EFP Energy =                            0.0000000000000000
    Total Energy =                       -134.2891596754690227
    Molecular point group: c1
  Basis Set: CC-PVTZ
  Basis Set:

  -Total Gradient:
     Atom            X                  Y                   Z
    ------   -----------------  -----------------  -----------------
       1        0.000004420383    -0.000008256033     0.000001458432
       2       -0.002216186656    -0.000057847434     0.001402608234
       3        0.002607945623     0.000700281950    -0.001461571179
       4       -0.000003915628    -0.000002046147    -0.000008370711
       5       -0.000000359991    -0.000030996118     0.000004312578
       6        0.001836677044    -0.002658586077    -0.001593411668
       7       -0.000024965882    -0.000000454437    -0.000038119398
       8       -0.002183201993     0.002028879801     0.001623217205
       9       -0.000007157037     0.000018749357     0.000056514990
      10       -0.000013255863     0.000010275138     0.000013361518

  **** Optimization is complete! (in 5 steps) ****
    Final optimized geometry and variables:
    Molecular point group: c1

    Geometry (in Angstrom), charge = 0, multiplicity = 1:

    H           -0.455168103350     1.252843680546     1.192899843041
    C            0.458128734134     0.773039647782     0.862036273406
    N            0.141634499881    -0.470638896212     0.199155328799
    H            1.058017437383     0.572157664051     1.740913464236
    H            1.001961954289     1.486276456684     0.238887431431
    C           -0.625021349017    -0.342758107201    -1.025655131560
    H            0.962885546274    -1.012262879858     0.051058193542
    H           -1.376111777012    -1.121240535382    -1.094687518187
    H           -0.013460746634    -0.362179551625    -1.924916109089
    H           -1.158881888392     0.600338250010    -1.023107487649

  Mulliken Charges: (a.u.)
   Center  Symbol    Alpha    Beta     Spin     Total
       1     H     0.45692  0.45692  0.00000  0.08616
       2     C     3.08061  3.08061  0.00000 -0.16122
       3     N     3.63541  3.63541  0.00000 -0.27081
       4     H     0.45320  0.45320  0.00000  0.09360
       5     H     0.47500  0.47500  0.00000  0.05000
       6     C     3.07941  3.07941  0.00000 -0.15883
       7     H     0.43882  0.43882  0.00000  0.12235
       8     H     0.45462  0.45462  0.00000  0.09077
       9     H     0.46519  0.46519  0.00000  0.06961
      10     H     0.46082  0.46082  0.00000  0.07836

   Total alpha = 13.00000, Total beta = 13.00000, Total charge = -0.00000
