                              Psi4 1.0.54 Driver

  ==> Input File <==

--------------------------------------------------------------------------
set {
	reference rhf
	basis cc-pvtz
}

set_num_threads( 4 )
memory 2 gb

molecule MOL {
0 1

H	 2.867672	 -0.456275	 0.875795
C	 2.403497	 -0.020426	 0.000000
N	 0.989899	 -0.304564	 0.000000
H	 2.867672	 -0.456275	 -0.875795
H	 2.620366	 1.051270	 0.000000
C	 0.707114	 -1.705844	 -0.232412
C	 0.258561	 0.525725	 -0.934523
H	 1.081773	 -2.032886	 -1.207306
H	 1.203411	 -2.300310	 0.525893
C	 -0.787827	 -1.952906	 -0.166426
H	 0.425740	 1.568634	 -0.691379
H	 0.599483	 0.366530	 -1.962226
C	 -1.224855	 0.221325	 -0.850496
H	 -1.015068	 -2.976598	 -0.429187
H	 -1.142294	 -1.769732	 0.845947
O	 -1.474629	 -1.135773	 -1.067393
H	 -1.767996	 0.769250	 -1.607730
H	 -1.601937	 0.517008	 0.126478

	symmetry c1
}
set optking {
	frozen_dihedral = ("
		6 3 2 5
	")
}

ee,wfn = optimize('scf', return_wfn=True)
oeprop( wfn, 'DIPOLE', 'QUADRUPOLE', 'MULLIKEN_CHARGES')
f=open( 'psi4out.xyz', 'w' )
f.write( "18  " )
f.write( str(ee) + "\n" )
f.write( MOL.save_string_xyz() )
f.close()
--------------------------------------------------------------------------

    Molecular point group: c1
  Charge       = 0
  Multiplicity = 1
  Basis Set: CC-PVTZ
  Basis Set:
  @DF-RHF Final Energy:  -325.14443527284851
    Total Energy =                       -325.1444352728483977
    Molecular point group: c1
  Basis Set: CC-PVTZ
  Basis Set:
  Basis Set: CC-PVTZ
  Basis Set:
  @DF-RHF Final Energy:  -325.14507939863290
    Total Energy =                       -325.1450793986327881
  Basis Set: CC-PVTZ
  Basis Set:
  Basis Set: CC-PVTZ
  Basis Set:
  @DF-RHF Final Energy:  -325.14517087249936
    Total Energy =                       -325.1451708724995342
  Basis Set: CC-PVTZ
  Basis Set:
  Charge       = 0
  Multiplicity = 1
  Basis Set: CC-PVTZ
  Basis Set:

    Orbital Energies (a.u.)
    -----------------------

    Doubly Occupied:

       1A    -20.547604     2A    -15.544966     3A    -11.264398
       4A    -11.264367     5A    -11.242672     6A    -11.242497
       7A    -11.239254     8A     -1.386604     9A     -1.234278
      10A     -1.039064    11A     -0.982068    12A     -0.883883
      13A     -0.869658    14A     -0.775189    15A     -0.685202
      16A     -0.646391    17A     -0.645298    18A     -0.635255
      19A     -0.631128    20A     -0.574302    21A     -0.557649
      22A     -0.540522    23A     -0.527486    24A     -0.501621
      25A     -0.484845    26A     -0.453983    27A     -0.410677
      28A     -0.356840

  @DF-RHF Final Energy:  -325.14517226180368

   => Energetics <=

    Nuclear Repulsion Energy =            341.9931188185981341
    One-Electron Energy =               -1119.9411824547346441
    Two-Electron Energy =                 452.8028913743327166
    DFT Exchange-Correlation Energy =       0.0000000000000000
    Empirical Dispersion Energy =           0.0000000000000000
    PCM Polarization Energy =               0.0000000000000000
    EFP Energy =                            0.0000000000000000
    Total Energy =                       -325.1451722618038502
    Molecular point group: c1
  Basis Set: CC-PVTZ
  Basis Set:

  -Total Gradient:
     Atom            X                  Y                   Z
    ------   -----------------  -----------------  -----------------
       1       -0.000009488029    -0.000006117683     0.000009031074
       2       -0.000086431399     0.000098092980     0.002852202017
       3        0.000102064087    -0.000555619268     0.002219049184
       4       -0.000010125162    -0.000015259206    -0.000023396708
       5       -0.000014516910    -0.000028956313    -0.002890938225
       6        0.000050324156     0.000364965903    -0.002210803949
       7        0.000005335089    -0.000060981573     0.000099822322
       8        0.000020698679    -0.000002284017    -0.000017083661
       9        0.000023264150     0.000004665712     0.000008418297
      10       -0.000004018636     0.000177189347     0.000068855268
      11       -0.000012232695    -0.000003630468    -0.000012943934
      12       -0.000029119627     0.000004825307    -0.000004207889
      13       -0.000029356263     0.000054899270    -0.000080608182
      14        0.000051466155     0.000036099960    -0.000006514315
      15       -0.000031156841    -0.000026148713     0.000036962100
      16       -0.000013961909    -0.000016238324    -0.000032901081
      17       -0.000036851623    -0.000007505918    -0.000006108930
      18        0.000024106774    -0.000017996996    -0.000008833389

  **** Optimization is complete! (in 4 steps) ****
    Final optimized geometry and variables:
    Molecular point group: c1

    Geometry (in Angstrom), charge = 0, multiplicity = 1:

    H            2.734319759499     0.214153813694     1.374767005786
    C            2.267189313941     0.631884721433     0.491616318135
    N            0.853159400047     0.341244341271     0.485371964575
    H            2.779966811054     0.229388120264    -0.386315662827
    H            2.423760759366     1.702755807705     0.488034012946
    C            0.589817880164    -1.064856828425     0.256465341531
    C            0.125736688564     1.147026351972    -0.475474484563
    H            0.978181376464    -1.387830600738    -0.714101402844
    H            1.088541071479    -1.651108816745     1.020300757588
    C           -0.901845957681    -1.332729625256     0.309824399667
    H            0.275394981561     2.195917866103    -0.248045875047
    H            0.481692469706     0.974445474244    -1.495927705390
    C           -1.355492391998     0.827317687225    -0.406235965973
    H           -1.110844333555    -2.362292759184     0.054778100555
    H           -1.269952162611    -1.145262480401     1.316587402786
    O           -1.589773021707    -0.534850195298    -0.607202390956
    H           -1.894675785132     1.359838669828    -1.177301223521
    H           -1.746908369988     1.132819026114     0.562108155350

  Mulliken Charges: (a.u.)
   Center  Symbol    Alpha    Beta     Spin     Total
       1     H     0.44969  0.44969  0.00000  0.10062
       2     C     3.09474  3.09474  0.00000 -0.18948
       3     N     3.61735  3.61735  0.00000 -0.23469
       4     H     0.46952  0.46952  0.00000  0.06096
       5     H     0.45270  0.45270  0.00000  0.09460
       6     C     3.04198  3.04198  0.00000 -0.08396
       7     C     3.04040  3.04040  0.00000 -0.08081
       8     H     0.46790  0.46790  0.00000  0.06420
       9     H     0.45416  0.45416  0.00000  0.09167
      10     C     2.98340  2.98340  0.00000  0.03320
      11     H     0.45383  0.45383  0.00000  0.09233
      12     H     0.46942  0.46942  0.00000  0.06116
      13     C     2.98391  2.98391  0.00000  0.03218
      14     H     0.44984  0.44984  0.00000  0.10033
      15     H     0.46742  0.46742  0.00000  0.06516
      16     O     4.18647  4.18647  0.00000 -0.37293
      17     H     0.44972  0.44972  0.00000  0.10056
      18     H     0.46755  0.46755  0.00000  0.06491

   Total alpha = 28.00000, Total beta = 28.00000, Total charge =  0.00000

*** Psi4 exiting successfully. Buy a developer a beer!
