                              Psi4 1.0.54 Driver

  ==> Input File <==

--------------------------------------------------------------------------
set {
	reference rhf
	basis cc-pvtz
}

set_num_threads( 4 )
memory 2 gb

molecule MOL {
0 1

H	 -3.268214	 -0.875720	 0.463107
C	 -2.806015	 0.000007	 0.024886
N	 -1.391133	 0.000016	 0.301321
H	 -3.029448	 0.000055	 -1.045738
H	 -3.268126	 0.875758	 0.463150
C	 -0.686012	 1.025137	 -0.437264
C	 -0.788100	 -1.297305	 0.084894
H	 -0.772132	 0.869543	 -1.516719
H	 -1.127690	 1.987997	 -0.209437
C	 0.782653	 1.046111	 -0.057006
H	 -1.304298	 -2.029920	 0.693914
H	 -0.881176	 -1.611216	 -0.958967
C	 0.680565	 -1.276331	 0.465152
H	 1.298851	 1.778725	 -0.666027
H	 0.875729	 1.360021	 0.986854
N	 1.385686	 -0.251210	 -0.273434
H	 1.122244	 -2.239191	 0.237325
H	 0.766685	 -1.120737	 1.544607
C	 2.800568	 -0.251201	 0.003001
H	 3.297752	 0.486589	 -0.614280
H	 3.222671	 -1.220672	 -0.230487
H	 3.028877	 -0.026189	 1.048660

	symmetry c1
}
set optking {
	frozen_dihedral = ("
		6 3 2 4
	")
}

ee,wfn = optimize('scf', return_wfn=True)
oeprop( wfn, 'DIPOLE', 'QUADRUPOLE', 'MULLIKEN_CHARGES')
f=open( 'psi4out.xyz', 'w' )
f.write( "22  " )
f.write( str(ee) + "\n" )
f.write( MOL.save_string_xyz() )
f.close()
--------------------------------------------------------------------------

    Molecular point group: c1
  Charge       = 0
  Multiplicity = 1
  Basis Set: CC-PVTZ
  Basis Set:
  @DF-RHF Final Energy:  -344.35000609423389
    Total Energy =                       -344.3500060942336631
    Molecular point group: c1
  Basis Set: CC-PVTZ
  Basis Set:
  Basis Set: CC-PVTZ
  Basis Set:
  @DF-RHF Final Energy:  -344.35007783183596
    Total Energy =                       -344.3500778318358471
  Basis Set: CC-PVTZ
  Basis Set:
  Charge       = 0
  Multiplicity = 1
  Basis Set: CC-PVTZ
  Basis Set:

    Orbital Energies (a.u.)
    -----------------------

    Doubly Occupied:

       1A    -15.538088     2A    -15.537592     3A    -11.237618
       4A    -11.237549     5A    -11.236968     6A    -11.236897
       7A    -11.234299     8A    -11.234260     9A     -1.257526
      10A     -1.206564    11A     -1.025754    12A     -0.993020
      13A     -0.912210    14A     -0.867896    15A     -0.836460
      16A     -0.756004    17A     -0.667010    18A     -0.637986
      19A     -0.632197    20A     -0.627250    21A     -0.623290
      22A     -0.582621    23A     -0.550351    24A     -0.546513
      25A     -0.542274    26A     -0.517913    27A     -0.497167
      28A     -0.490809    29A     -0.465957    30A     -0.457089
      31A     -0.353210    32A     -0.348435

  @DF-RHF Final Energy:  -344.35008204793951

   => Energetics <=

    Nuclear Repulsion Energy =            422.0286394553924083
    One-Electron Energy =               -1302.9798873138238378
    Two-Electron Energy =                 536.6011658104916933
    DFT Exchange-Correlation Energy =       0.0000000000000000
    Empirical Dispersion Energy =           0.0000000000000000
    PCM Polarization Energy =               0.0000000000000000
    EFP Energy =                            0.0000000000000000
    Total Energy =                       -344.3500820479397362
    Molecular point group: c1
  Basis Set: CC-PVTZ
  Basis Set:

  -Total Gradient:
     Atom            X                  Y                   Z
    ------   -----------------  -----------------  -----------------
       1       -0.000036203735    -0.000001358605     0.000005622277
       2        0.000255687307    -0.004382160215    -0.000575363888
       3       -0.000351623922     0.002648762679     0.002138771028
       4       -0.000020257443     0.002959029076    -0.000015427330
       5        0.000034959466     0.000013351112    -0.000025647257
       6        0.000198625657    -0.001460750628    -0.001453132418
       7       -0.000169974354     0.000041513536     0.000098668664
       8        0.000046241388     0.000024669481    -0.000008305599
       9        0.000014546612     0.000081192013    -0.000051109307
      10        0.000018629132     0.000069944640    -0.000104072684
      11        0.000012411354    -0.000061376928    -0.000014680054
      12       -0.000002045728     0.000020390872    -0.000033280104
      13       -0.000017794819     0.000058746443     0.000044941479
      14        0.000009833294     0.000011001297     0.000006476748
      15       -0.000031103496    -0.000005872554    -0.000013614494
      16        0.000034746045     0.000009490224    -0.000015212655
      17       -0.000041899958     0.000007000892    -0.000007365441
      18        0.000022102958    -0.000004216542     0.000020820989
      19        0.000030473708    -0.000020721381     0.000002544537
      20       -0.000010068523    -0.000003144368    -0.000002444498
      21        0.000007123145    -0.000006008282     0.000001664314
      22       -0.000004408087     0.000000517235     0.000000145694

  **** Optimization is complete! (in 3 steps) ****
    Final optimized geometry and variables:
    Molecular point group: c1

    Geometry (in Angstrom), charge = 0, multiplicity = 1:

    H           -3.280516181982    -0.735226863967     0.462552378890
    C           -2.804079422565     0.125062281461     0.011658839773
    N           -1.389426656892     0.120403598069     0.297651554048
    H           -3.019506751749     0.123777045858    -1.060013410105
    H           -3.260170696000     1.015528794891     0.429066489691
    C           -0.686834991515     1.145618044322    -0.444170874122
    C           -0.782848769202    -1.173864760500     0.063838749731
    H           -0.775578576969     0.984508586528    -1.522331738496
    H           -1.131309992799     2.108839302276    -0.220667566749
    C            0.782615172714     1.173115896180    -0.068000553473
    H           -1.293823804091    -1.915504990881     0.665966249853
    H           -0.875602203824    -1.476700051342    -0.983362076130
    C            0.686435974931    -1.151912532372     0.442540171270
    H            1.293728235752     1.909488721477    -0.677002281399
    H            0.877190322202     1.485433138050     0.976213576997
    N            1.389908279728    -0.121172031285    -0.289506220451
    H            1.129482825923    -2.112754886873     0.208481859733
    H            0.772452971297    -1.003325186982     1.523110560831
    C            2.804376382512    -0.119006696171    -0.012123154313
    H            3.300052246183     0.623361293805    -0.625236097197
    H            3.229292485662    -1.086183609246    -0.250332378808
    H            3.031613848271     0.101196760075     1.034879212176

  Mulliken Charges: (a.u.)
   Center  Symbol    Alpha    Beta     Spin     Total
       1     H     0.45254  0.45254  0.00000  0.09491
       2     C     3.09838  3.09838  0.00000 -0.19675
       3     N     3.61373  3.61373  0.00000 -0.22747
       4     H     0.46951  0.46951  0.00000  0.06097
       5     H     0.45102  0.45102  0.00000  0.09796
       6     C     3.03650  3.03650  0.00000 -0.07299
       7     C     3.03475  3.03475  0.00000 -0.06950
       8     H     0.46704  0.46704  0.00000  0.06591
       9     H     0.45388  0.45388  0.00000  0.09224
      10     C     3.03547  3.03547  0.00000 -0.07093
      11     H     0.45364  0.45364  0.00000  0.09272
      12     H     0.46866  0.46866  0.00000  0.06268
      13     C     3.03586  3.03586  0.00000 -0.07171
      14     H     0.45377  0.45377  0.00000  0.09245
      15     H     0.46795  0.46795  0.00000  0.06410
      16     N     3.61301  3.61301  0.00000 -0.22602
      17     H     0.45384  0.45384  0.00000  0.09233
      18     H     0.46808  0.46808  0.00000  0.06384
      19     C     3.09847  3.09847  0.00000 -0.19694
      20     H     0.45197  0.45197  0.00000  0.09607
      21     H     0.45195  0.45195  0.00000  0.09611
      22     H     0.47000  0.47000  0.00000  0.06001

   Total alpha = 32.00000, Total beta = 32.00000, Total charge = -0.00000

*** Psi4 exiting successfully. Buy a developer a beer!
