                              Psi4 1.0.54 Driver

  ==> Input File <==

--------------------------------------------------------------------------
set {
	reference rhf
	basis cc-pvtz
}

set_num_threads( 4 )
memory 2 gb

molecule MOL {
0 1

H	 3.297339	 -0.408876	 0.006941
C	 2.238583	 -0.232815	 0.005294
C	 1.364846	 -1.289127	 -0.204760
C	 1.754674	 1.043326	 0.212206
H	 1.748535	 -2.278041	 -0.364837
C	 0.005908	 -1.067581	 -0.207644
H	 2.432854	 1.858335	 0.374398
C	 0.389628	 1.264256	 0.209029
H	 -0.685194	 -1.870861	 -0.368193
C	 -0.486398	 0.214248	 0.000000
H	 0.006138	 2.254906	 0.369413
C	 -1.946525	 0.470130	 0.000000
O	 -2.779618	 -0.371226	 0.000000
H	 -2.227127	 1.528393	 0.000000

	symmetry c1
}
set optking {
	frozen_dihedral = ("
		8 10 12 14
	")
}

ee,wfn = optimize('scf', return_wfn=True)
oeprop( wfn, 'DIPOLE', 'QUADRUPOLE', 'MULLIKEN_CHARGES')
f=open( 'psi4out.xyz', 'w' )
f.write( "14  " )
f.write( str(ee) + "\n" )
f.write( MOL.save_string_xyz() )
f.close()
--------------------------------------------------------------------------

    Molecular point group: c1
  Charge       = 0
  Multiplicity = 1
  Basis Set: CC-PVTZ
  Basis Set:
  @DF-RHF Final Energy:  -343.54975110751496
    Total Energy =                       -343.5497511075150783
    Molecular point group: c1
  Basis Set: CC-PVTZ
  Basis Set:
  Basis Set: CC-PVTZ
  Basis Set:
  @DF-RHF Final Energy:  -343.54906555852608
    Total Energy =                       -343.5490655585262516
  Basis Set: CC-PVTZ
  Basis Set:
  Basis Set: CC-PVTZ
  Basis Set:
  @DF-RHF Final Energy:  -343.54976216885154
    Total Energy =                       -343.5497621688514869
  Basis Set: CC-PVTZ
  Basis Set:
  Basis Set: CC-PVTZ
  Basis Set:
  @DF-RHF Final Energy:  -343.54981089046373
    Total Energy =                       -343.5498108904636183
  Basis Set: CC-PVTZ
  Basis Set:
  Charge       = 0
  Multiplicity = 1
  Basis Set: CC-PVTZ
  Basis Set:

    Orbital Energies (a.u.)
    -----------------------

    Doubly Occupied:

       1A    -20.552845     2A    -11.327034     3A    -11.252675
       4A    -11.250147     5A    -11.246665     6A    -11.245385
       7A    -11.243909     8A    -11.242313     9A     -1.408681
      10A     -1.177102    11A     -1.051788    12A     -1.036192
      13A     -0.892713    14A     -0.848440    15A     -0.794572
      16A     -0.725554    17A     -0.682326    18A     -0.656565
      19A     -0.623760    20A     -0.621323    21A     -0.606095
      22A     -0.561676    23A     -0.530249    24A     -0.510168
      25A     -0.508364    26A     -0.425583    27A     -0.355812
      28A     -0.352560

  @DF-RHF Final Energy:  -343.54981137995281

   => Energetics <=

    Nuclear Repulsion Energy =            323.9671890080899743
    One-Electron Energy =               -1107.5730087681597524
    Two-Electron Energy =                 440.0560083801170776
    DFT Exchange-Correlation Energy =       0.0000000000000000
    Empirical Dispersion Energy =           0.0000000000000000
    PCM Polarization Energy =               0.0000000000000000
    EFP Energy =                            0.0000000000000000
    Total Energy =                       -343.5498113799527573
    Molecular point group: c1
  Basis Set: CC-PVTZ
  Basis Set:

  -Total Gradient:
     Atom            X                  Y                   Z
    ------   -----------------  -----------------  -----------------
       1        0.000001203942     0.000004096122     0.000002956160
       2       -0.000005991895    -0.000045416592    -0.000009161839
       3        0.000045632209     0.000023815238     0.000016451267
       4       -0.000030067177     0.000035766413    -0.000016346208
       5       -0.000001817970    -0.000000798878     0.000001104974
       6       -0.000036463365     0.000021616619    -0.000021562134
       7        0.000007244434    -0.000004540813     0.000002508638
       8        0.000035441552    -0.000267942086     0.001511356436
       9        0.000003212183     0.000010006131    -0.000006148043
      10        0.000003206949     0.000387114842    -0.002718477009
      11       -0.000004343294    -0.000005328933    -0.000008534059
      12        0.000071786509    -0.000129924131     0.003094291582
      13       -0.000072779444    -0.000038734761     0.000000732635
      14       -0.000016264639     0.000010270831    -0.001849172400

  **** Optimization is complete! (in 5 steps) ****
    Final optimized geometry and variables:
    Molecular point group: c1

    Geometry (in Angstrom), charge = 0, multiplicity = 1:

    H            3.296673354145    -0.412081939510     0.024626742306
    C            2.238182640181    -0.234342282876     0.015824997244
    C            1.364194322509    -1.290035601481    -0.197661508917
    C            1.754615633745     1.042585800546     0.217478719133
    H            1.747695666582    -2.279812925261    -0.353137463692
    C            0.005568351192    -1.067228627462    -0.206340102581
    H            2.432510131651     1.856735916199     0.385425855136
    C            0.389802925891     1.266196432689     0.200923106337
    H           -0.685717243791    -1.871423524664    -0.361867237028
    C           -0.486039108503     0.217153177560    -0.012291637689
    H            0.006922650092     2.258327662134     0.354056549866
    C           -1.946989099771     0.470755345270     0.001887629055
    O           -2.778177345792    -0.371988636639    -0.018927975345
    H           -2.229155117065     1.528715721379     0.015288594379

  Mulliken Charges: (a.u.)
   Center  Symbol    Alpha    Beta     Spin     Total
       1     H     0.41951  0.41951  0.00000  0.16099
       2     C     3.06979  3.06979  0.00000 -0.13959
       3     C     3.07232  3.07232  0.00000 -0.14464
       4     C     3.07384  3.07384  0.00000 -0.14768
       5     H     0.41953  0.41953  0.00000  0.16093
       6     C     3.07989  3.07989  0.00000 -0.15977
       7     H     0.42058  0.42058  0.00000  0.15883
       8     C     3.08710  3.08710  0.00000 -0.17420
       9     H     0.40883  0.40883  0.00000  0.18234
      10     C     2.98477  2.98477  0.00000  0.03046
      11     H     0.42293  0.42293  0.00000  0.15413
      12     C     2.91022  2.91022  0.00000  0.17956
      13     O     4.17236  4.17236  0.00000 -0.34472
      14     H     0.45832  0.45832  0.00000  0.08336

   Total alpha = 28.00000, Total beta = 28.00000, Total charge =  0.00000

*** Psi4 exiting successfully. Buy a developer a beer!
