                              Psi4 1.0.54 Driver

  ==> Input File <==

--------------------------------------------------------------------------
set {
	reference rhf
	basis cc-pvtz
}

set_num_threads( 4 )
memory 2 gb

molecule MOL {
0 1

H	 -2.816458	 -0.841657	 -0.064679
N	 -1.878861	 -0.711874	 0.250184
C	 -1.341419	 0.551458	 -0.220231
H	 -1.333674	 -1.468530	 -0.105118
C	 0.082190	 0.731516	 0.254705
H	 -1.357065	 0.652078	 -1.304747
H	 -1.939897	 1.357530	 0.189797
O	 0.881195	 -0.248324	 -0.336237
H	 0.440901	 1.722476	 -0.020063
H	 0.119896	 0.643586	 1.338114
C	 2.167221	 -0.332576	 0.181700
H	 2.688944	 -1.115480	 -0.349574
H	 2.710819	 0.600653	 0.050252
H	 2.154171	 -0.576540	 1.241357

	symmetry c1
}
set optking {
	frozen_dihedral = ("
		11 8 5 3
	")
}

ee,wfn = optimize('scf', return_wfn=True)
oeprop( wfn, 'DIPOLE', 'QUADRUPOLE', 'MULLIKEN_CHARGES')
f=open( 'psi4out.xyz', 'w' )
f.write( "14  " )
f.write( str(ee) + "\n" )
f.write( MOL.save_string_xyz() )
f.close()
--------------------------------------------------------------------------

    Molecular point group: c1
  Charge       = 0
  Multiplicity = 1
  Basis Set: CC-PVTZ
  Basis Set:
  @DF-RHF Final Energy:  -248.22607845016790
    Total Energy =                       -248.2260784501677904
    Molecular point group: c1
  Basis Set: CC-PVTZ
  Basis Set:
  Basis Set: CC-PVTZ
  Basis Set:
  @DF-RHF Final Energy:  -248.22608337157416
    Total Energy =                       -248.2260833715743047
  Basis Set: CC-PVTZ
  Basis Set:
  Charge       = 0
  Multiplicity = 1
  Basis Set: CC-PVTZ
  Basis Set:

    Orbital Energies (a.u.)
    -----------------------

    Doubly Occupied:

       1A    -20.550576     2A    -15.523789     3A    -11.263831
       4A    -11.263486     5A    -11.239912     6A     -1.384293
       7A     -1.176263     8A     -1.000603     9A     -0.907461
      10A     -0.815816    11A     -0.685927    12A     -0.675348
      13A     -0.647421    14A     -0.613155    15A     -0.606754
      16A     -0.542037    17A     -0.530323    18A     -0.498145
      19A     -0.474399    20A     -0.420107    21A     -0.384085

  @DF-RHF Final Energy:  -248.22608402990346

   => Energetics <=

    Nuclear Repulsion Energy =            194.8221100447210006
    One-Electron Energy =                -723.6889287193882865
    Two-Electron Energy =                 280.6407346447639384
    DFT Exchange-Correlation Energy =       0.0000000000000000
    Empirical Dispersion Energy =           0.0000000000000000
    PCM Polarization Energy =               0.0000000000000000
    EFP Energy =                            0.0000000000000000
    Total Energy =                       -248.2260840299032907
    Molecular point group: c1
  Basis Set: CC-PVTZ
  Basis Set:

  -Total Gradient:
     Atom            X                  Y                   Z
    ------   -----------------  -----------------  -----------------
       1        0.000010356327     0.000012137661    -0.000005809640
       2        0.000007367516     0.000024228066     0.000016105495
       3       -0.000140290667    -0.000490955017     0.000513233238
       4        0.000005209118     0.000012617911     0.000000935293
       5        0.000044013349     0.000336578883    -0.000462448451
       6       -0.000019153435     0.000005458706    -0.000025176924
       7        0.000027591385     0.000004785965     0.000002287279
       8        0.000306320253     0.000597180746    -0.000565130431
       9        0.000008422214    -0.000003585420     0.000006770343
      10       -0.000005734928     0.000009204676    -0.000000290278
      11       -0.000236286540    -0.000499652756     0.000533189607
      12       -0.000010614803     0.000000371441    -0.000010498343
      13        0.000011138581    -0.000006416138    -0.000000601109
      14       -0.000008338367    -0.000001954725    -0.000002566078

  **** Optimization is complete! (in 3 steps) ****
    Final optimized geometry and variables:
    Molecular point group: c1

    Geometry (in Angstrom), charge = 0, multiplicity = 1:

    H           -2.809087683246    -0.819652103312    -0.080794896927
    N           -1.869671701723    -0.690993429637     0.229015055999
    C           -1.333462510015     0.571568037328    -0.244498958415
    H           -1.327523292470    -1.447895975556    -0.130287722055
    C            0.090047374767     0.752905640329     0.230803639368
    H           -1.349948138709     0.669596869804    -1.329332170111
    H           -1.932071911197     1.378635406444     0.163389908187
    O            0.890221100236    -0.227577309266    -0.358201505664
    H            0.451352342936     1.743765798145    -0.040325996592
    H            0.122606701894     0.662789151216     1.314001527201
    C            2.176640800152    -0.311972097620     0.159223392072
    H            2.698732735376    -1.092572353747    -0.375122854926
    H            2.720441680469     0.621673369355     0.030739567821
    H            2.163158081954    -0.559301226491     1.217857233767

  Mulliken Charges: (a.u.)
   Center  Symbol    Alpha    Beta     Spin     Total
       1     H     0.43012  0.43012  0.00000  0.13976
       2     N     3.69445  3.69445  0.00000 -0.38890
       3     C     3.02244  3.02244  0.00000 -0.04489
       4     H     0.42253  0.42253  0.00000  0.15493
       5     C     2.96963  2.96963  0.00000  0.06073
       6     H     0.46424  0.46424  0.00000  0.07151
       7     H     0.45847  0.45847  0.00000  0.08306
       8     O     4.18076  4.18076  0.00000 -0.36152
       9     H     0.46797  0.46797  0.00000  0.06406
      10     H     0.46934  0.46934  0.00000  0.06132
      11     C     3.03222  3.03222  0.00000 -0.06444
      12     H     0.44778  0.44778  0.00000  0.10443
      13     H     0.47101  0.47101  0.00000  0.05797
      14     H     0.46902  0.46902  0.00000  0.06196

   Total alpha = 21.00000, Total beta = 21.00000, Total charge =  0.00000

*** Psi4 exiting successfully. Buy a developer a beer!
