  ==> Input File <==

--------------------------------------------------------------------------
set {
	reference rhf
	basis cc-pvtz
}

set_num_threads( 4 )
memory 2 gb

molecule MOL {
0 1

O	 -2.817697	 1.304178	 0.001046
C	 -2.664672	 0.129869	 0.003507
C	 -3.797908	 -0.860100	 -0.001145
O	 -1.481217	 -0.452708	 0.001092
H	 -4.408836	 -0.679689	 -0.875387
H	 -3.443486	 -1.878443	 -0.002770
H	 -4.412123	 -0.683688	 0.871605
C	 -0.332055	 0.384012	 -0.000250
C	 0.892252	 -0.506059	 -0.000295
H	 -0.360822	 1.020205	 -0.874146
H	 -0.359817	 1.021310	 0.872861
C	 1.333765	 -0.875886	 1.412736
H	 1.697808	 0.003683	 -0.518863
H	 0.673783	 -1.404995	 -0.567614
C	 2.567312	 -1.774143	 1.437677
H	 1.540479	 0.030225	 1.976836
H	 0.517597	 -1.375831	 1.928389
C	 3.008139	 -2.144910	 2.849489
H	 3.384110	 -1.274895	 0.924211
H	 2.361886	 -2.680024	 0.874412
H	 3.253896	 -1.260573	 3.427760
H	 3.884589	 -2.782114	 2.831856
H	 2.223617	 -2.676309	 3.377687

	symmetry c1
}
set optking {
	frozen_dihedral = ("
		13 9 8 10
	")
}

ee = optimize('scf')
oeprop('DIPOLE', 'QUADRUPOLE', 'MULLIKEN_CHARGES')
f=open( 'psi4out.xyz', 'w' )
f.write( "23  " )
f.write( str(ee) + "\n" )
f.write( MOL.save_string_xyz() )
f.close()
--------------------------------------------------------------------------

    Molecular point group: c1
  Charge       = 0
  Multiplicity = 1
  Basis Set: CC-PVTZ
  Basis Set:
  @DF-RHF Final Energy:  -423.13218426155390
    Total Energy =                       -423.1321842615543574
    Molecular point group: c1
  Basis Set: CC-PVTZ
  Basis Set:
  Basis Set: CC-PVTZ
  Basis Set:
  @DF-RHF Final Energy:  -423.13246658814393
    Total Energy =                       -423.1324665881436431
  Basis Set: CC-PVTZ
  Basis Set:
  Basis Set: CC-PVTZ
  Basis Set:
  @DF-RHF Final Energy:  -423.13251224028994
    Total Energy =                       -423.1325122402896568
  Basis Set: CC-PVTZ
  Basis Set:
  Basis Set: CC-PVTZ
  Basis Set:
  @DF-RHF Final Energy:  -423.13262984112083
    Total Energy =                       -423.1326298411205471
  Basis Set: CC-PVTZ
  Basis Set:
  Basis Set: CC-PVTZ
  Basis Set:
  @DF-RHF Final Energy:  -423.13267142436104
    Total Energy =                       -423.1326714243612059
  Basis Set: CC-PVTZ
  Basis Set:
  Basis Set: CC-PVTZ
  Basis Set:
  @DF-RHF Final Energy:  -423.13267294123847
    Total Energy =                       -423.1326729412384111
  Basis Set: CC-PVTZ
  Basis Set:
  Basis Set: CC-PVTZ
  Basis Set:
  @DF-RHF Final Energy:  -423.13267451474604
    Total Energy =                       -423.1326745147462134
  Basis Set: CC-PVTZ
  Basis Set:
  Charge       = 0
  Multiplicity = 1
  Basis Set: CC-PVTZ
  Basis Set:

    Orbital Energies (a.u.)
    -----------------------

    Doubly Occupied:

       1A    -20.596829     2A    -20.530074     3A    -11.366898
       4A    -11.279605     5A    -11.231232     6A    -11.222608
       7A    -11.218236     8A    -11.217611     9A    -11.209945
      10A     -1.471747    11A     -1.364650    12A     -1.093083
      13A     -1.042556    14A     -1.003740    15A     -0.931932
      16A     -0.843695    17A     -0.800278    18A     -0.782885
      19A     -0.691400    20A     -0.684285    21A     -0.670356
      22A     -0.644587    23A     -0.609378    24A     -0.585220
      25A     -0.578266    26A     -0.575035    27A     -0.560020
      28A     -0.535307    29A     -0.530508    30A     -0.505532
      31A     -0.497474    32A     -0.475112    33A     -0.470470
      34A     -0.464561    35A     -0.447880    36A     -0.440624

  @DF-RHF Final Energy:  -423.13267453087531

   => Energetics <=

    Nuclear Repulsion Energy =            456.5484483287137891
    One-Electron Energy =               -1481.0150132724625109
    Two-Electron Energy =                 601.3338904128733020
    DFT Exchange-Correlation Energy =       0.0000000000000000
    Empirical Dispersion Energy =           0.0000000000000000
    PCM Polarization Energy =               0.0000000000000000
    EFP Energy =                            0.0000000000000000
    Total Energy =                       -423.1326745308755335
    Molecular point group: c1
  Basis Set: CC-PVTZ
  Basis Set:

  -Total Gradient:
     Atom            X                  Y                   Z
    ------   -----------------  -----------------  -----------------
       1       -0.000002521099     0.000003478428    -0.000001036563
       2        0.000011518705    -0.000000791399     0.000013435485
       3        0.000000494967    -0.000000217941     0.000002061226
       4       -0.000000513310    -0.000008707264    -0.000005927896
       5        0.000001698699    -0.000002120346    -0.000002402792
       6       -0.000000142440    -0.000000296508    -0.000000772518
       7       -0.000000848554     0.000002530562    -0.000002359996
       8       -0.002930085026    -0.004435456969    -0.003575941523
       9        0.001951224623     0.003120766437     0.005090396599
      10        0.002113771024     0.003185441290     0.002160370330
      11       -0.000000790895     0.000003845124     0.000002929279
      12       -0.000001525088    -0.000014387232     0.000002809316
      13       -0.001143080170    -0.001861441569    -0.003683042435
      14       -0.000000177765     0.000000992018    -0.000000248045
      15        0.000002663982     0.000004653266     0.000001427135
      16       -0.000001003115    -0.000000534997    -0.000000254134
      17       -0.000002650364    -0.000000982929    -0.000000748630
      18        0.000000734813     0.000002180119     0.000000116972
      19        0.000003195952    -0.000001273725    -0.000002336424
      20       -0.000002085531     0.000001565788     0.000001659331
      21        0.000000454884     0.000000043725     0.000001012826
      22       -0.000000109057     0.000000374285    -0.000000595805
      23       -0.000000225241     0.000000339840    -0.000000551735

  **** Optimization is complete! (in 8 steps) ****
    Final optimized geometry and variables:
    Molecular point group: c1

    Geometry (in Angstrom), charge = 0, multiplicity = 1:

    O           -2.445532891753     1.821799628017    -0.657220575395
    C           -2.277887387806     0.649786875306    -0.635688517233
    C           -3.398833869817    -0.353674273089    -0.599189413111
    O           -1.087144980782     0.081734671991    -0.642570261087
    H           -4.027452304612    -0.198662734233    -1.465763261905
    H           -3.032289071102    -1.367694505149    -0.586345115487
    H           -3.999381298977    -0.166386178383     0.280861394388
    C            0.051033388798     0.931964589828    -0.674550709350
    C            1.300010063091     0.068541645161    -0.623808763492
    H            0.025345537595     1.548492844531    -1.561497100954
    H            0.004598497492     1.605639609786     0.170838675075
    C            1.723645422306    -0.332421231593     0.784939960927
    H            2.101108490204     0.592207687116    -1.136146548094
    H            1.113453595725    -0.821347972415    -1.217074922380
    C            2.939970230991    -1.252928972494     0.807907095351
    H            1.939929132936     0.563036696350     1.362447163356
    H            0.890781300966    -0.823518784590     1.280594320016
    C            3.368233036919    -1.642833008627     2.218529769875
    H            3.768820320378    -0.765354374368     0.301615733712
    H            2.720419653232    -2.150736015119     0.236854127308
    H            3.628925524068    -0.767805023405     2.804500983884
    H            4.232118479449    -2.297077876268     2.199616762762
    H            2.571041786925    -2.162457965079     2.739534455105

  Mulliken Charges: (a.u.)
   Center  Symbol    Alpha    Beta     Spin     Total
       1     O     4.20223  4.20223  0.00000 -0.40446
       2     C     2.81302  2.81302  0.00000  0.37396
       3     C     3.13949  3.13949  0.00000 -0.27897
       4     O     4.14848  4.14848  0.00000 -0.29696
       5     H     0.44171  0.44171  0.00000  0.11658
       6     H     0.44228  0.44228  0.00000  0.11544
       7     H     0.44203  0.44203  0.00000  0.11594
       8     C     2.98639  2.98639  0.00000  0.02721
       9     C     3.08889  3.08889  0.00000 -0.17778
      10     H     0.44586  0.44586  0.00000  0.10828
      11     H     0.45486  0.45486  0.00000  0.09027
      12     C     3.08895  3.08895  0.00000 -0.17789
      13     H     0.44896  0.44896  0.00000  0.10207
      14     H     0.45134  0.45134  0.00000  0.09732
      15     C     3.08585  3.08585  0.00000 -0.17170
      16     H     0.45397  0.45397  0.00000  0.09205
      17     H     0.45071  0.45071  0.00000  0.09859
      18     C     3.14968  3.14968  0.00000 -0.29936
      19     H     0.45459  0.45459  0.00000  0.09082
      20     H     0.45331  0.45331  0.00000  0.09339
      21     H     0.45473  0.45473  0.00000  0.09054
      22     H     0.44792  0.44792  0.00000  0.10416
      23     H     0.45475  0.45475  0.00000  0.09051

   Total alpha = 36.00000, Total beta = 36.00000, Total charge =  0.00000
