  ==> Input File <==

--------------------------------------------------------------------------
set {
	reference rhf
	basis 6-31G*
}

set_num_threads( 4 )
memory 2 gb

molecule MOL {
0 1

H	 -2.681203	 -1.215850	 1.297959
O	 -1.850690	 -0.905753	 0.966503
C	 -2.026376	 0.340750	 0.341611
C	 -0.673256	 0.843270	 -0.132153
H	 -2.701085	 0.247497	 -0.507511
H	 -2.467244	 1.056710	 1.034207
C	 0.486613	 -0.083066	 0.235839
H	 -0.715586	 0.970948	 -1.210718
H	 -0.508072	 1.829858	 0.297090
C	 1.840406	 0.433480	 -0.254303
H	 0.300215	 -1.068318	 -0.178947
H	 0.519509	 -0.203625	 1.318070
C	 3.000220	 -0.489290	 0.118523
H	 1.809207	 0.553576	 -1.335192
H	 2.021860	 1.424500	 0.157276
H	 2.864959	 -1.479103	 -0.307933
H	 3.946603	 -0.099227	 -0.243630
H	 3.080049	 -0.602997	 1.196117

	symmetry c1
}
set optking {
	frozen_dihedral = ("
		2 3 4 8
	")
}

ee = optimize('scf')
oeprop('DIPOLE', 'QUADRUPOLE', 'MULLIKEN_CHARGES')
f=open( 'psi4out.xyz', 'w' )
f.write( "18  " )
f.write( str(ee) + "\n" )
f.write( MOL.save_string_xyz() )
f.close()
--------------------------------------------------------------------------

    Molecular point group: c1
  Charge       = 0
  Multiplicity = 1
  Basis Set: 6-31G*
  Basis Set:
  @DF-RHF Final Energy:  -271.16980255386193
    Total Energy =                       -271.1698025538619845
    Molecular point group: c1
  Basis Set: 6-31G*
  Basis Set:
  Basis Set: 6-31G*
  Basis Set:
  @DF-RHF Final Energy:  -271.17017159819386
    Total Energy =                       -271.1701715981937468
  Basis Set: 6-31G*
  Basis Set:
  Basis Set: 6-31G*
  Basis Set:
  @DF-RHF Final Energy:  -271.17123053544151
    Total Energy =                       -271.1712305354415093
  Basis Set: 6-31G*
  Basis Set:
  Basis Set: 6-31G*
  Basis Set:
  @DF-RHF Final Energy:  -271.17125787696136
    Total Energy =                       -271.1712578769611923
  Basis Set: 6-31G*
  Basis Set:
  Charge       = 0
  Multiplicity = 1
  Basis Set: 6-31G*
  Basis Set:

    Orbital Energies (a.u.)
    -----------------------

    Doubly Occupied:

       1A    -20.552298     2A    -11.268967     3A    -11.212967
       4A    -11.208476     5A    -11.203015     6A    -11.202550
       7A     -1.359032     8A     -1.070623     9A     -1.003680
      10A     -0.912677    11A     -0.817387    12A     -0.781132
      13A     -0.694651    14A     -0.656271    15A     -0.615842
      16A     -0.579759    17A     -0.571950    18A     -0.551308
      19A     -0.514361    20A     -0.499610    21A     -0.494199
      22A     -0.461503    23A     -0.459804    24A     -0.442725
      25A     -0.422559

  @DF-RHF Final Energy:  -271.17125778058352

   => Energetics <=

    Nuclear Repulsion Energy =            249.7428837252129483
    One-Electron Energy =                -862.7135902541127734
    Two-Electron Energy =                 341.7994487483165358
    DFT Exchange-Correlation Energy =       0.0000000000000000
    Empirical Dispersion Energy =           0.0000000000000000
    PCM Polarization Energy =               0.0000000000000000
    EFP Energy =                            0.0000000000000000
    Total Energy =                       -271.1712577805833462
    Molecular point group: c1
  Basis Set: 6-31G*
  Basis Set:

  -Total Gradient:
     Atom            X                  Y                   Z
    ------   -----------------  -----------------  -----------------
       1       -0.000003042212    -0.000056023322     0.000040523592
       2        0.000075209860     0.000364445832     0.000598392979
       3       -0.000101001492    -0.000175842642    -0.000767832743
       4        0.000337550148    -0.000961532985     0.000097151057
       5        0.000014174238    -0.000014850753    -0.000000442018
       6       -0.000009597206     0.000002526851    -0.000003661756
       7       -0.000080512522    -0.000088744349    -0.000170369895
       8       -0.000275453405     0.000849685493     0.000112491547
       9        0.000002903321     0.000040744479    -0.000014116855
      10        0.000022960888     0.000013986748     0.000050771316
      11        0.000014136954     0.000038873965    -0.000009419728
      12       -0.000004855110    -0.000025139820     0.000031326037
      13        0.000016354941     0.000021224428     0.000025473232
      14       -0.000010850295    -0.000032787643     0.000015795155
      15       -0.000001231136     0.000017874022    -0.000016680159
      16       -0.000008713200     0.000009650134    -0.000004752436
      17        0.000005328589     0.000001333439     0.000008325956
      18        0.000006637643    -0.000005423874     0.000007024720

  **** Optimization is complete! (in 5 steps) ****
    Final optimized geometry and variables:
    Molecular point group: c1

    Geometry (in Angstrom), charge = 0, multiplicity = 1:

    H           -2.888503051657    -1.166064371643     1.040520406931
    O           -2.026981693738    -0.897899664592     0.754626338613
    C           -2.121104466882     0.350585513617     0.114142127871
    C           -0.732428689395     0.820447520042    -0.369437296393
    H           -2.802341842812     0.281902463712    -0.730602564202
    H           -2.538188087092     1.083132785986     0.801244906438
    C            0.434772115524    -0.099826780482    -0.001746651280
    H           -0.755964967319     0.947593360022    -1.448454460152
    H           -0.537454218035     1.809202550815     0.037745439972
    C            1.775130837008     0.447409334413    -0.496654143768
    H            0.267419940724    -1.086997547137    -0.419616858698
    H            0.470689604092    -0.230769128210     1.075161266371
    C            2.953866660019    -0.455134058019    -0.133087751116
    H            1.739745472775     0.574209433401    -1.577032854598
    H            1.940129562615     1.439089669758    -0.079600841307
    H            2.836718605262    -1.444874272202    -0.565225128538
    H            3.891641063294    -0.044561978268    -0.495219377326
    H            3.038188638474    -0.574236080315     0.943394222732

  Mulliken Charges: (a.u.)
   Center  Symbol    Alpha    Beta     Spin     Total
       1     H     0.28055  0.28055  0.00000  0.43891
       2     O     4.37151  4.37151  0.00000 -0.74301
       3     C     2.99017  2.99017  0.00000  0.01966
       4     C     3.17745  3.17745  0.00000 -0.35490
       5     H     0.43002  0.43002  0.00000  0.13996
       6     H     0.43034  0.43034  0.00000  0.13932
       7     C     3.14202  3.14202  0.00000 -0.28403
       8     H     0.41996  0.41996  0.00000  0.16008
       9     H     0.42035  0.42035  0.00000  0.15931
      10     C     3.15329  3.15329  0.00000 -0.30657
      11     H     0.41472  0.41472  0.00000  0.17056
      12     H     0.41599  0.41599  0.00000  0.16802
      13     C     3.23846  3.23846  0.00000 -0.47691
      14     H     0.42530  0.42530  0.00000  0.14939
      15     H     0.42546  0.42546  0.00000  0.14908
      16     H     0.42159  0.42159  0.00000  0.15682
      17     H     0.42114  0.42114  0.00000  0.15772
      18     H     0.42170  0.42170  0.00000  0.15660

   Total alpha = 25.00000, Total beta = 25.00000, Total charge = -0.00000
