  ==> Input File <==

--------------------------------------------------------------------------
set {
	reference rhf
	basis cc-pvtz
}

set_num_threads( 4 )
memory 2 gb

molecule MOL {
0 1

H	 -3.402940	 -1.024479	 0.134363
O	 -3.113621	 -0.142218	 -0.014854
C	 -1.775048	 -0.059117	 -0.004177
C	 -0.968249	 -1.170593	 0.205898
C	 -1.209489	 1.187911	 -0.212134
H	 -1.414416	 -2.134733	 0.366512
C	 0.399141	 -1.029397	 0.206934
H	 -1.849649	 2.032064	 -0.372200
C	 0.161469	 1.312342	 -0.208092
H	 1.032541	 -1.879115	 0.367848
C	 0.981121	 0.213562	 0.000000
H	 0.601313	 2.279327	 -0.369324
C	 2.447402	 0.371303	 0.000000
O	 3.227427	 -0.521847	 0.000000
H	 2.796538	 1.409525	 0.000000

	symmetry c1
}
set optking {
	frozen_dihedral = ("
		7 11 13 14
	")
}

ee = optimize('scf')
oeprop('DIPOLE', 'QUADRUPOLE', 'MULLIKEN_CHARGES')
f=open( 'psi4out.xyz', 'w' )
f.write( "15  " )
f.write( str(ee) + "\n" )
f.write( MOL.save_string_xyz() )
f.close()
--------------------------------------------------------------------------

    Molecular point group: c1
  Charge       = 0
  Multiplicity = 1
  Basis Set: CC-PVTZ
  Basis Set:
  @DF-RHF Final Energy:  -418.44222124973271
    Total Energy =                       -418.4422212497327109
    Molecular point group: c1
  Basis Set: CC-PVTZ
  Basis Set:
  Basis Set: CC-PVTZ
  Basis Set:
  @DF-RHF Final Energy:  -418.44186847152866
    Total Energy =                       -418.4418684715286645
  Basis Set: CC-PVTZ
  Basis Set:
  Basis Set: CC-PVTZ
  Basis Set:
  @DF-RHF Final Energy:  -418.44226417921021
    Total Energy =                       -418.4422641792101558
  Basis Set: CC-PVTZ
  Basis Set:
  Basis Set: CC-PVTZ
  Basis Set:
  @DF-RHF Final Energy:  -418.44228265537686
    Total Energy =                       -418.4422826553768573
  Basis Set: CC-PVTZ
  Basis Set:
  Charge       = 0
  Multiplicity = 1
  Basis Set: CC-PVTZ
  Basis Set:

    Orbital Energies (a.u.)
    -----------------------

    Doubly Occupied:

       1A    -20.604799     2A    -20.545823     3A    -11.322823
       4A    -11.322449     5A    -11.258140     6A    -11.254726
       7A    -11.242344     8A    -11.236878     9A    -11.236572
      10A     -1.437999    11A     -1.402007    12A     -1.175244
      13A     -1.044811    14A     -1.042511    15A     -0.892103
      16A     -0.871007    17A     -0.797570    18A     -0.762527
      19A     -0.717817    20A     -0.671084    21A     -0.646509
      22A     -0.631431    23A     -0.615275    24A     -0.610843
      25A     -0.587847    26A     -0.563135    27A     -0.554329
      28A     -0.509105    29A     -0.490463    30A     -0.421686
      31A     -0.362493    32A     -0.331419

  @DF-RHF Final Energy:  -418.44228297127307

   => Energetics <=

    Nuclear Repulsion Energy =            402.2883200202108469
    One-Electron Energy =               -1367.1336710407549617
    Two-Electron Energy =                 546.4030680492710417
    DFT Exchange-Correlation Energy =       0.0000000000000000
    Empirical Dispersion Energy =           0.0000000000000000
    PCM Polarization Energy =               0.0000000000000000
    EFP Energy =                            0.0000000000000000
    Total Energy =                       -418.4422829712730163
    Molecular point group: c1
  Basis Set: CC-PVTZ
  Basis Set:

  -Total Gradient:
     Atom            X                  Y                   Z
    ------   -----------------  -----------------  -----------------
       1       -0.000002636443     0.000005976917     0.000012641379
       2       -0.000004498338     0.000009799258     0.000074502936
       3        0.000014583714    -0.000073301486    -0.000250296858
       4       -0.000027974350     0.000019785105     0.000045794424
       5        0.000025175658     0.000041660406     0.000089687362
       6        0.000003726412     0.000000956123     0.000004201061
       7       -0.000031765951     0.000361075457     0.001873488633
       8       -0.000003476195    -0.000004169831    -0.000002231065
       9       -0.000037567766     0.000021331481     0.000024370513
      10       -0.000001083619     0.000000705686    -0.000014755940
      11        0.000118887712    -0.000533035740    -0.003762804336
      12        0.000002420494    -0.000013126964    -0.000047765925
      13       -0.000089884284     0.000207948467     0.004278269836
      14        0.000043100539    -0.000039812514    -0.002336762521
      15       -0.000009007585    -0.000005792364     0.000011660501

  **** Optimization is complete! (in 5 steps) ****
    Final optimized geometry and variables:
    Molecular point group: c1

    Geometry (in Angstrom), charge = 0, multiplicity = 1:

    H           -3.402760887242    -1.024453701733     0.134566451232
    O           -3.113945427483    -0.141749259739    -0.013786766086
    C           -1.775423397318    -0.059025848333    -0.006007002179
    C           -0.968514394788    -1.170328899497     0.205924129119
    C           -1.209641854204     1.187931188596    -0.212206740196
    H           -1.415033346184    -2.133259923845     0.373110060801
    C            0.398869327612    -1.030198573788     0.202185402163
    H           -1.849218717188     2.033124430283    -0.369488593891
    C            0.161554967069     1.312805627798    -0.204579751747
    H            1.031845343664    -1.880561839828     0.361990027354
    C            0.981144990462     0.211767672591    -0.010453482375
    H            0.601017842797     2.281466136122    -0.356844787837
    C            2.447641026670     0.371848507300     0.004292390379
    O            3.228282888380    -0.520318330912     0.021682177518
    H            2.795283057050     1.410429588630    -0.020440569783

  Mulliken Charges: (a.u.)
   Center  Symbol    Alpha    Beta     Spin     Total
       1     H     0.38536  0.38536  0.00000  0.22928
       2     O     4.16626  4.16626  0.00000 -0.33253
       3     C     2.84440  2.84440  0.00000  0.31119
       4     C     3.13223  3.13223  0.00000 -0.26447
       5     C     3.10846  3.10846  0.00000 -0.21692
       6     H     0.43107  0.43107  0.00000  0.13786
       7     C     3.06754  3.06754  0.00000 -0.13508
       8     H     0.41667  0.41667  0.00000  0.16666
       9     C     3.06636  3.06636  0.00000 -0.13271
      10     H     0.40736  0.40736  0.00000  0.18528
      11     C     3.00157  3.00157  0.00000 -0.00314
      12     H     0.42150  0.42150  0.00000  0.15700
      13     C     2.91182  2.91182  0.00000  0.17636
      14     O     4.17872  4.17872  0.00000 -0.35744
      15     H     0.46067  0.46067  0.00000  0.07866

   Total alpha = 32.00000, Total beta = 32.00000, Total charge =  0.00000
