  ==> Input File <==

--------------------------------------------------------------------------
set {
	reference rhf
	basis cc-pvtz
}

set_num_threads( 4 )
memory 2 gb

molecule MOL {
0 1

H	 3.459101	 0.139266	 -0.762951
C	 2.749156	 -0.051729	 0.031265
C	 1.322304	 0.099773	 -0.484271
H	 2.929445	 -1.053887	 0.403481
H	 2.954281	 0.646699	 0.834672
C	 0.308557	 -0.162619	 0.622645
H	 1.143368	 -0.594400	 -1.295960
H	 1.169532	 1.100095	 -0.870217
N	 -1.069352	 -0.004081	 0.085342
H	 0.371632	 -1.172932	 0.991288
H	 0.400391	 0.548875	 1.426218
O	 -1.184320	 0.105431	 -1.089122
O	 -1.957125	 0.031246	 0.869914

	symmetry c1
}
set optking {
	frozen_dihedral = ("
		12 9 6 3
	")
}

ee = optimize('scf')
oeprop('DIPOLE', 'QUADRUPOLE', 'MULLIKEN_CHARGES')
f=open( 'psi4out.xyz', 'w' )
f.write( "13  " )
f.write( str(ee) + "\n" )
f.write( MOL.save_string_xyz() )
f.close()
--------------------------------------------------------------------------

    Molecular point group: c1
  Charge       = 0
  Multiplicity = 1
  Basis Set: CC-PVTZ
  Basis Set:
  @DF-RHF Final Energy:  -321.85847747602253
    Total Energy =                       -321.8584774760223581
    Molecular point group: c1
  Basis Set: CC-PVTZ
  Basis Set:
  Basis Set: CC-PVTZ
  Basis Set:
  @DF-RHF Final Energy:  -321.85787867645013
    Total Energy =                       -321.8578786764503548
  Basis Set: CC-PVTZ
  Basis Set:
  Basis Set: CC-PVTZ
  Basis Set:
  @DF-RHF Final Energy:  -321.85695553171547
    Total Energy =                       -321.8569555317156983
  Basis Set: CC-PVTZ
  Basis Set:
  Basis Set: CC-PVTZ
  Basis Set:
  @DF-RHF Final Energy:  -321.86034028664801
    Total Energy =                       -321.8603402866479541
  Basis Set: CC-PVTZ
  Basis Set:
  Basis Set: CC-PVTZ
  Basis Set:
  @DF-RHF Final Energy:  -321.86043465930743
    Total Energy =                       -321.8604346593076571
  Basis Set: CC-PVTZ
  Basis Set:
  Basis Set: CC-PVTZ
  Basis Set:
  @DF-RHF Final Energy:  -321.86052445632322
    Total Energy =                       -321.8605244563233327
  Basis Set: CC-PVTZ
  Basis Set:
  Basis Set: CC-PVTZ
  Basis Set:
  @DF-RHF Final Energy:  -321.86052861378016
    Total Energy =                       -321.8605286137803887
  Basis Set: CC-PVTZ
  Basis Set:
  Charge       = 0
  Multiplicity = 1
  Basis Set: CC-PVTZ
  Basis Set:

    Orbital Energies (a.u.)
    -----------------------

    Doubly Occupied:

       1A    -20.593640     2A    -20.587572     3A    -15.838530
       4A    -11.299133     5A    -11.246962     6A    -11.234916
       7A     -1.637253     8A     -1.421369     9A     -1.131594
      10A     -1.026633    11A     -0.884915    12A     -0.826454
      13A     -0.762859    14A     -0.753261    15A     -0.730939
      16A     -0.657062    17A     -0.607554    18A     -0.575581
      19A     -0.554499    20A     -0.522261    21A     -0.509620
      22A     -0.488579    23A     -0.474496    24A     -0.453482

  @DF-RHF Final Energy:  -321.86052893028477

   => Energetics <=

    Nuclear Repulsion Energy =            247.6288024103297403
    One-Electron Energy =                -929.3403319332153387
    Two-Electron Energy =                 359.8510005926004851
    DFT Exchange-Correlation Energy =       0.0000000000000000
    Empirical Dispersion Energy =           0.0000000000000000
    PCM Polarization Energy =               0.0000000000000000
    EFP Energy =                            0.0000000000000000
    Total Energy =                       -321.8605289302851133
    Molecular point group: c1
  Basis Set: CC-PVTZ
  Basis Set:

  -Total Gradient:
     Atom            X                  Y                   Z
    ------   -----------------  -----------------  -----------------
       1       -0.000010579682     0.000001838565    -0.000000420356
       2       -0.000001898064     0.000005423412     0.000009762276
       3        0.000001463441    -0.000106144986    -0.000039046571
       4       -0.000001264848    -0.000002449023    -0.000002741602
       5        0.000005719074     0.000001345956     0.000005426366
       6        0.000017946736     0.000166303206     0.000049064586
       7       -0.000004541506     0.000001854528     0.000017752092
       8        0.000001282000     0.000012500240    -0.000012253275
       9        0.000002375906    -0.000209868333    -0.000024912529
      10       -0.000004284657     0.000001309327     0.000000291180
      11        0.000003251173     0.000000016128    -0.000003362063
      12       -0.000009650152     0.000131819356     0.000015312598
      13        0.000000180575    -0.000003948376    -0.000014872698

  **** Optimization is complete! (in 8 steps) ****
    Final optimized geometry and variables:
    Molecular point group: c1

    Geometry (in Angstrom), charge = 0, multiplicity = 1:

    H            3.511068785420     0.121425614501    -0.736327316455
    C            2.773794306667    -0.057505234640     0.035335337676
    C            1.364835475426     0.100123700907    -0.530420584892
    H            2.936323881525    -1.057694237375     0.421885332049
    H            2.960396026288     0.644890952197     0.840209599349
    C            0.330089525907    -0.148730679078     0.547122600993
    H            1.210670123393    -0.590153472506    -1.347842852210
    H            1.234525239504     1.096381035760    -0.932887183655
    N           -1.082139921321     0.003574078339     0.082420404409
    H            0.375386998337    -1.155799084012     0.936936010603
    H            0.418375719554     0.532593919047     1.378852807562
    O           -1.291157571491     0.117367245687    -1.076574871366
    O           -1.910926058557    -0.015156688480     0.930040663131

  Mulliken Charges: (a.u.)
   Center  Symbol    Alpha    Beta     Spin     Total
       1     H     0.44125  0.44125  0.00000  0.11750
       2     C     3.15270  3.15270  0.00000 -0.30539
       3     C     3.09077  3.09077  0.00000 -0.18154
       4     H     0.45315  0.45315  0.00000  0.09371
       5     H     0.45308  0.45308  0.00000  0.09384
       6     C     3.04691  3.04691  0.00000 -0.09382
       7     H     0.43799  0.43799  0.00000  0.12402
       8     H     0.44089  0.44089  0.00000  0.11822
       9     N     3.27303  3.27303  0.00000  0.45394
      10     H     0.43416  0.43416  0.00000  0.13169
      11     H     0.43260  0.43260  0.00000  0.13481
      12     O     4.16912  4.16912  0.00000 -0.33824
      13     O     4.17437  4.17437  0.00000 -0.34874

   Total alpha = 24.00000, Total beta = 24.00000, Total charge = -0.00000
