  ==> Input File <==

--------------------------------------------------------------------------
set {
	reference rhf
	basis 6-31G*
}

set_num_threads( 1 )
memory 2 gb

molecule MOL {
0 1

H	 -3.407059	 -1.043082	 0.000000
O	 -3.119761	 -0.140267	 0.000000
C	 -1.777559	 -0.059267	 0.000000
C	 -0.991841	 -0.770310	 -0.902256
C	 -1.188063	 0.770877	 0.945210
H	 -1.456714	 -1.411528	 -1.631669
C	 0.381018	 -0.648237	 -0.855598
H	 -1.815417	 1.308869	 1.630238
C	 0.186277	 0.882499	 0.979330
H	 0.999427	 -1.190962	 -1.545612
C	 0.986566	 0.178878	 0.084857
H	 0.643602	 1.525675	 1.711614
C	 2.456216	 0.308415	 0.133447
O	 3.212313	 -0.257353	 -0.593864
H	 2.834995	 0.982862	 0.908570

	symmetry c1
}
set optking {
	frozen_dihedral = ("
		7 11 13 14
	")
}

ee = energy('scf')
oeprop('DIPOLE', 'QUADRUPOLE', 'MULLIKEN_CHARGES')
f=open( 'psi4out.xyz', 'w' )
f.write( "15  " )
f.write( str(ee) + "\n" )
f.write( MOL.save_string_xyz() )
f.close()
--------------------------------------------------------------------------

    Molecular point group: c1

    Geometry (in Angstrom), charge = 0, multiplicity = 1:

       Center              X                  Y                   Z               Mass
    ------------   -----------------  -----------------  -----------------  -----------------
           H         -3.406184994170    -1.057565671757     0.031116730797     1.007825032070
           O         -3.118886994170    -0.154750671757     0.031116730797    15.994914619560
           C         -1.776684994170    -0.073750671757     0.031116730797    12.000000000000
           C         -0.990966994170    -0.784793671757    -0.871139269203    12.000000000000
           C         -1.187188994170     0.756393328243     0.976326730797    12.000000000000
           H         -1.455839994170    -1.426011671757    -1.600552269203     1.007825032070
           C          0.381892005830    -0.662720671757    -0.824481269203    12.000000000000
           H         -1.814542994170     1.294385328243     1.661354730797     1.007825032070
           C          0.187151005830     0.868015328243     1.010446730797    12.000000000000
           H          1.000301005830    -1.205445671757    -1.514495269203     1.007825032070
           C          0.987440005830     0.164394328243     0.115973730797    12.000000000000
           H          0.644476005830     1.511191328243     1.742730730797     1.007825032070
           C          2.457090005830     0.293931328243     0.164563730797    12.000000000000
           O          3.213187005830    -0.271836671757    -0.562747269203    15.994914619560
           H          2.835869005830     0.968378328243     0.939686730797     1.007825032070

  Charge       = 0
  Multiplicity = 1
  Basis Set: 6-31G*
  Basis Set:

    Orbital Energies (a.u.)
    -----------------------

    Doubly Occupied:

       1A    -20.601257     2A    -20.558099     3A    -11.329465
       4A    -11.317621     5A    -11.259475     6A    -11.254744
       7A    -11.243162     8A    -11.241516     9A    -11.239560
      10A     -1.425359    11A     -1.398948    12A     -1.169904
      13A     -1.040676    14A     -1.037356    15A     -0.888243
      16A     -0.862099    17A     -0.795433    18A     -0.755955
      19A     -0.710955    20A     -0.666307    21A     -0.647604
      22A     -0.628891    23A     -0.618517    24A     -0.606675
      25A     -0.562799    26A     -0.553339    27A     -0.545221
      28A     -0.499822    29A     -0.482865    30A     -0.420271
      31A     -0.356173    32A     -0.333082

  @DF-RHF Final Energy:  -418.28611344585971

   => Energetics <=

    Nuclear Repulsion Energy =            401.3146826267234815
    One-Electron Energy =               -1365.0989205341368233
    Two-Electron Energy =                 545.4981244615553351
    DFT Exchange-Correlation Energy =       0.0000000000000000
    Empirical Dispersion Energy =           0.0000000000000000
    PCM Polarization Energy =               0.0000000000000000
    EFP Energy =                            0.0000000000000000
    Total Energy =                       -418.2861134458580636

  Mulliken Charges: (a.u.)
   Center  Symbol    Alpha    Beta     Spin     Total
       1     H     0.26834  0.26834  0.00000  0.46331
       2     O     4.37832  4.37832  0.00000 -0.75663
       3     C     2.79829  2.79829  0.00000  0.40342
       4     C     3.13530  3.13530  0.00000 -0.27060
       5     C     3.12431  3.12431  0.00000 -0.24861
       6     H     0.39349  0.39349  0.00000  0.21301
       7     C     3.08141  3.08141  0.00000 -0.16282
       8     H     0.38712  0.38712  0.00000  0.22575
       9     C     3.09555  3.09555  0.00000 -0.19109
      10     H     0.37503  0.37503  0.00000  0.24993
      11     C     3.06444  3.06444  0.00000 -0.12888
      12     H     0.39044  0.39044  0.00000  0.21911
      13     C     2.83056  2.83056  0.00000  0.33888
      14     O     4.25322  4.25322  0.00000 -0.50644
      15     H     0.42417  0.42417  0.00000  0.15166

   Total alpha = 32.00000, Total beta = 32.00000, Total charge =  0.00000
