                              Psi4 1.0.54 Driver

  ==> Input File <==

--------------------------------------------------------------------------
set {
	reference rhf
	basis cc-pvtz
}

set_num_threads( 4 )
memory 2 gb

molecule MOL {
0 1

H	 -0.000342	 -0.223902	 -3.352295
C	 -0.027146	 0.371068	 -2.446756
C	 0.024493	 -0.518541	 -1.216015
H	 -0.932586	 0.964979	 -2.449855
H	 0.819708	 1.049865	 -2.473332
N	 -0.042516	 0.263377	 0.000000
H	 -0.822211	 -1.197105	 -1.225584
H	 0.921114	 -1.142847	 -1.255206
C	 0.024493	 -0.518541	 1.216015
H	 0.682568	 0.950412	 0.000000
C	 0.669845	 0.269872	 2.343277
H	 -0.988159	 -0.787887	 1.497863
H	 0.565291	 -1.457750	 1.072326
H	 0.120335	 1.183566	 2.532388
H	 0.694412	 -0.314447	 3.255788
H	 1.692402	 0.538110	 2.096174

	symmetry c1
}
set optking {
	frozen_dihedral = ("
		12 9 6 3
	")
}

ee,wfn = optimize('scf', return_wfn=True)
oeprop( wfn, 'DIPOLE', 'QUADRUPOLE', 'MULLIKEN_CHARGES')
f=open( 'psi4out.xyz', 'w' )
f.write( "16  " )
f.write( str(ee) + "\n" )
f.write( MOL.save_string_xyz() )
f.close()
--------------------------------------------------------------------------

    Molecular point group: c1
  Charge       = 0
  Multiplicity = 1
  Basis Set: CC-PVTZ
  Basis Set:
  @DF-RHF Final Energy:  -212.39211689894162
    Total Energy =                       -212.3921168989416515
    Molecular point group: c1
  Basis Set: CC-PVTZ
  Basis Set:
  Basis Set: CC-PVTZ
  Basis Set:
  @DF-RHF Final Energy:  -212.39232524891406
    Total Energy =                       -212.3923252489140623
  Basis Set: CC-PVTZ
  Basis Set:
  Basis Set: CC-PVTZ
  Basis Set:
  @DF-RHF Final Energy:  -212.39235382934800
    Total Energy =                       -212.3923538293479965
  Basis Set: CC-PVTZ
  Basis Set:
  Basis Set: CC-PVTZ
  Basis Set:
  @DF-RHF Final Energy:  -212.39235521878453
    Total Energy =                       -212.3923552187844166
  Basis Set: CC-PVTZ
  Basis Set:
  Charge       = 0
  Multiplicity = 1
  Basis Set: CC-PVTZ
  Basis Set:

    Orbital Energies (a.u.)
    -----------------------

    Doubly Occupied:

       1A    -15.528160     2A    -11.238913     3A    -11.238817
       4A    -11.210096     5A    -11.206143     6A     -1.206250
       7A     -1.029911     8A     -0.964101     9A     -0.833927
      10A     -0.822765    11A     -0.655185    12A     -0.629493
      13A     -0.611255    14A     -0.588277    15A     -0.552822
      16A     -0.521857    17A     -0.508042    18A     -0.490350
      19A     -0.485409    20A     -0.472619    21A     -0.362278

  @DF-RHF Final Energy:  -212.39235530231903

   => Energetics <=

    Nuclear Repulsion Energy =            189.5667354932468527
    One-Electron Energy =                -661.6048416514477140
    Two-Electron Energy =                 259.6457508558818290
    DFT Exchange-Correlation Energy =       0.0000000000000000
    Empirical Dispersion Energy =           0.0000000000000000
    PCM Polarization Energy =               0.0000000000000000
    EFP Energy =                            0.0000000000000000
    Total Energy =                       -212.3923553023190607
    Molecular point group: c1
  Basis Set: CC-PVTZ
  Basis Set:

  -Total Gradient:
     Atom            X                  Y                   Z
    ------   -----------------  -----------------  -----------------
       1       -0.000000111634    -0.000000216834     0.000002159030
       2        0.000005596064     0.000002087097     0.000000725743
       3        0.003102268020     0.000232407811     0.000011857582
       4        0.000000578789    -0.000001226724     0.000001561004
       5        0.000001243665     0.000003565085    -0.000002935236
       6       -0.004459281338     0.000451715862     0.000535586758
       7       -0.000002476898    -0.000013427234    -0.000011900550
       8        0.000004172142    -0.000003318073    -0.000003408048
       9        0.001597601947    -0.004137241681    -0.002762755997
      10       -0.000009257563     0.000047431381     0.000023196045
      11        0.000019563228     0.000014993962     0.000005085597
      12       -0.000236253330     0.003407198609     0.002196141353
      13       -0.000006211613    -0.000002723130     0.000006264972
      14        0.000001543210     0.000000177583    -0.000002554477
      15       -0.000000959212    -0.000002261172    -0.000004912251
      16       -0.000018015477     0.000000837457     0.000005888477

  **** Optimization is complete! (in 5 steps) ****
    Final optimized geometry and variables:
    Molecular point group: c1

    Geometry (in Angstrom), charge = 0, multiplicity = 1:

    H           -0.153668542447    -0.189245191549    -3.336869579800
    C           -0.181320487933     0.400661992623    -2.427969692642
    C           -0.118090888879    -0.494744655752    -1.202273024018
    H           -1.090650006646     0.988457365212    -2.424372150853
    H            0.660605209467     1.085726909111    -2.453668052974
    N           -0.173690546200     0.281805558252     0.018991249599
    H           -0.963713367411    -1.175337755303    -1.210154303491
    H            0.778744493132    -1.117361238813    -1.249338669174
    C           -0.111215236032    -0.505815751851     1.237829608995
    H            0.571917120145     0.945605681140     0.013997337142
    C            0.516377822742     0.287839740178     2.373944272201
    H           -1.120551727534    -0.773443315336     1.534841906268
    H            0.446711057261    -1.430999909147     1.093303506018
    H           -0.023451093733     1.213812298274     2.535775141457
    H            0.496962654576    -0.280416443154     3.296137536885
    H            1.551249951043     0.533325645782     2.156381514407

  Mulliken Charges: (a.u.)
   Center  Symbol    Alpha    Beta     Spin     Total
       1     H     0.45375  0.45375  0.00000  0.09250
       2     C     3.14270  3.14270  0.00000 -0.28540
       3     C     3.02293  3.02293  0.00000 -0.04586
       4     H     0.44934  0.44934  0.00000  0.10133
       5     H     0.45969  0.45969  0.00000  0.08063
       6     N     3.63523  3.63523  0.00000 -0.27045
       7     H     0.45819  0.45819  0.00000  0.08361
       8     H     0.47309  0.47309  0.00000  0.05382
       9     C     3.01705  3.01705  0.00000 -0.03410
      10     H     0.44764  0.44764  0.00000  0.10471
      11     C     3.14835  3.14835  0.00000 -0.29670
      12     H     0.45876  0.45876  0.00000  0.08249
      13     H     0.47387  0.47387  0.00000  0.05226
      14     H     0.44917  0.44917  0.00000  0.10166
      15     H     0.45081  0.45081  0.00000  0.09837
      16     H     0.45943  0.45943  0.00000  0.08114

   Total alpha = 21.00000, Total beta = 21.00000, Total charge = -0.00000

*** Psi4 exiting successfully. Buy a developer a beer!
