                              Psi4 1.0.54 Driver

  ==> Input File <==

--------------------------------------------------------------------------
set {
	reference rhf
	basis cc-pvtz
}

set_num_threads( 4 )
memory 2 gb

molecule MOL {
0 1

O	 2.868453	 1.353349	 -0.000734
C	 2.841259	 0.166180	 -0.000295
C	 1.542794	 -0.614730	 -0.000853
C	 4.113372	 -0.651103	 0.000743
C	 0.288398	 0.247429	 0.000314
H	 1.557171	 -1.273139	 -0.866508
H	 1.557484	 -1.274998	 0.863344
C	 0.273339	 1.262761	 -1.138978
H	 0.210524	 0.760422	 0.952096
H	 -0.583447	 -0.393401	 -0.065698
C	 -0.979327	 2.134000	 -1.148988
H	 1.151774	 1.900382	 -1.067797
H	 0.353764	 0.741292	 -2.090221
C	 -1.001719	 3.152348	 -2.285298
H	 -1.060460	 2.655854	 -0.198620
H	 -1.857920	 1.497580	 -1.220907
C	 -2.256430	 4.019228	 -2.288632
H	 -0.124468	 3.789699	 -2.213514
H	 -0.921953	 2.631518	 -3.235714
H	 -2.346867	 4.580101	 -1.364357
H	 -2.240723	 4.730469	 -3.106501
H	 -3.150208	 3.413403	 -2.394371
H	 4.145311	 -1.294584	 -0.871587
H	 4.970080	 0.004978	 -0.000091
H	 4.145223	 -1.291980	 0.874988

	symmetry c1
}
set optking {
	frozen_dihedral = ("
		9 5 3 6
	")
}

ee,wfn = optimize('scf', return_wfn=True)
oeprop( wfn, 'DIPOLE', 'QUADRUPOLE', 'MULLIKEN_CHARGES')
f=open( 'psi4out.xyz', 'w' )
f.write( "25  " )
f.write( str(ee) + "\n" )
f.write( MOL.save_string_xyz() )
f.close()
--------------------------------------------------------------------------

    Molecular point group: c1
  Charge       = 0
  Multiplicity = 1
  Basis Set: CC-PVTZ
  Basis Set:
  @DF-RHF Final Energy:  -387.26800554317344
    Total Energy =                       -387.2680055431735582
    Molecular point group: c1
  Basis Set: CC-PVTZ
  Basis Set:
  Basis Set: CC-PVTZ
  Basis Set:
  @DF-RHF Final Energy:  -387.27198156441978
    Total Energy =                       -387.2719815644197752
  Basis Set: CC-PVTZ
  Basis Set:
  Basis Set: CC-PVTZ
  Basis Set:
  @DF-RHF Final Energy:  -387.27178449534921
    Total Energy =                       -387.2717844953488111
  Basis Set: CC-PVTZ
  Basis Set:
  Basis Set: CC-PVTZ
  Basis Set:
  @DF-RHF Final Energy:  -387.27214032388395
    Total Energy =                       -387.2721403238837183
  Basis Set: CC-PVTZ
  Basis Set:
  @DF-RHF Final Energy:  -387.27298629765414
    Total Energy =                       -387.2729862976542563
  @DF-RHF Final Energy:  -387.27311199963430
    Total Energy =                       -387.2731119996340112
  @DF-RHF Final Energy:  -387.27316236306206
    Total Energy =                       -387.2731623630625108
  Basis Set: CC-PVTZ
  Basis Set:
  @DF-RHF Final Energy:  -387.27317091449510
    Total Energy =                       -387.2731709144952674
  Basis Set: CC-PVTZ
  Basis Set:
  Basis Set: CC-PVTZ
  Basis Set:
  @DF-RHF Final Energy:  -387.27317354907865
    Total Energy =                       -387.2731735490781375
  Basis Set: CC-PVTZ
  Basis Set:
  Basis Set: CC-PVTZ
  Basis Set:
  @DF-RHF Final Energy:  -387.27317455572836
    Total Energy =                       -387.2731745557285876
  Basis Set: CC-PVTZ
  Basis Set:
  Charge       = 0
  Multiplicity = 1
  Basis Set: CC-PVTZ
  Basis Set:

    Orbital Energies (a.u.)
    -----------------------

    Doubly Occupied:

       1A    -20.538483     2A    -11.321593     3A    -11.230842
       4A    -11.227235     5A    -11.217487     6A    -11.209992
       7A    -11.208614     8A    -11.208004     9A    -11.203879
      10A     -1.399207    11A     -1.092269    12A     -1.056053
      13A     -1.014683    14A     -0.968930    15A     -0.890078
      16A     -0.816739    17A     -0.788541    18A     -0.727973
      19A     -0.669114    20A     -0.639487    21A     -0.632345
      22A     -0.625666    23A     -0.594570    24A     -0.585915
      25A     -0.571562    26A     -0.559166    27A     -0.535511
      28A     -0.527957    29A     -0.515917    30A     -0.498473
      31A     -0.483758    32A     -0.474904    33A     -0.460934
      34A     -0.459338    35A     -0.441722    36A     -0.401740

  @DF-RHF Final Energy:  -387.27317473838104

   => Energetics <=

    Nuclear Repulsion Energy =            449.0409362119627303
    One-Electron Energy =               -1415.0308635820479140
    Two-Electron Energy =                 578.7167526317042530
    DFT Exchange-Correlation Energy =       0.0000000000000000
    Empirical Dispersion Energy =           0.0000000000000000
    PCM Polarization Energy =               0.0000000000000000
    EFP Energy =                            0.0000000000000000
    Total Energy =                       -387.2731747383809306
    Molecular point group: c1
  Basis Set: CC-PVTZ
  Basis Set:

  -Total Gradient:
     Atom            X                  Y                   Z
    ------   -----------------  -----------------  -----------------
       1        0.000001201443    -0.000019790381     0.000001581001
       2       -0.000005428525     0.000004876688    -0.000004917291
       3        0.001929340504     0.002246055992    -0.001881032046
       4       -0.000019341109    -0.000003804553     0.000010899999
       5        0.002048598803     0.002465999593    -0.001018984566
       6       -0.001898577227    -0.002246643964     0.001722921214
       7       -0.000009888501     0.000004199898    -0.000012486743
       8       -0.000004012148    -0.000009287441    -0.000017265244
       9       -0.002042295885    -0.002445608949     0.001189781747
      10       -0.000003143436    -0.000002461038     0.000014595738
      11       -0.000001985740     0.000006695714     0.000008745321
      12       -0.000004297756    -0.000002558628     0.000000611104
      13        0.000001884247     0.000005798572    -0.000001663391
      14       -0.000008692686    -0.000011781779    -0.000013857488
      15        0.000000894121    -0.000001048014     0.000001920622
      16        0.000003772298     0.000002616101    -0.000001843727
      17        0.000003128152     0.000002960743     0.000006981780
      18       -0.000005409883    -0.000003717873     0.000002365642
      19        0.000002328607    -0.000000253188    -0.000002820984
      20       -0.000003275867    -0.000001278062    -0.000000431062
      21        0.000003042470    -0.000000036190     0.000002431519
      22        0.000003002411     0.000000021175    -0.000001327300
      23        0.000004960157    -0.000001940027     0.000002329010
      24        0.000004852939     0.000003278862    -0.000002313000
      25       -0.000000657389     0.000007706749    -0.000006221849

  **** Optimization is complete! (in 11 steps) ****
    Final optimized geometry and variables:
    Molecular point group: c1

    Geometry (in Angstrom), charge = 0, multiplicity = 1:

    O            2.088118123434    -0.103723110822     1.384136558112
    C            1.954464148877    -1.200963956887     0.949500692729
    C            0.591434241721    -1.837529868275     0.769902616835
    C            3.145408590776    -2.054973486978     0.582693301827
    C           -0.593590347011    -0.877580086845     0.712939641591
    H            0.596977429497    -2.502424273406    -0.088547790168
    H            0.475295893742    -2.498714835681     1.627972663288
    C           -0.563119732411     0.108845264489    -0.451379141835
    H           -0.674592702388    -0.352494583846     1.657419986664
    H           -1.492993056594    -1.482848641476     0.634339146087
    C           -1.805626189379     0.993027050377    -0.508935994375
    H            0.317597099603     0.734533195922    -0.375206358093
    H           -0.476091873694    -0.444856877796    -1.384673727096
    C           -1.790559544195     1.982520119351    -1.670523835325
    H           -1.896593201817     1.540965113892     0.425698738002
    H           -2.692800043718     0.367919470000    -0.583172626641
    C           -3.032092293968     2.866716705319    -1.721163978834
    H           -0.905742751192     2.608283371563    -1.595754249593
    H           -1.699327824340     1.436865019972    -2.606013166227
    H           -3.132565617242     3.451915403275    -0.813139109209
    H           -2.989374587915     3.557088874363    -2.555847813295
    H           -3.932776716897     2.271492738394    -1.830339034510
    H            3.182203444778    -2.171673053956    -0.495585675766
    H            4.055505315619    -1.585758714710     0.923614419420
    H            3.054431744355    -3.046729728246     1.011016398321

  Mulliken Charges: (a.u.)
   Center  Symbol    Alpha    Beta     Spin     Total
       1     O     4.17478  4.17478  0.00000 -0.34956
       2     C     2.85647  2.85647  0.00000  0.28705
       3     C     3.12613  3.12613  0.00000 -0.25227
       4     C     3.15172  3.15172  0.00000 -0.30344
       5     C     3.08893  3.08893  0.00000 -0.17785
       6     H     0.44211  0.44211  0.00000  0.11577
       7     H     0.43590  0.43590  0.00000  0.12820
       8     C     3.09385  3.09385  0.00000 -0.18770
       9     H     0.44581  0.44581  0.00000  0.10838
      10     H     0.44840  0.44840  0.00000  0.10320
      11     C     3.08809  3.08809  0.00000 -0.17617
      12     H     0.44033  0.44033  0.00000  0.11935
      13     H     0.45907  0.45907  0.00000  0.08187
      14     C     3.08343  3.08343  0.00000 -0.16686
      15     H     0.45303  0.45303  0.00000  0.09394
      16     H     0.45663  0.45663  0.00000  0.08675
      17     C     3.15076  3.15076  0.00000 -0.30152
      18     H     0.45293  0.45293  0.00000  0.09414
      19     H     0.45624  0.45624  0.00000  0.08753
      20     H     0.45461  0.45461  0.00000  0.09077
      21     H     0.44878  0.44878  0.00000  0.10245
      22     H     0.45606  0.45606  0.00000  0.08788
      23     H     0.44933  0.44933  0.00000  0.10135
      24     H     0.43604  0.43604  0.00000  0.12792
      25     H     0.45058  0.45058  0.00000  0.09883

   Total alpha = 36.00000, Total beta = 36.00000, Total charge = -0.00000

*** Psi4 exiting successfully. Buy a developer a beer!
