                              Psi4 1.0.54 Driver

  ==> Input File <==

--------------------------------------------------------------------------
set {
	reference rhf
	basis cc-pvtz
}

set_num_threads( 4 )
memory 2 gb

molecule MOL {
0 1

H	 0.775538	 -3.725304	 -4.049714
C	 0.994599	 -3.076232	 -3.224589
C	 0.254156	 -3.151175	 -2.053281
C	 2.013452	 -2.156109	 -3.309367
H	 -0.544903	 -3.863135	 -1.968724
C	 0.531420	 -2.321487	 -0.993674
H	 2.597315	 -2.083337	 -4.207419
C	 2.306906	 -1.310469	 -2.248619
H	 -0.034578	 -2.371309	 -0.084370
C	 1.563104	 -1.393172	 -1.085865
H	 3.106097	 -0.605311	 -2.346123
O	 1.760432	 -0.625184	 0.000000
C	 2.773565	 0.334879	 0.000000
H	 2.728295	 0.960928	 -0.884150
H	 3.706387	 -0.206610	 0.000000
H	 2.728295	 0.960928	 0.884150

	symmetry c1
}
set optking {
	frozen_dihedral = ("
		10 12 13 14
	")
}

ee,wfn = optimize('scf', return_wfn=True)
oeprop( wfn, 'DIPOLE', 'QUADRUPOLE', 'MULLIKEN_CHARGES')
f=open( 'psi4out.xyz', 'w' )
f.write( "16  " )
f.write( str(ee) + "\n" )
f.write( MOL.save_string_xyz() )
f.close()
--------------------------------------------------------------------------

    Molecular point group: c1
  Charge       = 0
  Multiplicity = 1
  Basis Set: CC-PVTZ
  Basis Set:
  @DF-RHF Final Energy:  -344.70150213907931
    Total Energy =                       -344.7015021390794232
    Molecular point group: c1
  Basis Set: CC-PVTZ
  Basis Set:
  Basis Set: CC-PVTZ
  Basis Set:
  @DF-RHF Final Energy:  -344.70288146958654
    Total Energy =                       -344.7028814695863730
  Basis Set: CC-PVTZ
  Basis Set:
  Basis Set: CC-PVTZ
  Basis Set:
  @DF-RHF Final Energy:  -344.70344187472415
    Total Energy =                       -344.7034418747239215
  Basis Set: CC-PVTZ
  Basis Set:
  Basis Set: CC-PVTZ
  Basis Set:
  @DF-RHF Final Energy:  -344.70346202805558
    Total Energy =                       -344.7034620280554691
  Basis Set: CC-PVTZ
  Basis Set:
  Basis Set: CC-PVTZ
  Basis Set:
  @DF-RHF Final Energy:  -344.70346507434283
    Total Energy =                       -344.7034650743424891
  Basis Set: CC-PVTZ
  Basis Set:
  Charge       = 0
  Multiplicity = 1
  Basis Set: CC-PVTZ
  Basis Set:

    Orbital Energies (a.u.)
    -----------------------

    Doubly Occupied:

       1A    -20.580205     2A    -11.293712     3A    -11.278522
       4A    -11.231262     5A    -11.230004     6A    -11.221874
       7A    -11.218012     8A    -11.216947     9A     -1.419668
      10A     -1.150961    11A     -1.025697    12A     -1.016669
      13A     -0.944298    14A     -0.834613    15A     -0.808361
      16A     -0.726298    17A     -0.667881    18A     -0.666419
      19A     -0.660350    20A     -0.619466    21A     -0.590324
      22A     -0.579916    23A     -0.527972    24A     -0.523616
      25A     -0.512533    26A     -0.479526    27A     -0.466649
      28A     -0.339771    29A     -0.310114

  @DF-RHF Final Energy:  -344.70346542424471

   => Energetics <=

    Nuclear Repulsion Energy =            348.8865153199486144
    One-Electron Energy =               -1158.8966812938954263
    Two-Electron Energy =                 465.3067005497023274
    DFT Exchange-Correlation Energy =       0.0000000000000000
    Empirical Dispersion Energy =           0.0000000000000000
    PCM Polarization Energy =               0.0000000000000000
    EFP Energy =                            0.0000000000000000
    Total Energy =                       -344.7034654242445413
    Molecular point group: c1
  Basis Set: CC-PVTZ
  Basis Set:

  -Total Gradient:
     Atom            X                  Y                   Z
    ------   -----------------  -----------------  -----------------
       1       -0.000001921082    -0.000004800967     0.000004620977
       2        0.000036748045     0.000038286668    -0.000037689257
       3       -0.000006991403     0.000010344844     0.000064934514
       4       -0.000035644793    -0.000053662706    -0.000026025788
       5       -0.000001904672    -0.000000110051    -0.000005173652
       6       -0.000023673220    -0.000073446122    -0.000024670458
       7        0.000002145913     0.000001679792     0.000003244979
       8        0.000009790896     0.000010247533     0.000067295287
       9        0.000000239368     0.000005609160    -0.000002078851
      10       -0.000951111261     0.000935484354    -0.000394749106
      11       -0.000000272829    -0.000005723481    -0.000003921519
      12        0.001704576968    -0.001578728109     0.000291370336
      13       -0.001678884205     0.001563553966     0.000909469722
      14        0.000966774271    -0.000847467250    -0.000839654700
      15       -0.000035903465    -0.000001341550    -0.000000168788
      16        0.000016031472     0.000000073918    -0.000006803696

  **** Optimization is complete! (in 6 steps) ****
    Final optimized geometry and variables:
    Molecular point group: c1

    Geometry (in Angstrom), charge = 0, multiplicity = 1:

    H           -0.847206059743    -2.027924253290    -2.519737938427
    C           -0.603452105441    -1.399562587611    -1.685532759979
    C           -1.344150675636    -1.465532531682    -0.513952619658
    C            0.448778812100    -0.516650546160    -1.758329374405
    H           -2.168480211844    -2.149167922773    -0.438657093897
    C           -1.036426638937    -0.661266110050     0.556916333066
    H            1.035516736006    -0.453843813027    -2.655257549962
    C            0.774274790628     0.301343629746    -0.685459416240
    H           -1.602961336990    -0.703569053813     1.466265748256
    C            0.027094586969     0.231268715795     0.475914244892
    H            1.603857221360     0.972410785912    -0.770305645091
    O            0.260593734164     0.969132672839     1.575626520266
    C            1.191718357630     2.009002506064     1.534999364142
    H            1.020127029826     2.664967643543     0.689702541247
    H            2.206128104075     1.628028291453     1.482270841452
    H            1.072647291665     2.565135480880     2.451341683329

  Mulliken Charges: (a.u.)
   Center  Symbol    Alpha    Beta     Spin     Total
       1     H     0.42441  0.42441  0.00000  0.15118
       2     C     3.10078  3.10078  0.00000 -0.20156
       3     C     3.05811  3.05811  0.00000 -0.11622
       4     C     3.06173  3.06173  0.00000 -0.12346
       5     H     0.42299  0.42299  0.00000  0.15402
       6     C     3.11133  3.11133  0.00000 -0.22266
       7     H     0.42357  0.42357  0.00000  0.15286
       8     C     3.14310  3.14310  0.00000 -0.28620
       9     H     0.42086  0.42086  0.00000  0.15828
      10     C     2.85081  2.85081  0.00000  0.29838
      11     H     0.42267  0.42267  0.00000  0.15466
      12     O     4.15152  4.15152  0.00000 -0.30303
      13     C     3.04448  3.04448  0.00000 -0.08896
      14     H     0.46319  0.46319  0.00000  0.07362
      15     H     0.46139  0.46139  0.00000  0.07723
      16     H     0.43907  0.43907  0.00000  0.12186

   Total alpha = 29.00000, Total beta = 29.00000, Total charge = -0.00000

*** Psi4 exiting successfully. Buy a developer a beer!
