  ==> Input File <==

--------------------------------------------------------------------------
set {
	reference rhf
	basis 6-31G*
}

set_num_threads( 1 )
memory 2 gb

molecule MOL {
0 1

O	 -2.828148	 1.295663	 -0.172933
C	 -2.668563	 0.129746	 -0.000350
C	 -3.792389	 -0.844980	 0.240883
O	 -1.481751	 -0.454642	 0.000584
H	 -4.474266	 -0.804879	 -0.600128
H	 -3.429677	 -1.853803	 0.371859
H	 -4.340228	 -0.533160	 1.122087
C	 -0.334255	 0.388708	 0.000906
C	 0.891947	 -0.504646	 0.000751
H	 -0.365390	 1.025305	 -0.873475
H	 -0.365484	 1.024911	 0.875569
C	 2.191998	 0.301789	 0.000897
H	 0.855148	 -1.151283	 -0.871571
H	 0.855132	 -1.151660	 0.872805
C	 3.441114	 -0.581407	 0.000108
H	 2.215074	 0.954890	 -0.869742
H	 2.215465	 0.953923	 0.872248
C	 4.739576	 0.224112	 -0.001102
H	 3.419457	 -1.233487	 -0.870178
H	 3.420834	 -1.233096	 0.870717
H	 4.804918	 0.861552	 -0.878265
H	 5.606527	 -0.429058	 -0.001824
H	 4.806469	 0.861674	 0.875853

	symmetry c1
}
set optking {
	frozen_dihedral = ("
		13 9 8 10,
		2 4 8 10,
		16 12 9 13,
		19 15 12 16
	")
}

ee = energy('scf')
oeprop('DIPOLE', 'QUADRUPOLE', 'MULLIKEN_CHARGES')
f=open( 'psi4out.xyz', 'w' )
f.write( "23  " )
f.write( str(ee) + "\n" )
f.write( MOL.save_string_xyz() )
f.close()
--------------------------------------------------------------------------

    Molecular point group: c1

    Geometry (in Angstrom), charge = 0, multiplicity = 1:

       Center              X                  Y                   Z               Mass
    ------------   -----------------  -----------------  -----------------  -----------------
           O         -2.828453740120     1.295028403866    -0.181014317062    15.994914619560
           C         -2.668868740120     0.129111403866    -0.008431317062    12.000000000000
           C         -3.792694740120    -0.845614596134     0.232801682938    12.000000000000
           O         -1.482056740120    -0.455276596134    -0.007497317062    15.994914619560
           H         -4.474571740120    -0.805513596134    -0.608209317062     1.007825032070
           H         -3.429982740120    -1.854437596134     0.363777682938     1.007825032070
           H         -4.340533740120    -0.533794596134     1.114005682938     1.007825032070
           C         -0.334560740120     0.388073403866    -0.007175317062    12.000000000000
           C          0.891641259880    -0.505280596134    -0.007330317062    12.000000000000
           H         -0.365695740120     1.024670403866    -0.881556317062     1.007825032070
           H         -0.365789740120     1.024276403866     0.867487682938     1.007825032070
           C          2.191692259880     0.301154403866    -0.007184317062    12.000000000000
           H          0.854842259880    -1.151917596134    -0.879652317062     1.007825032070
           H          0.854826259880    -1.152294596134     0.864723682938     1.007825032070
           C          3.440808259880    -0.582041596134    -0.007973317062    12.000000000000
           H          2.214768259880     0.954255403866    -0.877823317062     1.007825032070
           H          2.215159259880     0.953288403866     0.864166682938     1.007825032070
           C          4.739270259880     0.223477403866    -0.009183317062    12.000000000000
           H          3.419151259880    -1.234121596134    -0.878259317062     1.007825032070
           H          3.420528259880    -1.233730596134     0.862635682938     1.007825032070
           H          4.804612259880     0.860917403866    -0.886346317062     1.007825032070
           H          5.606221259880    -0.429692596134    -0.009905317062     1.007825032070
           H          4.806163259880     0.861039403866     0.867771682938     1.007825032070

  Charge       = 0
  Multiplicity = 1
  Basis Set: 6-31G*
  Basis Set:

    Orbital Energies (a.u.)
    -----------------------

    Doubly Occupied:

       1A    -20.602385     2A    -20.540738     3A    -11.374149
       4A    -11.281771     5A    -11.232367     6A    -11.224522
       7A    -11.223902     8A    -11.221762     9A    -11.213022
      10A     -1.467792    11A     -1.360790    12A     -1.094308
      13A     -1.042207    14A     -1.003514    15A     -0.931053
      16A     -0.841730    17A     -0.802801    18A     -0.774457
      19A     -0.692754    20A     -0.684625    21A     -0.667580
      22A     -0.646781    23A     -0.606327    24A     -0.588522
      25A     -0.582257    26A     -0.567023    27A     -0.558441
      28A     -0.538115    29A     -0.522497    30A     -0.504962
      31A     -0.491172    32A     -0.478031    33A     -0.471251
      34A     -0.465959    35A     -0.450985    36A     -0.435065

  @DF-RHF Final Energy:  -422.97883577370999

   => Energetics <=

    Nuclear Repulsion Energy =            449.6013582242577513
    One-Electron Energy =               -1466.7891511990767412
    Two-Electron Energy =                 594.2089572011075234
    DFT Exchange-Correlation Energy =       0.0000000000000000
    Empirical Dispersion Energy =           0.0000000000000000
    PCM Polarization Energy =               0.0000000000000000
    EFP Energy =                            0.0000000000000000
    Total Energy =                       -422.9788357737114666

  Mulliken Charges: (a.u.)
   Center  Symbol    Alpha    Beta     Spin     Total
       1     O     4.28335  4.28335  0.00000 -0.56670
       2     C     2.61525  2.61525  0.00000  0.76950
       3     C     3.28801  3.28801  0.00000 -0.57601
       4     O     4.31294  4.31294  0.00000 -0.62588
       5     H     0.39751  0.39751  0.00000  0.20498
       6     H     0.39987  0.39987  0.00000  0.20026
       7     H     0.39749  0.39749  0.00000  0.20501
       8     C     2.99583  2.99583  0.00000  0.00835
       9     C     3.16481  3.16481  0.00000 -0.32961
      10     H     0.40839  0.40839  0.00000  0.18322
      11     H     0.41293  0.41293  0.00000  0.17415
      12     C     3.16004  3.16004  0.00000 -0.32007
      13     H     0.41370  0.41370  0.00000  0.17261
      14     H     0.41465  0.41465  0.00000  0.17071
      15     C     3.15144  3.15144  0.00000 -0.30287
      16     H     0.42047  0.42047  0.00000  0.15905
      17     H     0.42108  0.42108  0.00000  0.15783
      18     C     3.23987  3.23987  0.00000 -0.47975
      19     H     0.42127  0.42127  0.00000  0.15747
      20     H     0.42147  0.42147  0.00000  0.15706
      21     H     0.42075  0.42075  0.00000  0.15850
      22     H     0.41798  0.41798  0.00000  0.16405
      23     H     0.42092  0.42092  0.00000  0.15815

   Total alpha = 36.00000, Total beta = 36.00000, Total charge = -0.00000
