                              Psi4 1.0.54 Driver

  ==> Input File <==

--------------------------------------------------------------------------
set {
	reference rhf
	basis cc-pvtz
}

set_num_threads( 4 )
memory 2 gb

molecule MOL {
0 1

H	 0.201311	 1.741324	 0.844935
C	 1.030738	 1.113899	 0.539082
N	 0.526300	 -0.128137	 0.000000
H	 1.633309	 0.915594	 1.416364
H	 1.634853	 1.685858	 -0.168364
C	 -0.247113	 0.037112	 -1.209233
H	 1.280396	 -0.759531	 -0.162297
H	 -0.996493	 -0.743733	 -1.271440
H	 0.397975	 -0.057351	 -2.073512
H	 -0.763794	 0.997171	 -1.271673

	symmetry c1
}
set optking {
	frozen_dihedral = ("
		2 3 6 8
	")
}

ee,wfn = optimize('scf', return_wfn=True)
oeprop( wfn, 'DIPOLE', 'QUADRUPOLE', 'MULLIKEN_CHARGES')
f=open( 'psi4out.xyz', 'w' )
f.write( "10  " )
f.write( str(ee) + "\n" )
f.write( MOL.save_string_xyz() )
f.close()
--------------------------------------------------------------------------

    Molecular point group: c1
  Charge       = 0
  Multiplicity = 1
  Basis Set: CC-PVTZ
  Basis Set:
  @DF-RHF Final Energy:  -134.28879792196295
    Total Energy =                       -134.2887979219629813
    Molecular point group: c1
  Basis Set: CC-PVTZ
  Basis Set:
  Basis Set: CC-PVTZ
  Basis Set:
  @DF-RHF Final Energy:  -134.29020095297301
    Total Energy =                       -134.2902009529729526
  Basis Set: CC-PVTZ
  Basis Set:
  Basis Set: CC-PVTZ
  Basis Set:
  @DF-RHF Final Energy:  -134.29039465568491
    Total Energy =                       -134.2903946556849917
  Basis Set: CC-PVTZ
  Basis Set:
  Basis Set: CC-PVTZ
  Basis Set:
  @DF-RHF Final Energy:  -134.29040870706416
    Total Energy =                       -134.2904087070641310
  Basis Set: CC-PVTZ
  Basis Set:
  Charge       = 0
  Multiplicity = 1
  Basis Set: CC-PVTZ
  Basis Set:

    Orbital Energies (a.u.)
    -----------------------

    Doubly Occupied:

       1A    -15.529760     2A    -11.234375     3A    -11.233730
       4A     -1.197582     5A     -0.947954     6A     -0.855567
       7A     -0.661733     8A     -0.609921     9A     -0.590188
      10A     -0.543188    11A     -0.512160    12A     -0.506841
      13A     -0.358957

  @DF-RHF Final Energy:  -134.29041026854409

   => Energetics <=

    Nuclear Repulsion Energy =             84.5988226749080070
    One-Electron Energy =                -348.2145522730222638
    Two-Electron Energy =                 129.3253193295702204
    DFT Exchange-Correlation Energy =       0.0000000000000000
    Empirical Dispersion Energy =           0.0000000000000000
    PCM Polarization Energy =               0.0000000000000000
    EFP Energy =                            0.0000000000000000
    Total Energy =                       -134.2904102685440648
    Molecular point group: c1
  Basis Set: CC-PVTZ
  Basis Set:

  -Total Gradient:
     Atom            X                  Y                   Z
    ------   -----------------  -----------------  -----------------
       1       -0.000001432214    -0.000013221143     0.000001220572
       2       -0.002473389520     0.000543028799     0.001693049639
       3        0.002927928849    -0.000069840948    -0.001826973214
       4       -0.000006551574    -0.000005985580    -0.000006702005
       5       -0.000003841655    -0.000024300587     0.000005095797
       6        0.002088911750    -0.002943656426    -0.001825750702
       7       -0.000033184535     0.000022880839    -0.000023729873
       8       -0.002454742710     0.002459966716     0.001901966139
       9       -0.000016047023     0.000008667044     0.000061989193
      10       -0.000027651369     0.000022461286     0.000019834454

  **** Optimization is complete! (in 5 steps) ****
    Final optimized geometry and variables:
    Molecular point group: c1

    Geometry (in Angstrom), charge = 0, multiplicity = 1:

    H           -0.182484330521     1.433277196285     1.049048700318
    C            0.620913995566     0.770042220007     0.751558448909
    N            0.067960068119    -0.465957385663     0.248865548474
    H            1.221009414186     0.568123485742     1.629978264557
    H            1.245334682255     1.305359937356     0.032790568155
    C           -0.717942337939    -0.335532887518    -0.960310837399
    H            0.778689524416    -1.154218035750     0.138957333577
    H           -1.491327333886    -1.093629778083    -0.996046788882
    H           -0.131523249483    -0.378674731160    -1.876967797848
    H           -1.228659847576     0.620308868722    -0.950006453036

  Mulliken Charges: (a.u.)
   Center  Symbol    Alpha    Beta     Spin     Total
       1     H     0.45693  0.45693  0.00000  0.08614
       2     C     3.07993  3.07993  0.00000 -0.15986
       3     N     3.63407  3.63407  0.00000 -0.26813
       4     H     0.45302  0.45302  0.00000  0.09397
       5     H     0.47555  0.47555  0.00000  0.04889
       6     C     3.08086  3.08086  0.00000 -0.16172
       7     H     0.43909  0.43909  0.00000  0.12181
       8     H     0.45334  0.45334  0.00000  0.09332
       9     H     0.46741  0.46741  0.00000  0.06518
      10     H     0.45980  0.45980  0.00000  0.08040

   Total alpha = 13.00000, Total beta = 13.00000, Total charge = -0.00000

*** Psi4 exiting successfully. Buy a developer a beer!
