  ==> Input File <==

--------------------------------------------------------------------------
set {
	reference rhf
	basis 6-31G*
}

set_num_threads( 4 )
memory 2 gb

molecule MOL {
0 1

O	 2.862325	 1.357334	 0.000267
C	 2.843464	 0.164689	 -0.000222
C	 1.546494	 -0.624492	 -0.000609
C	 4.124123	 -0.644674	 -0.000428
C	 0.291004	 0.242674	 0.000989
H	 1.557904	 -1.283758	 -0.867573
H	 1.558622	 -1.285963	 0.864672
C	 -0.994322	 -0.586602	 0.000262
H	 0.309117	 0.896430	 -0.865270
H	 0.309661	 0.894078	 0.869017
C	 -2.259874	 0.272531	 0.000494
H	 -1.004862	 -1.240012	 -0.870939
H	 -1.005220	 -1.241071	 0.870675
C	 -2.041107	 1.672779	 -0.575231
H	 -2.636424	 0.357518	 1.018338
H	 -3.037404	 -0.232755	 -0.569708
C	 -3.309719	 2.525008	 -0.571405
H	 -1.264923	 2.179295	 -0.005315
H	 -1.666131	 1.589141	 -1.593198
H	 -3.691011	 2.655774	 0.437390
H	 -3.122740	 3.511418	 -0.984607
H	 -4.094694	 2.062036	 -1.162688
H	 4.165367	 -1.288615	 -0.874074
H	 4.976217	 0.020734	 -0.001915
H	 4.166763	 -1.286207	 0.874930

	symmetry c1
}
set optking {
	frozen_dihedral = ("
		15 11 8 12
	")
}

ee = optimize('scf')
oeprop('DIPOLE', 'QUADRUPOLE', 'MULLIKEN_CHARGES')
f=open( 'psi4out.xyz', 'w' )
f.write( "25  " )
f.write( str(ee) + "\n" )
f.write( MOL.save_string_xyz() )
f.close()
--------------------------------------------------------------------------

    Molecular point group: c1
  Charge       = 0
  Multiplicity = 1
  Basis Set: 6-31G*
  Basis Set:
  @DF-RHF Final Energy:  -387.12647052551608
    Total Energy =                       -387.1264705255163108
    Molecular point group: c1
  Basis Set: 6-31G*
  Basis Set:
  Basis Set: 6-31G*
  Basis Set:
  @DF-RHF Final Energy:  -387.12752988654654
    Total Energy =                       -387.1275298865471086
  Basis Set: 6-31G*
  Basis Set:
  Basis Set: 6-31G*
  Basis Set:
  @DF-RHF Final Energy:  -387.12981347654636
    Total Energy =                       -387.1298134765469285
  Basis Set: 6-31G*
  Basis Set:
  Basis Set: 6-31G*
  Basis Set:
  @DF-RHF Final Energy:  -387.13005160846978
    Total Energy =                       -387.1300516084701258
  Basis Set: 6-31G*
  Basis Set:
  @DF-RHF Final Energy:  -387.13001546686939
    Total Energy =                       -387.1300154668695086
  Basis Set: 6-31G*
  Basis Set:
  @DF-RHF Final Energy:  -387.13006292085356
    Total Energy =                       -387.1300629208533337
  Basis Set: 6-31G*
  Basis Set:
  Basis Set: 6-31G*
  Basis Set:
  @DF-RHF Final Energy:  -387.13001196517672
    Total Energy =                       -387.1300119651772320
  Basis Set: 6-31G*
  Basis Set:
  Basis Set: 6-31G*
  Basis Set:
  @DF-RHF Final Energy:  -387.13009237931436
    Total Energy =                       -387.1300923793137372
  Basis Set: 6-31G*
  Basis Set:
  Charge       = 0
  Multiplicity = 1
  Basis Set: 6-31G*
  Basis Set:

    Orbital Energies (a.u.)
    -----------------------

    Doubly Occupied:

       1A    -20.550517     2A    -11.326349     3A    -11.231855
       4A    -11.228374     5A    -11.217339     6A    -11.216523
       7A    -11.213974     8A    -11.212935     9A    -11.206798
      10A     -1.395814    11A     -1.092036    12A     -1.054020
      13A     -1.012893    14A     -0.968217    15A     -0.889187
      16A     -0.834405    17A     -0.769596    18A     -0.731038
      19A     -0.657490    20A     -0.650820    21A     -0.631140
      22A     -0.623327    23A     -0.596099    24A     -0.580669
      25A     -0.570435    26A     -0.560768    27A     -0.551124
      28A     -0.515405    29A     -0.504511    30A     -0.497972
      31A     -0.488662    32A     -0.481878    33A     -0.459122
      34A     -0.449549    35A     -0.447397    36A     -0.399980

  @DF-RHF Final Energy:  -387.13009270286614

   => Energetics <=

    Nuclear Repulsion Energy =            445.7051135945795295
    One-Electron Energy =               -1408.0339814482254042
    Two-Electron Energy =                 575.1987751507796247
    DFT Exchange-Correlation Energy =       0.0000000000000000
    Empirical Dispersion Energy =           0.0000000000000000
    PCM Polarization Energy =               0.0000000000000000
    EFP Energy =                            0.0000000000000000
    Total Energy =                       -387.1300927028662500
    Molecular point group: c1
  Basis Set: 6-31G*
  Basis Set:

  -Total Gradient:
     Atom            X                  Y                   Z
    ------   -----------------  -----------------  -----------------
       1       -0.000001842414     0.000000954475     0.000004535143
       2       -0.000002702189     0.000003374737    -0.000017337875
       3        0.000002103942     0.000000021448     0.000006190313
       4       -0.000004009643    -0.000002395852     0.000003921193
       5        0.000003200986    -0.000000160122    -0.000001385344
       6       -0.000002504131     0.000001839115     0.000001257072
       7        0.000001128133    -0.000001531635     0.000003239758
       8        0.002492067405     0.004235278584    -0.004264481637
       9       -0.000002342724     0.000017605034    -0.000007830527
      10        0.000004507968    -0.000016888642    -0.000002548737
      11        0.003501630220     0.005213884767     0.001699892127
      12       -0.002649930888    -0.004395446686     0.003308464353
      13       -0.000012376136     0.000000668126     0.000006643132
      14        0.000013733067     0.000019406103     0.000037898584
      15       -0.003333045546    -0.005052316764    -0.000763014888
      16       -0.000003857023    -0.000008603388     0.000001681249
      17       -0.000001729864    -0.000010335257    -0.000010568020
      18       -0.000001972841     0.000015098906    -0.000006682321
      19       -0.000002475742    -0.000014990117     0.000007620950
      20        0.000006168249    -0.000008210435    -0.000003398135
      21        0.000004798381    -0.000001176647     0.000003370191
      22       -0.000008081275     0.000003733792    -0.000007228581
      23       -0.000000417141     0.000000499874    -0.000000358813
      24       -0.000002795071     0.000001443189    -0.000000478207
      25        0.000000744269    -0.000001752609     0.000000599017

  **** Optimization is complete! (in 9 steps) ****
    Final optimized geometry and variables:
    Molecular point group: c1

    Geometry (in Angstrom), charge = 0, multiplicity = 1:

    O            2.656309963653     0.778692094474     0.180409720217
    C            2.574045787697    -0.411111113200     0.159048953375
    C            1.237359592484    -1.129875371592     0.118937651151
    C            3.809589774566    -1.287694547284     0.171314287669
    C            0.030495599673    -0.195896894827     0.109294565066
    H            1.231691633167    -1.774350004633    -0.759216287901
    H            1.196378795679    -1.805263734357     0.972408746366
    C           -1.287699279180    -0.970294685391     0.062506393443
    H            0.113144454778     0.473987673540    -0.738379242700
    H            0.062133197286     0.431638723811     0.994467972679
    C           -2.580800207830    -0.129132374651     0.139821945025
    H           -1.323762533432    -1.610255301115    -0.816920506767
    H           -1.302523533262    -1.668261196616     0.898311956625
    C           -2.533936967479     1.265309394649    -0.487544442222
    H           -2.911739819734    -0.066851558453     1.174266312676
    H           -3.367904701788    -0.694200183324    -0.356557503131
    C           -3.891265317975     1.966710330333    -0.439152433618
    H           -1.797401099404     1.881278629839     0.019382504098
    H           -2.207913648424     1.186999014477    -1.522590314913
    H           -4.235689514490     2.082534647901     0.584756965845
    H           -3.837798102248     2.955790281412    -0.883372771439
    H           -4.646071732121     1.401528438586    -0.978753676748
    H            3.835044282303    -1.919156780523    -0.711985727821
    H            4.695681419927    -0.668879782866     0.198303263720
    H            3.799518079981    -1.944231787353     1.036476794717

  Mulliken Charges: (a.u.)
   Center  Symbol    Alpha    Beta     Spin     Total
       1     O     4.26135  4.26135  0.00000 -0.52270
       2     C     2.73551  2.73551  0.00000  0.52897
       3     C     3.21072  3.21072  0.00000 -0.42144
       4     C     3.28671  3.28671  0.00000 -0.57342
       5     C     3.15095  3.15095  0.00000 -0.30189
       6     H     0.40991  0.40991  0.00000  0.18017
       7     H     0.41004  0.41004  0.00000  0.17992
       8     C     3.15683  3.15683  0.00000 -0.31365
       9     H     0.40927  0.40927  0.00000  0.18147
      10     H     0.41223  0.41223  0.00000  0.17553
      11     C     3.15264  3.15264  0.00000 -0.30528
      12     H     0.42346  0.42346  0.00000  0.15307
      13     H     0.42381  0.42381  0.00000  0.15238
      14     C     3.15563  3.15563  0.00000 -0.31127
      15     H     0.42223  0.42223  0.00000  0.15555
      16     H     0.42280  0.42280  0.00000  0.15441
      17     C     3.23950  3.23950  0.00000 -0.47900
      18     H     0.41677  0.41677  0.00000  0.16647
      19     H     0.42285  0.42285  0.00000  0.15429
      20     H     0.42182  0.42182  0.00000  0.15636
      21     H     0.41860  0.41860  0.00000  0.16280
      22     H     0.42250  0.42250  0.00000  0.15500
      23     H     0.40873  0.40873  0.00000  0.18254
      24     H     0.39647  0.39647  0.00000  0.20705
      25     H     0.40867  0.40867  0.00000  0.18266

   Total alpha = 36.00000, Total beta = 36.00000, Total charge = -0.00000
