                              Psi4 1.0.54 Driver

  ==> Input File <==

--------------------------------------------------------------------------
set {
	reference rhf
	basis cc-pvtz
}

set_num_threads( 4 )
memory 2 gb

molecule MOL {
0 1

H	 -2.644180	 -0.653737	 1.272255
C	 -2.092774	 -0.380414	 0.391915
O	 -0.808934	 -0.154049	 0.752536
F	 -2.163230	 -1.351640	 -0.507133
F	 -2.627232	 0.691260	 -0.169301
C	 0.085006	 0.250800	 -0.215074
C	 1.447589	 0.404021	 0.456616
Cl	 -0.411330	 1.789899	 -0.943333
H	 0.183543	 -0.464862	 -1.012422
F	 2.349575	 0.774851	 -0.416270
F	 1.814002	 -0.755747	 0.948545
F	 1.424685	 1.272575	 1.429930

	symmetry c1
}
set optking {
	frozen_dihedral = ("
		9 6 3 2
	")
}

ee,wfn = optimize('scf', return_wfn=True)
oeprop( wfn, 'DIPOLE', 'QUADRUPOLE', 'MULLIKEN_CHARGES')
f=open( 'psi4out.xyz', 'w' )
f.write( "12  " )
f.write( str(ee) + "\n" )
f.write( MOL.save_string_xyz() )
f.close()
--------------------------------------------------------------------------

    Molecular point group: c1
  Charge       = 0
  Multiplicity = 1
  Basis Set: CC-PVTZ
  Basis Set:
  @DF-RHF Final Energy: -1146.60955492057064
    Total Energy =                      -1146.6095549205697353
    Molecular point group: c1
  Basis Set: CC-PVTZ
  Basis Set:
  Basis Set: CC-PVTZ
  Basis Set:
  @DF-RHF Final Energy: -1146.61499404622759
    Total Energy =                      -1146.6149940462282757
  Basis Set: CC-PVTZ
  Basis Set:
  Basis Set: CC-PVTZ
  Basis Set:
  @DF-RHF Final Energy: -1146.61657687443085
    Total Energy =                      -1146.6165768744319848
  Basis Set: CC-PVTZ
  Basis Set:
  Basis Set: CC-PVTZ
  Basis Set:
  @DF-RHF Final Energy: -1146.61708329168209
    Total Energy =                      -1146.6170832916809559
  Basis Set: CC-PVTZ
  Basis Set:
  @DF-RHF Final Energy: -1146.61721934463048
    Total Energy =                      -1146.6172193446302572
  Basis Set: CC-PVTZ
  Basis Set:
  @DF-RHF Final Energy: -1146.61732442172888
    Total Energy =                      -1146.6173244217288811
  Basis Set: CC-PVTZ
  Basis Set:
  Basis Set: CC-PVTZ
  Basis Set:
  @DF-RHF Final Energy: -1146.61739100225645
    Total Energy =                      -1146.6173910022569089
  Basis Set: CC-PVTZ
  Basis Set:
  Basis Set: CC-PVTZ
  Basis Set:
  @DF-RHF Final Energy: -1146.61739990840101
    Total Energy =                      -1146.6173999084012394
  Basis Set: CC-PVTZ
  Basis Set:
  Charge       = 0
  Multiplicity = 1
  Basis Set: CC-PVTZ
  Basis Set:

    Orbital Energies (a.u.)
    -----------------------

    Doubly Occupied:

       1A   -104.857392     2A    -26.354467     3A    -26.353425
       4A    -26.352675     5A    -26.345225     6A    -26.336351
       7A    -20.639799     8A    -11.520030     9A    -11.482818
      10A    -11.400861    11A    -10.582955    12A     -8.049758
      13A     -8.047758    14A     -8.047681    15A     -1.767514
      16A     -1.722472    17A     -1.662432    18A     -1.660766
      19A     -1.643614    20A     -1.484396    21A     -1.178169
      22A     -1.058139    23A     -0.988588    24A     -0.922317
      25A     -0.861681    26A     -0.856386    27A     -0.851856
      28A     -0.823316    29A     -0.817643    30A     -0.795179
      31A     -0.736228    32A     -0.731656    33A     -0.713393
      34A     -0.701172    35A     -0.685823    36A     -0.680499
      37A     -0.665704    38A     -0.663672    39A     -0.648601
      40A     -0.641194    41A     -0.598821    42A     -0.570390
      43A     -0.527428    44A     -0.477576    45A     -0.469865

  @DF-RHF Final Energy: -1146.61740138791697

   => Energetics <=

    Nuclear Repulsion Energy =            738.9356106300508600
    One-Electron Energy =               -3061.1506531467985042
    Two-Electron Energy =                1175.5976411288306736
    DFT Exchange-Correlation Energy =       0.0000000000000000
    Empirical Dispersion Energy =           0.0000000000000000
    PCM Polarization Energy =               0.0000000000000000
    EFP Energy =                            0.0000000000000000
    Total Energy =                      -1146.6174013879167433
    Molecular point group: c1
  Basis Set: CC-PVTZ
  Basis Set:

  -Total Gradient:
     Atom            X                  Y                   Z
    ------   -----------------  -----------------  -----------------
       1       -0.000006573956     0.000029833161    -0.000063916337
       2       -0.000670787103     0.002855260540     0.000541921712
       3        0.001713573469    -0.004973871174    -0.000119438271
       4        0.000015688194     0.000125024974     0.000032434578
       5        0.000015697080    -0.000065296317    -0.000089515777
       6       -0.003291529131     0.003611326327    -0.002361238200
       7       -0.000019266135     0.000013163338     0.000007831857
       8       -0.000023908593     0.000098085181    -0.000071288971
       9        0.002294610553    -0.001637145402     0.002094555188
      10       -0.000017359347    -0.000032175660    -0.000026828894
      11        0.000017307259    -0.000034165662     0.000014107229
      12       -0.000027452295     0.000009960808     0.000041375903

  **** Optimization is complete! (in 9 steps) ****
    Final optimized geometry and variables:
    Molecular point group: c1

    Geometry (in Angstrom), charge = 0, multiplicity = 1:

    H           -2.552243018401    -1.207247302723     1.015858033849
    C           -2.056616141203    -0.657980738938     0.236021340671
    O           -0.767952847462    -0.473206748099     0.614306785233
    F           -2.119126864408    -1.333583957405    -0.902380599153
    F           -2.675744086529     0.489092255725     0.044480641141
    C            0.219449051782    -0.186874155385    -0.301446009197
    C            1.520427664188    -0.153518212312     0.500130160428
    CL           0.004991543137     1.347968862674    -1.162443276666
    H            0.318795519762    -0.966853326032    -1.036649750636
    F            2.537779416680     0.053127113149    -0.297375178943
    F            1.697394335180    -1.315798867895     1.083551370829
    F            1.515598012214     0.770396759215     1.420679850517

  Mulliken Charges: (a.u.)
   Center  Symbol    Alpha    Beta     Spin     Total
       1     H     0.45186  0.45186  0.00000  0.09628
       2     C     2.74032  2.74032  0.00000  0.51935
       3     O     4.15593  4.15593  0.00000 -0.31187
       4     F     4.61982  4.61982  0.00000 -0.23963
       5     F     4.60906  4.60906  0.00000 -0.21812
       6     C     2.94734  2.94734  0.00000  0.10531
       7     C     2.66819  2.66819  0.00000  0.66363
       8    CL     8.57221  8.57221  0.00000 -0.14443
       9     H     0.42727  0.42727  0.00000  0.14546
      10     F     4.60241  4.60241  0.00000 -0.20482
      11     F     4.60528  4.60528  0.00000 -0.21056
      12     F     4.60030  4.60030  0.00000 -0.20060

   Total alpha = 45.00000, Total beta = 45.00000, Total charge =  0.00000

*** Psi4 exiting successfully. Buy a developer a beer!
