                              Psi4 1.0.54 Driver

  ==> Input File <==

--------------------------------------------------------------------------
set {
	reference rhf
	basis cc-pvtz
}

set_num_threads( 4 )
memory 2 gb

molecule MOL {
0 1

H	 -2.319302	 -1.714294	 -1.642443
N	 -1.409636	 -1.705817	 -1.233169
C	 -1.380845	 -0.873763	 -0.044473
H	 -0.774952	 -1.348724	 -1.915560
C	 0.004407	 -0.861060	 0.560148
H	 -1.684655	 0.155926	 -0.228817
H	 -2.065820	 -1.288982	 0.686590
O	 0.881195	 -0.248324	 -0.336237
H	 -0.008716	 -0.315417	 1.502631
H	 0.324848	 -1.880810	 0.761031
C	 2.208068	 -0.234417	 0.074171
H	 2.725499	 -1.027054	 -0.446768
H	 2.688377	 0.712084	 -0.164856
H	 2.295137	 -0.403407	 1.144883

	symmetry c1
}
set optking {
	frozen_dihedral = ("
		5 8 11 13
	")
}

ee,wfn = optimize('scf', return_wfn=True)
oeprop( wfn, 'DIPOLE', 'QUADRUPOLE', 'MULLIKEN_CHARGES')
f=open( 'psi4out.xyz', 'w' )
f.write( "14  " )
f.write( str(ee) + "\n" )
f.write( MOL.save_string_xyz() )
f.close()
--------------------------------------------------------------------------

    Molecular point group: c1
  Charge       = 0
  Multiplicity = 1
  Basis Set: CC-PVTZ
  Basis Set:
  @DF-RHF Final Energy:  -248.22273311393005
    Total Energy =                       -248.2227331139300759
    Molecular point group: c1
  Basis Set: CC-PVTZ
  Basis Set:
  Basis Set: CC-PVTZ
  Basis Set:
  @DF-RHF Final Energy:  -248.22338141424663
    Total Energy =                       -248.2233814142468873
  Basis Set: CC-PVTZ
  Basis Set:
  Basis Set: CC-PVTZ
  Basis Set:
  @DF-RHF Final Energy:  -248.22351097741398
    Total Energy =                       -248.2235109774140938
  Basis Set: CC-PVTZ
  Basis Set:
  Charge       = 0
  Multiplicity = 1
  Basis Set: CC-PVTZ
  Basis Set:

    Orbital Energies (a.u.)
    -----------------------

    Doubly Occupied:

       1A    -20.548078     2A    -15.523234     3A    -11.264284
       4A    -11.263304     5A    -11.239486     6A     -1.380898
       7A     -1.175645     8A     -1.000392     9A     -0.907842
      10A     -0.815441    11A     -0.684536    12A     -0.674249
      13A     -0.645035    14A     -0.611546    15A     -0.607631
      16A     -0.540902    17A     -0.535380    18A     -0.496576
      19A     -0.473591    20A     -0.416340    21A     -0.383607

  @DF-RHF Final Energy:  -248.22351136320830

   => Energetics <=

    Nuclear Repulsion Energy =            194.4769646742694533
    One-Electron Energy =                -723.0249590780817925
    Two-Electron Energy =                 280.3244830406039796
    DFT Exchange-Correlation Energy =       0.0000000000000000
    Empirical Dispersion Energy =           0.0000000000000000
    PCM Polarization Energy =               0.0000000000000000
    EFP Energy =                            0.0000000000000000
    Total Energy =                       -248.2235113632083880
    Molecular point group: c1
  Basis Set: CC-PVTZ
  Basis Set:

  -Total Gradient:
     Atom            X                  Y                   Z
    ------   -----------------  -----------------  -----------------
       1        0.000005718004     0.000002218719    -0.000011948390
       2       -0.000007011772     0.000006568316    -0.000006293519
       3       -0.000010626342    -0.000075775062     0.000034260219
       4        0.000000518665     0.000008670832    -0.000018264441
       5       -0.000404960287     0.001906325637     0.000974709800
       6        0.000035161189    -0.000019963175     0.000008165736
       7       -0.000029827996    -0.000005504945     0.000008965096
       8        0.000404281280    -0.002376815434    -0.000810400109
       9       -0.000000629518    -0.000019659611     0.000029561711
      10        0.000005849581     0.000035396286    -0.000049032698
      11        0.000711179713    -0.000369969894    -0.002354616416
      12        0.000010502648    -0.000003129903    -0.000010229920
      13       -0.000720627717     0.000908480831     0.002204287285
      14        0.000000472549     0.000003157404     0.000000835649

  **** Optimization is complete! (in 4 steps) ****
    Final optimized geometry and variables:
    Molecular point group: c1

    Geometry (in Angstrom), charge = 0, multiplicity = 1:

    H           -2.359391694923    -0.932741835668    -1.485236951243
    N           -1.459491220636    -0.924370377655    -1.054944195228
    C           -1.459789920839    -0.097615215602     0.137764204197
    H           -0.810205765575    -0.562350808325    -1.720796879023
    C           -0.089959040131    -0.087191046175     0.776414802731
    H           -1.758340022970     0.933037826353    -0.049819433057
    H           -2.162658835362    -0.515439088860     0.850288479485
    O            0.806467490816     0.529342534319    -0.099378840568
    H           -0.125944778864     0.456930641278     1.718391019728
    H            0.221486487184    -1.108422967538     0.982504140019
    C            2.136189489493     0.557937982647     0.316149339239
    H            2.710611818661    -0.229773482809    -0.160873453148
    H            2.560502465200     1.519654604780     0.058871053525
    H            2.220751335133     0.438765284695     1.392341660520

  Mulliken Charges: (a.u.)
   Center  Symbol    Alpha    Beta     Spin     Total
       1     H     0.43032  0.43032  0.00000  0.13936
       2     N     3.69424  3.69424  0.00000 -0.38848
       3     C     3.02390  3.02390  0.00000 -0.04779
       4     H     0.42225  0.42225  0.00000  0.15549
       5     C     2.96752  2.96752  0.00000  0.06496
       6     H     0.46482  0.46482  0.00000  0.07037
       7     H     0.45873  0.45873  0.00000  0.08254
       8     O     4.18358  4.18358  0.00000 -0.36716
       9     H     0.46923  0.46923  0.00000  0.06155
      10     H     0.46952  0.46952  0.00000  0.06096
      11     C     3.02820  3.02820  0.00000 -0.05639
      12     H     0.46105  0.46105  0.00000  0.07789
      13     H     0.45405  0.45405  0.00000  0.09190
      14     H     0.47259  0.47259  0.00000  0.05481

   Total alpha = 21.00000, Total beta = 21.00000, Total charge =  0.00000

*** Psi4 exiting successfully. Buy a developer a beer!
