  ==> Input File <==

--------------------------------------------------------------------------
set {
	reference rhf
	basis 6-31G*
}

set_num_threads( 4 )
memory 2 gb

molecule MOL {
0 1

H	 -3.475380	 -0.383787	 0.789925
O	 -3.114115	 -0.194748	 -0.065275
C	 -1.776835	 -0.066256	 -0.008374
C	 -1.068715	 -0.203868	 1.181849
C	 -1.111226	 0.213140	 -1.195374
H	 -1.592288	 -0.420430	 2.097427
C	 0.302973	 -0.061436	 1.180222
H	 -1.679551	 0.314671	 -2.100344
C	 0.260901	 0.352756	 -1.180861
H	 0.861974	 -0.164999	 2.091207
C	 0.984182	 0.218375	 0.000000
H	 0.777191	 0.569273	 -2.100441
C	 2.452467	 0.370529	 0.000000
O	 3.228994	 -0.533774	 0.000000
H	 2.809473	 1.405765	 0.000000

	symmetry c1
}
set optking {
	frozen_dihedral = ("
		7 11 13 14
	")
}

ee = optimize('scf')
oeprop('DIPOLE', 'QUADRUPOLE', 'MULLIKEN_CHARGES')
f=open( 'psi4out.xyz', 'w' )
f.write( "15  " )
f.write( str(ee) + "\n" )
f.write( MOL.save_string_xyz() )
f.close()
--------------------------------------------------------------------------

    Molecular point group: c1
  Charge       = 0
  Multiplicity = 1
  Basis Set: 6-31G*
  Basis Set:
  @DF-RHF Final Energy:  -418.27348837628392
    Total Energy =                       -418.2734883762841491
    Molecular point group: c1
  Basis Set: 6-31G*
  Basis Set:
  Basis Set: 6-31G*
  Basis Set:
  @DF-RHF Final Energy:  -418.27396454747981
    Total Energy =                       -418.2739645474795225
  Basis Set: 6-31G*
  Basis Set:
  Basis Set: 6-31G*
  Basis Set:
  @DF-RHF Final Energy:  -418.27417690696188
    Total Energy =                       -418.2741769069618840
  Basis Set: 6-31G*
  Basis Set:
  Basis Set: 6-31G*
  Basis Set:
  @DF-RHF Final Energy:  -418.27425908088827
    Total Energy =                       -418.2742590808884415
  Basis Set: 6-31G*
  Basis Set:
  Basis Set: 6-31G*
  Basis Set:
  @DF-RHF Final Energy:  -418.27426100812886
    Total Energy =                       -418.2742610081293151
  Basis Set: 6-31G*
  Basis Set:
  Charge       = 0
  Multiplicity = 1
  Basis Set: 6-31G*
  Basis Set:

    Orbital Energies (a.u.)
    -----------------------

    Doubly Occupied:

       1A    -20.603376     2A    -20.570862     3A    -11.334582
       4A    -11.313579     5A    -11.255398     6A    -11.254123
       7A    -11.244299     8A    -11.242992     9A    -11.237561
      10A     -1.423096    11A     -1.409539    12A     -1.168315
      13A     -1.037820    14A     -1.035966    15A     -0.886637
      16A     -0.861227    17A     -0.799610    18A     -0.752073
      19A     -0.708271    20A     -0.673291    21A     -0.653931
      22A     -0.628430    23A     -0.605189    24A     -0.601237
      25A     -0.589807    26A     -0.561217    27A     -0.528237
      28A     -0.502260    29A     -0.492588    30A     -0.421870
      31A     -0.354470    32A     -0.323643

  @DF-RHF Final Energy:  -418.27426164712261

   => Energetics <=

    Nuclear Repulsion Energy =            399.9811807527127598
    One-Electron Energy =               -1362.3598889544866779
    Two-Electron Energy =                 544.1044465546513038
    DFT Exchange-Correlation Energy =       0.0000000000000000
    Empirical Dispersion Energy =           0.0000000000000000
    PCM Polarization Energy =               0.0000000000000000
    EFP Energy =                            0.0000000000000000
    Total Energy =                       -418.2742616471225574
    Molecular point group: c1
  Basis Set: 6-31G*
  Basis Set:

  -Total Gradient:
     Atom            X                  Y                   Z
    ------   -----------------  -----------------  -----------------
       1       -0.000011547159     0.000004555700     0.000000080948
       2       -0.000032369383    -0.000047587621     0.000026580273
       3        0.000037334399     0.000085109247    -0.000047201294
       4       -0.000015710187     0.000006736391    -0.000004940388
       5       -0.000093357732    -0.000040605207     0.000063414319
       6       -0.000015655733    -0.000004780908    -0.000010015824
       7       -0.000429951018     0.003171956451     0.000494653526
       8        0.000012907411    -0.000000746820     0.000008740860
       9        0.000124692753    -0.000017552039     0.000082450803
      10        0.000000859049     0.000001999894    -0.000013608342
      11        0.000625542416    -0.004683890868    -0.002599070000
      12        0.000004607350    -0.000000878933     0.000004021005
      13       -0.000220710162     0.001532831532     0.005941870190
      14       -0.000002829067    -0.000000891968    -0.003957520067
      15        0.000016187054    -0.000006254851     0.000010543994

  **** Optimization is complete! (in 6 steps) ****
    Final optimized geometry and variables:
    Molecular point group: c1

    Geometry (in Angstrom), charge = 0, multiplicity = 1:

    H           -3.491808455694    -0.381447201186     0.786273923332
    O           -3.130394053713    -0.180916166628    -0.065870237089
    C           -1.787435514335    -0.062592042764    -0.003980410419
    C           -1.079540563799    -0.201805699913     1.178474843046
    C           -1.115212317246     0.215429887031    -1.187347223450
    H           -1.597962827715    -0.412041176358     2.098506987534
    C            0.300215789177    -0.072600056045     1.174561938256
    H           -1.679559454977     0.322358164201    -2.094564152333
    C            0.257476741166     0.352901718950    -1.176774455858
    H            0.841679492189    -0.190056495708     2.096372567865
    C            0.982671885185     0.192589947855    -0.000439206325
    H            0.768537534514     0.576511256159    -2.097099753554
    C            2.470245284798     0.382148689618     0.002719284087
    O            3.256591561352    -0.507853342353     0.029055846597
    H            2.817860077237     1.418180882063    -0.052986929033

  Mulliken Charges: (a.u.)
   Center  Symbol    Alpha    Beta     Spin     Total
       1     H     0.27006  0.27006  0.00000  0.45987
       2     O     4.37615  4.37615  0.00000 -0.75230
       3     C     2.79236  2.79236  0.00000  0.41528
       4     C     3.14216  3.14216  0.00000 -0.28432
       5     C     3.12099  3.12099  0.00000 -0.24198
       6     H     0.39950  0.39950  0.00000  0.20100
       7     C     3.09407  3.09407  0.00000 -0.18814
       8     H     0.38689  0.38689  0.00000  0.22622
       9     C     3.09677  3.09677  0.00000 -0.19355
      10     H     0.38850  0.38850  0.00000  0.22299
      11     C     3.04361  3.04361  0.00000 -0.08722
      12     H     0.39053  0.39053  0.00000  0.21894
      13     C     2.85227  2.85227  0.00000  0.29546
      14     O     4.22201  4.22201  0.00000 -0.44401
      15     H     0.42412  0.42412  0.00000  0.15175

   Total alpha = 32.00000, Total beta = 32.00000, Total charge =  0.00000
