  ==> Input File <==

--------------------------------------------------------------------------
set {
	reference rhf
	basis 6-31G*
}

set_num_threads( 4 )
memory 2 gb

molecule MOL {
0 1

H	 -1.836216	 1.387520	 -0.000064
C	 -1.301823	 0.443321	 -0.000031
O	 -0.003969	 0.658512	 0.000451
O	 -1.829879	 -0.616434	 -0.000857
C	 0.850537	 -0.484732	 0.000380
C	 0.359746	 -1.418415	 1.085590
H	 1.866617	 -0.160461	 0.178556
H	 0.813334	 -0.948251	 -0.975868
H	 0.396507	 -0.934771	 2.055008
H	 0.985326	 -2.304264	 1.119559
H	 -0.661880	 -1.726468	 0.895139

	symmetry c1
}
set optking {
	frozen_dihedral = ("
		7 5 3 2
	")
}

ee = optimize('scf')
oeprop('DIPOLE', 'QUADRUPOLE', 'MULLIKEN_CHARGES')
f=open( 'psi4out.xyz', 'w' )
f.write( "11  " )
f.write( str(ee) + "\n" )
f.write( MOL.save_string_xyz() )
f.close()
--------------------------------------------------------------------------

    Molecular point group: c1
  Charge       = 0
  Multiplicity = 1
  Basis Set: 6-31G*
  Basis Set:
  @DF-RHF Final Energy:  -266.80912177412802
    Total Energy =                       -266.8091217741281866
    Molecular point group: c1
  Basis Set: 6-31G*
  Basis Set:
  Basis Set: 6-31G*
  Basis Set:
  @DF-RHF Final Energy:  -266.82193882598892
    Total Energy =                       -266.8219388259890366
  Basis Set: 6-31G*
  Basis Set:
  Basis Set: 6-31G*
  Basis Set:
  @DF-RHF Final Energy:  -266.82349135278855
    Total Energy =                       -266.8234913527884942
  Basis Set: 6-31G*
  Basis Set:
  Basis Set: 6-31G*
  Basis Set:
  @DF-RHF Final Energy:  -266.82391560081771
    Total Energy =                       -266.8239156008175428
  Basis Set: 6-31G*
  Basis Set:
  @DF-RHF Final Energy:  -266.82422382627897
    Total Energy =                       -266.8242238262788533
  Basis Set: 6-31G*
  Basis Set:
  @DF-RHF Final Energy:  -266.82432569059426
    Total Energy =                       -266.8243256905941507
  Basis Set: 6-31G*
  Basis Set:
  Basis Set: 6-31G*
  Basis Set:
  @DF-RHF Final Energy:  -266.82435634216876
    Total Energy =                       -266.8243563421688123
  Basis Set: 6-31G*
  Basis Set:
  Basis Set: 6-31G*
  Basis Set:
  @DF-RHF Final Energy:  -266.82436774967857
    Total Energy =                       -266.8243677496784585
  Basis Set: 6-31G*
  Basis Set:
  Charge       = 0
  Multiplicity = 1
  Basis Set: 6-31G*
  Basis Set:

    Orbital Energies (a.u.)
    -----------------------

    Doubly Occupied:

       1A    -20.611749     2A    -20.556164     3A    -11.379028
       4A    -11.295075     5A    -11.220639     6A     -1.473252
       7A     -1.374098     8A     -1.048184     9A     -0.915525
      10A     -0.795236    11A     -0.735540    12A     -0.683166
      13A     -0.659308    14A     -0.624911    15A     -0.575204
      16A     -0.542561    17A     -0.528841    18A     -0.503875
      19A     -0.457801    20A     -0.448554

  @DF-RHF Final Energy:  -266.82436863393713

   => Energetics <=

    Nuclear Repulsion Energy =            182.8193203593888825
    One-Electron Energy =                -726.4299586642323447
    Two-Electron Energy =                 276.7862696709062789
    DFT Exchange-Correlation Energy =       0.0000000000000000
    Empirical Dispersion Energy =           0.0000000000000000
    PCM Polarization Energy =               0.0000000000000000
    EFP Energy =                            0.0000000000000000
    Total Energy =                       -266.8243686339371266
    Molecular point group: c1
  Basis Set: 6-31G*
  Basis Set:

  -Total Gradient:
     Atom            X                  Y                   Z
    ------   -----------------  -----------------  -----------------
       1        0.000012827544    -0.000004644089     0.000002113314
       2       -0.000070420748     0.000122373264     0.005495015928
       3       -0.000014333466    -0.000303475187    -0.007094168630
       4       -0.000014358735     0.000001016638     0.000000314516
       5        0.001060239247     0.000582848180    -0.004200107015
       6       -0.000003691426     0.000012079413     0.000015463275
       7       -0.000957616428    -0.000409017001     0.005794748270
       8        0.000003714838     0.000002078392    -0.000000422672
       9        0.000000540992     0.000000704280    -0.000002369158
      10       -0.000013544435    -0.000004380494    -0.000009406744
      11       -0.000003357377     0.000000416604    -0.000001181084

  **** Optimization is complete! (in 9 steps) ****
    Final optimized geometry and variables:
    Molecular point group: c1

    Geometry (in Angstrom), charge = 0, multiplicity = 1:

    H           -1.341307520953     1.808776842385    -0.153769602961
    C           -0.911474986252     0.815785654888    -0.236201056938
    O            0.400474416560     0.901386633992    -0.213713726222
    O           -1.557095343157    -0.170035017686    -0.352251544684
    C            1.214177533019    -0.274108782635    -0.168358295013
    C            0.865346474929    -1.241444116145     0.953707932243
    H            2.201352243197     0.118789872693     0.022838155538
    H            1.187354439281    -0.755325089076    -1.136353998246
    H            0.822396506263    -0.716956351622     1.902870397584
    H            1.653234668610    -1.985814760487     1.019799354522
    H           -0.074376487665    -1.744542701978     0.788277186302

  Mulliken Charges: (a.u.)
   Center  Symbol    Alpha    Beta     Spin     Total
       1     H     0.41201  0.41201  0.00000  0.17598
       2     C     2.72501  2.72501  0.00000  0.54998
       3     O     4.29594  4.29594  0.00000 -0.59188
       4     O     4.26394  4.26394  0.00000 -0.52787
       5     C     2.99988  2.99988  0.00000  0.00025
       6     C     3.26515  3.26515  0.00000 -0.53030
       7     H     0.40742  0.40742  0.00000  0.18516
       8     H     0.40870  0.40870  0.00000  0.18260
       9     H     0.41457  0.41457  0.00000  0.17085
      10     H     0.41681  0.41681  0.00000  0.16637
      11     H     0.39057  0.39057  0.00000  0.21887

   Total alpha = 20.00000, Total beta = 20.00000, Total charge =  0.00000
