                              Psi4 1.0.54 Driver

  ==> Input File <==

--------------------------------------------------------------------------
set {
	reference rhf
	basis cc-pvtz
}

set_num_threads( 4 )
memory 2 gb

molecule MOL {
0 1

H	 -4.022343	 -0.470315	 -0.170854
C	 -2.960393	 -0.314141	 -0.177720
C	 -2.450623	 0.952359	 -0.400772
C	 -2.106213	 -1.379282	 0.036373
H	 -3.114234	 1.778635	 -0.566873
C	 -1.085903	 1.152257	 -0.409447
H	 -2.502541	 -2.361069	 0.209258
C	 -0.739464	 -1.180725	 0.027987
H	 -0.674254	 2.126079	 -0.580547
C	 -0.225338	 0.086712	 -0.195148
H	 -0.075197	 -2.003466	 0.193449
C	 1.241174	 0.354841	 -0.214307
O	 1.968286	 -0.725612	 -0.000027
O	 1.713317	 1.425818	 -0.402108
C	 3.373556	 -0.568203	 0.000011
H	 3.695416	 -0.031588	 -0.879663
H	 3.782700	 -1.565294	 -0.000152
H	 3.695405	 -0.031851	 0.879862

	symmetry c1
}
set optking {
	frozen_dihedral = ("
		12 13 15 16
	")
}

ee,wfn = optimize('scf', return_wfn=True)
oeprop( wfn, 'DIPOLE', 'QUADRUPOLE', 'MULLIKEN_CHARGES')
f=open( 'psi4out.xyz', 'w' )
f.write( "18  " )
f.write( str(ee) + "\n" )
f.write( MOL.save_string_xyz() )
f.close()
--------------------------------------------------------------------------

    Molecular point group: c1
  Charge       = 0
  Multiplicity = 1
  Basis Set: CC-PVTZ
  Basis Set:
  @DF-RHF Final Energy:  -457.51004674052575
    Total Energy =                       -457.5100467405260360
    Molecular point group: c1
  Basis Set: CC-PVTZ
  Basis Set:
  Basis Set: CC-PVTZ
  Basis Set:
  @DF-RHF Final Energy:  -457.51005840555263
    Total Energy =                       -457.5100584055526269
  Basis Set: CC-PVTZ
  Basis Set:
  Basis Set: CC-PVTZ
  Basis Set:
  @DF-RHF Final Energy:  -457.50996958292461
    Total Energy =                       -457.5099695829246684
  Basis Set: CC-PVTZ
  Basis Set:
  Basis Set: CC-PVTZ
  Basis Set:
  @DF-RHF Final Energy:  -457.51006848759909
    Total Energy =                       -457.5100684875989145
  Basis Set: CC-PVTZ
  Basis Set:
  Charge       = 0
  Multiplicity = 1
  Basis Set: CC-PVTZ
  Basis Set:

    Orbital Energies (a.u.)
    -----------------------

    Doubly Occupied:

       1A    -20.600943     2A    -20.534445     3A    -11.371878
       4A    -11.281159     5A    -11.244975     6A    -11.243500
       7A    -11.242695     8A    -11.240050     9A    -11.236066
      10A    -11.235306    11A     -1.476907    12A     -1.368543
      13A     -1.170802    14A     -1.051871    15A     -1.029067
      16A     -0.980618    17A     -0.863224    18A     -0.838480
      19A     -0.781301    20A     -0.745125    21A     -0.687967
      22A     -0.681468    23A     -0.676413    24A     -0.634148
      25A     -0.630102    26A     -0.601325    27A     -0.587835
      28A     -0.565095    29A     -0.531793    30A     -0.520368
      31A     -0.509495    32A     -0.502247    33A     -0.463899
      34A     -0.449486    35A     -0.350224    36A     -0.346263

  @DF-RHF Final Energy:  -457.51006970151855

   => Energetics <=

    Nuclear Repulsion Energy =            494.0213256966532072
    One-Electron Energy =               -1602.5126262021012735
    Two-Electron Energy =                 650.9812308039295203
    DFT Exchange-Correlation Energy =       0.0000000000000000
    Empirical Dispersion Energy =           0.0000000000000000
    PCM Polarization Energy =               0.0000000000000000
    EFP Energy =                            0.0000000000000000
    Total Energy =                       -457.5100697015186597
    Molecular point group: c1
  Basis Set: CC-PVTZ
  Basis Set:

  -Total Gradient:
     Atom            X                  Y                   Z
    ------   -----------------  -----------------  -----------------
       1        0.000003588346    -0.000001709475     0.000000513489
       2        0.000007085449     0.000013349546    -0.000002874476
       3       -0.000004173602    -0.000013584169     0.000005227566
       4        0.000016855212    -0.000001588499    -0.000000789067
       5        0.000006090491    -0.000000508576    -0.000001097783
       6        0.000025064975    -0.000004883914    -0.000003186197
       7        0.000001434757     0.000001835012     0.000001113725
       8       -0.000007813105    -0.000005816500     0.000004196506
       9        0.000000323558     0.000002734389     0.000001368853
      10        0.000017371066     0.000008552476     0.000002963786
      11        0.000002556406     0.000000530605    -0.000001498406
      12        0.000036923027    -0.000152746759    -0.000822498995
      13       -0.000095515840     0.000384932778     0.001293062341
      14       -0.000017792961     0.000026257204    -0.000000550484
      15        0.000187518564    -0.001079121298    -0.000939552963
      16       -0.000120839602     0.000830510791     0.000473413691
      17       -0.000033524182    -0.000002518490    -0.000000435587
      18       -0.000025152559    -0.000006225117    -0.000009375997

  **** Optimization is complete! (in 5 steps) ****
    Final optimized geometry and variables:
    Molecular point group: c1

    Geometry (in Angstrom), charge = 0, multiplicity = 1:

    H           -4.022201987209    -0.468645104105    -0.044172955432
    C           -2.960784950083    -0.308625205882    -0.038622283101
    C           -2.453193498348     0.960643337838    -0.251170846721
    C           -2.105074900103    -1.371367253253     0.180984316742
    H           -3.117953194220     1.785195376852    -0.421509230101
    C           -1.089237960785     1.165565202833    -0.243807198132
    H           -2.499501124749    -2.355334766689     0.345812405104
    C           -0.738949053676    -1.167776471022     0.188551323717
    H           -0.679416335629     2.141658237950    -0.406455126768
    C           -0.227168915068     0.102293148463    -0.024076024520
    H           -0.073645305466    -1.988840003002     0.358405976010
    C            1.238688690596     0.376307843096    -0.026161079302
    O            1.966720476091    -0.701845801622     0.195515818214
    O            1.708085185146     1.449762682927    -0.206371343248
    C            3.372299184727    -0.548194157594     0.193228431701
    H            3.697434483570    -0.019939902505    -0.689169566851
    H            3.781368234319    -1.545051016838     0.212701646631
    H            3.690690972208     0.001103370220     1.067588794100

  Mulliken Charges: (a.u.)
   Center  Symbol    Alpha    Beta     Spin     Total
       1     H     0.42029  0.42029  0.00000  0.15942
       2     C     3.06975  3.06975  0.00000 -0.13950
       3     C     3.07550  3.07550  0.00000 -0.15100
       4     C     3.07493  3.07493  0.00000 -0.14986
       5     H     0.42038  0.42038  0.00000  0.15923
       6     C     3.07590  3.07590  0.00000 -0.15179
       7     H     0.42189  0.42189  0.00000  0.15623
       8     C     3.08211  3.08211  0.00000 -0.16422
       9     H     0.40665  0.40665  0.00000  0.18670
      10     C     3.01295  3.01295  0.00000 -0.02590
      11     H     0.41105  0.41105  0.00000  0.17790
      12     C     2.78163  2.78163  0.00000  0.43674
      13     O     4.14849  4.14849  0.00000 -0.29698
      14     O     4.21142  4.21142  0.00000 -0.42284
      15     C     3.03688  3.03688  0.00000 -0.07377
      16     H     0.45033  0.45033  0.00000  0.09933
      17     H     0.44544  0.44544  0.00000  0.10911
      18     H     0.45440  0.45440  0.00000  0.09121

   Total alpha = 36.00000, Total beta = 36.00000, Total charge = -0.00000

*** Psi4 exiting successfully. Buy a developer a beer!
