  ==> Input File <==

--------------------------------------------------------------------------
set {
	reference rhf
	basis 6-31G*
}

set_num_threads( 4 )
memory 2 gb

molecule MOL {
0 1

H	 2.284426	 4.666297	 1.305580
C	 2.540421	 4.120614	 2.222269
C	 1.431535	 3.270901	 2.788811
O	 3.625037	 4.224719	 2.696105
C	 0.828445	 2.318828	 1.746652
H	 1.817872	 2.731015	 3.645535
H	 0.657417	 3.950253	 3.143603
C	 1.798735	 1.230516	 1.280376
H	 -0.055029	 1.854983	 2.175146
H	 0.482431	 2.894077	 0.889262
C	 1.180775	 0.282413	 0.250794
H	 2.135105	 0.659981	 2.143621
H	 2.690540	 1.688157	 0.856359
C	 2.148627	 -0.814315	 -0.201312
H	 0.285150	 -0.163568	 0.675869
H	 0.855931	 0.854828	 -0.617079
C	 3.580890	 -0.659131	 0.322722
H	 2.166869	 -0.852443	 -1.289387
H	 1.762857	 -1.776509	 0.128956
C	 4.324889	 0.564933	 -0.213704
H	 4.142010	 -1.551473	 0.056605
H	 3.564836	 -0.624694	 1.410140
H	 4.342616	 0.565491	 -1.300421
H	 3.866655	 1.493402	 0.110242
H	 5.353900	 0.572371	 0.132816

	symmetry c1
}
set optking {
	frozen_dihedral = ("
		8 11 14 18
	")
}

ee = optimize('scf')
oeprop('DIPOLE', 'QUADRUPOLE', 'MULLIKEN_CHARGES')
f=open( 'psi4out.xyz', 'w' )
f.write( "25  " )
f.write( str(ee) + "\n" )
f.write( MOL.save_string_xyz() )
f.close()
--------------------------------------------------------------------------

    Molecular point group: c1
  Charge       = 0
  Multiplicity = 1
  Basis Set: 6-31G*
  Basis Set:
  @DF-RHF Final Energy:  -387.09249158308239
    Total Energy =                       -387.0924915830821647
    Molecular point group: c1
  Basis Set: 6-31G*
  Basis Set:
  Basis Set: 6-31G*
  Basis Set:
  @DF-RHF Final Energy:  -387.10653196959640
    Total Energy =                       -387.1065319695964035
  Basis Set: 6-31G*
  Basis Set:
  Basis Set: 6-31G*
  Basis Set:
  @DF-RHF Final Energy:  -387.10967407245198
    Total Energy =                       -387.1096740724523215
  Basis Set: 6-31G*
  Basis Set:
  Basis Set: 6-31G*
  Basis Set:
  @DF-RHF Final Energy:  -387.11030609133201
    Total Energy =                       -387.1103060913312675
  Basis Set: 6-31G*
  Basis Set:
  @DF-RHF Final Energy:  -387.10797313774890
    Total Energy =                       -387.1079731377494682
  @DF-RHF Final Energy:  -387.11066625852510
    Total Energy =                       -387.1106662585259528
  @DF-RHF Final Energy:  -387.11078530687308
    Total Energy =                       -387.1107853068729128
  @DF-RHF Final Energy:  -387.11065967895235
    Total Energy =                       -387.1106596789525156
  @DF-RHF Final Energy:  -387.11079583182538
    Total Energy =                       -387.1107958318251576
  Basis Set: 6-31G*
  Basis Set:
  @DF-RHF Final Energy:  -387.11080167450331
    Total Energy =                       -387.1108016745029090
  Basis Set: 6-31G*
  Basis Set:
  Basis Set: 6-31G*
  Basis Set:
  @DF-RHF Final Energy:  -387.11080286873283
    Total Energy =                       -387.1108028687337992
  Basis Set: 6-31G*
  Basis Set:
  Basis Set: 6-31G*
  Basis Set:
  @DF-RHF Final Energy:  -387.11080401633660
    Total Energy =                       -387.1108040163366013
  Basis Set: 6-31G*
  Basis Set:
  Charge       = 0
  Multiplicity = 1
  Basis Set: 6-31G*
  Basis Set:

    Orbital Energies (a.u.)
    -----------------------

    Doubly Occupied:

       1A    -20.562268     2A    -11.326359     3A    -11.235403
       4A    -11.234749     5A    -11.223589     6A    -11.220926
       7A    -11.217561     8A    -11.216035     9A    -11.208511
      10A     -1.402190    11A     -1.102336    12A     -1.065470
      13A     -1.009501    14A     -0.944817    15A     -0.873308
      16A     -0.830547    17A     -0.789093    18A     -0.767680
      19A     -0.665647    20A     -0.661112    21A     -0.630288
      22A     -0.624038    23A     -0.608895    24A     -0.592515
      25A     -0.562083    26A     -0.558276    27A     -0.536297
      28A     -0.518656    29A     -0.513712    30A     -0.499385
      31A     -0.490507    32A     -0.480936    33A     -0.450886
      34A     -0.449567    35A     -0.445440    36A     -0.409723

  @DF-RHF Final Energy:  -387.11080406839631

   => Energetics <=

    Nuclear Repulsion Energy =            451.4632036767417276
    One-Electron Energy =               -1419.2914006522978525
    Two-Electron Energy =                 580.7173929071600469
    DFT Exchange-Correlation Energy =       0.0000000000000000
    Empirical Dispersion Energy =           0.0000000000000000
    PCM Polarization Energy =               0.0000000000000000
    EFP Energy =                            0.0000000000000000
    Total Energy =                       -387.1108040683960780
    Molecular point group: c1
  Basis Set: 6-31G*
  Basis Set:

  -Total Gradient:
     Atom            X                  Y                   Z
    ------   -----------------  -----------------  -----------------
       1       -0.000002103977    -0.000001851295    -0.000000036753
       2        0.000001382698     0.000000795987     0.000003518347
       3        0.000000284246     0.000005475702    -0.000000220881
       4        0.000001522118    -0.000000793283     0.000000555432
       5       -0.000000626605    -0.000002078889    -0.000003382997
       6        0.000000696482     0.000001685736    -0.000000394884
       7        0.000001167157     0.000001401082     0.000000626928
       8        0.001298595183     0.002286261527    -0.002720230900
       9        0.000002126273    -0.000001502255    -0.000003408116
      10       -0.000002714910     0.000000984289    -0.000001094911
      11       -0.001063789918    -0.002677769186     0.004008551383
      12       -0.000003963961     0.000000242820     0.000006975075
      13        0.000017353871     0.000005894038    -0.000010143281
      14       -0.004083495228    -0.002796186749    -0.001339039481
      15        0.000000088930     0.000001847559    -0.000002542579
      16        0.000002526860     0.000001882299     0.000000576461
      17       -0.000009248463     0.000008169638     0.000005304847
      18        0.003851663596     0.003160989201     0.000053298380
      19       -0.000001944353     0.000000317346     0.000001363491
      20        0.000001081350    -0.000006929264    -0.000000990862
      21       -0.000001334801     0.000001561050     0.000000181667
      22       -0.000006461910     0.000000066269     0.000002932419
      23        0.000000422916    -0.000000412667    -0.000001914303
      24       -0.000007760937     0.000010938891     0.000004896682
      25        0.000004533378    -0.000000989847    -0.000005381159

  **** Optimization is complete! (in 13 steps) ****
    Final optimized geometry and variables:
    Molecular point group: c1

    Geometry (in Angstrom), charge = 0, multiplicity = 1:

    H           -0.238657905402     3.140582357474     0.226608455885
    C           -0.023341812723     2.587987233876     1.149723504853
    C           -1.137240506268     1.693723137449     1.631386485735
    O            1.023362161816     2.722902540686     1.695737755287
    C           -1.627165166947     0.726920648562     0.543993314080
    H           -0.793119295744     1.162429301701     2.511200935231
    H           -1.960230173996     2.340733677101     1.932241643428
    C           -0.585602690041    -0.324420510168     0.148474474623
    H           -2.523877644815     0.230759047136     0.903574885617
    H           -1.927971783874     1.294988008226    -0.334788252143
    C           -1.125797074026    -1.281340716276    -0.919953708521
    H           -0.296617482592    -0.877545428816     1.038729826674
    H            0.312376678308     0.170752708626    -0.205585232067
    C           -0.188078068364    -2.414515766252    -1.429073030629
    H           -2.037501391239    -1.733476639303    -0.538942266854
    H           -1.436976566343    -0.678454485887    -1.769808833211
    C            1.289728394850    -2.384925490899    -0.997582637185
    H           -0.186937035406    -2.397552140690    -2.515451991275
    H           -0.608044364469    -3.369851504079    -1.131788519351
    C            2.157060848925    -1.411890693265    -1.800227242268
    H            1.694467813751    -3.384486076256    -1.134887947791
    H            1.379253358137    -2.173771638388     0.063144172107
    H            2.161704994528    -1.682725831755    -2.852539649946
    H            1.805328398771    -0.388266054780    -1.729791605529
    H            3.184962090011    -1.428676814975    -1.451298020580

  Mulliken Charges: (a.u.)
   Center  Symbol    Alpha    Beta     Spin     Total
       1     H     0.43260  0.43260  0.00000  0.13479
       2     C     2.83107  2.83107  0.00000  0.33786
       3     C     3.20779  3.20779  0.00000 -0.41558
       4     O     4.23776  4.23776  0.00000 -0.47552
       5     C     3.16658  3.16658  0.00000 -0.33316
       6     H     0.39982  0.39982  0.00000  0.20036
       7     H     0.40667  0.40667  0.00000  0.18666
       8     C     3.15930  3.15930  0.00000 -0.31860
       9     H     0.41284  0.41284  0.00000  0.17431
      10     H     0.41974  0.41974  0.00000  0.16053
      11     C     3.15662  3.15662  0.00000 -0.31323
      12     H     0.41758  0.41758  0.00000  0.16484
      13     H     0.41525  0.41525  0.00000  0.16950
      14     C     3.15772  3.15772  0.00000 -0.31545
      15     H     0.42008  0.42008  0.00000  0.15984
      16     H     0.42183  0.42183  0.00000  0.15635
      17     C     3.15716  3.15716  0.00000 -0.31432
      18     H     0.42056  0.42056  0.00000  0.15889
      19     H     0.41877  0.41877  0.00000  0.16247
      20     C     3.24038  3.24038  0.00000 -0.48077
      21     H     0.41988  0.41988  0.00000  0.16024
      22     H     0.41900  0.41900  0.00000  0.16201
      23     H     0.42230  0.42230  0.00000  0.15540
      24     H     0.42109  0.42109  0.00000  0.15781
      25     H     0.41760  0.41760  0.00000  0.16479

   Total alpha = 36.00000, Total beta = 36.00000, Total charge =  0.00000
