  ==> Input File <==

--------------------------------------------------------------------------
set {
	reference rhf
	basis 6-31G*
}

set_num_threads( 4 )
memory 2 gb

molecule MOL {
0 1

H	 0.540297	 -2.992987	 1.874558
O	 0.628196	 -2.412400	 1.124905
C	 -0.378373	 -1.539811	 1.157124
C	 -0.318135	 -0.576402	 0.000164
O	 -1.201769	 -1.555609	 2.013141
C	 -1.454360	 0.441875	 -0.000474
H	 0.650923	 -0.085910	 0.036864
H	 -0.316559	 -1.165943	 -0.912767
C	 -2.826123	 -0.230780	 0.000056
H	 -1.357605	 1.085198	 -0.868380
H	 -1.357504	 1.086451	 0.866496
H	 -2.959731	 -0.858053	 -0.876869
H	 -3.619374	 0.509403	 -0.000080
H	 -2.959371	 -0.857318	 0.877556

	symmetry c1
}
set optking {
	frozen_dihedral = ("
		7 4 6 10
	")
}

ee = optimize('scf')
oeprop('DIPOLE', 'QUADRUPOLE', 'MULLIKEN_CHARGES')
f=open( 'psi4out.xyz', 'w' )
f.write( "14  " )
f.write( str(ee) + "\n" )
f.write( MOL.save_string_xyz() )
f.close()
--------------------------------------------------------------------------

    Molecular point group: c1
  Charge       = 0
  Multiplicity = 1
  Basis Set: 6-31G*
  Basis Set:
  @DF-RHF Final Energy:  -305.87685444010697
    Total Energy =                       -305.8768544401070244
    Molecular point group: c1
  Basis Set: 6-31G*
  Basis Set:
  Basis Set: 6-31G*
  Basis Set:
  @DF-RHF Final Energy:  -305.87917496482169
    Total Energy =                       -305.8791749648216864
  Basis Set: 6-31G*
  Basis Set:
  Basis Set: 6-31G*
  Basis Set:
  @DF-RHF Final Energy:  -305.87866270270774
    Total Energy =                       -305.8786627027075724
  Basis Set: 6-31G*
  Basis Set:
  Basis Set: 6-31G*
  Basis Set:
  @DF-RHF Final Energy:  -305.87965122468012
    Total Energy =                       -305.8796512246800603
  Basis Set: 6-31G*
  Basis Set:
  @DF-RHF Final Energy:  -305.87984575848907
    Total Energy =                       -305.8798457584890116
  Basis Set: 6-31G*
  Basis Set:
  @DF-RHF Final Energy:  -305.87989292667834
    Total Energy =                       -305.8798929266783944
  Basis Set: 6-31G*
  Basis Set:
  Basis Set: 6-31G*
  Basis Set:
  @DF-RHF Final Energy:  -305.87989989770665
    Total Energy =                       -305.8798998977066503
  Basis Set: 6-31G*
  Basis Set:
  Basis Set: 6-31G*
  Basis Set:
  @DF-RHF Final Energy:  -305.87990108769827
    Total Energy =                       -305.8799010876982720
  Basis Set: 6-31G*
  Basis Set:
  Charge       = 0
  Multiplicity = 1
  Basis Set: 6-31G*
  Basis Set:

    Orbital Energies (a.u.)
    -----------------------

    Doubly Occupied:

       1A    -20.614215     2A    -20.551905     3A    -11.382339
       4A    -11.241722     5A    -11.227263     6A    -11.210049
       7A     -1.475983     8A     -1.366473     9A     -1.081532
      10A     -0.975751    11A     -0.861632    12A     -0.786852
      13A     -0.702393    14A     -0.690295    15A     -0.660012
      16A     -0.614114    17A     -0.593340    18A     -0.566391
      19A     -0.556846    20A     -0.497434    21A     -0.489700
      22A     -0.486080    23A     -0.476581    24A     -0.441818

  @DF-RHF Final Energy:  -305.87990117349062

   => Energetics <=

    Nuclear Repulsion Energy =            245.0056593055645067
    One-Electron Energy =                -902.6696779712056014
    Two-Electron Energy =                 351.7841174921502443
    DFT Exchange-Correlation Energy =       0.0000000000000000
    Empirical Dispersion Energy =           0.0000000000000000
    PCM Polarization Energy =               0.0000000000000000
    EFP Energy =                            0.0000000000000000
    Total Energy =                       -305.8799011734909072
    Molecular point group: c1
  Basis Set: 6-31G*
  Basis Set:

  -Total Gradient:
     Atom            X                  Y                   Z
    ------   -----------------  -----------------  -----------------
       1        0.000015523255    -0.000025810864     0.000009392082
       2       -0.000025353391    -0.000000069352     0.000035343939
       3        0.000005415578     0.000039052422    -0.000029492116
       4       -0.000201066401    -0.000223422219    -0.003798286251
       5        0.000014752600    -0.000029924366    -0.000008348268
       6        0.001776034570     0.002114149085     0.002510570331
       7       -0.000096494592    -0.000115020209     0.002785690243
       8        0.000000852022    -0.000002592422     0.000001877114
       9        0.000007871896     0.000004664129    -0.000003346402
      10       -0.001487327535    -0.001753665222    -0.001506665192
      11       -0.000000180366    -0.000000691626    -0.000002476940
      12       -0.000001401600     0.000000307851     0.000000741307
      13       -0.000003873284     0.000001274107    -0.000001719773
      14       -0.000004752755    -0.000008251311     0.000006719923

  **** Optimization is complete! (in 9 steps) ****
    Final optimized geometry and variables:
    Molecular point group: c1

    Geometry (in Angstrom), charge = 0, multiplicity = 1:

    H            1.356174498660    -2.086956779639     1.025093361930
    O            1.351361859803    -1.559168106913     0.232306132355
    C            0.578627585233    -0.496254551156     0.448054553484
    C            0.561984184888     0.436810110292    -0.737810080079
    O            0.019402742507    -0.322562014690     1.482368074592
    C           -0.604969084853     1.424434470773    -0.736195087708
    H            1.507357371346     0.972820655949    -0.681630294983
    H            0.588322323547    -0.154428669498    -1.645896772207
    C           -1.978433824192     0.755020974983    -0.816077120065
    H           -0.488737502649     2.068864822987    -1.603129725786
    H           -0.549094059521     2.049633885607     0.147221977683
    H           -2.055349605404     0.127400840206    -1.700407769716
    H           -2.762331612477     1.503119580077    -0.876491839030
    H           -2.172303474000     0.141360389251     0.054825753172

  Mulliken Charges: (a.u.)
   Center  Symbol    Alpha    Beta     Spin     Total
       1     H     0.26790  0.26790  0.00000  0.46419
       2     O     4.34997  4.34997  0.00000 -0.69994
       3     C     2.62386  2.62386  0.00000  0.75227
       4     C     3.21017  3.21017  0.00000 -0.42034
       5     O     4.28099  4.28099  0.00000 -0.56197
       6     C     3.15251  3.15251  0.00000 -0.30503
       7     H     0.39621  0.39621  0.00000  0.20758
       8     H     0.39906  0.39906  0.00000  0.20188
       9     C     3.24865  3.24865  0.00000 -0.49731
      10     H     0.41743  0.41743  0.00000  0.16514
      11     H     0.40751  0.40751  0.00000  0.18499
      12     H     0.42405  0.42405  0.00000  0.15191
      13     H     0.41711  0.41711  0.00000  0.16577
      14     H     0.40458  0.40458  0.00000  0.19084

   Total alpha = 24.00000, Total beta = 24.00000, Total charge =  0.00000
