  ==> Input File <==

--------------------------------------------------------------------------
set {
	reference rhf
	basis 6-31G*
}

set_num_threads( 4 )
memory 2 gb

molecule MOL {
0 1

H	 -2.670120	 -0.790423	 1.449016
C	 -2.665749	 -0.968072	 0.375441
O	 -1.387698	 -0.833918	 -0.157407
H	 -2.992932	 -1.981273	 0.186979
H	 -3.368758	 -0.279197	 -0.091095
C	 -0.832474	 0.432873	 0.004502
C	 0.587304	 0.425549	 -0.511619
H	 -1.411390	 1.173028	 -0.549324
H	 -0.831349	 0.723894	 1.052982
O	 1.392611	 -0.295398	 0.366430
H	 0.605261	 -0.017128	 -1.505461
H	 0.943829	 1.453017	 -0.594634
C	 2.706965	 -0.449871	 -0.062409
H	 2.756559	 -0.644779	 -1.131878
H	 3.305899	 0.433456	 0.155466
H	 3.125548	 -1.294566	 0.467107

	symmetry c1
}
set optking {
	frozen_dihedral = ("
		7 10 13 14
	")
}

ee = optimize('scf')
oeprop('DIPOLE', 'QUADRUPOLE', 'MULLIKEN_CHARGES')
f=open( 'psi4out.xyz', 'w' )
f.write( "16  " )
f.write( str(ee) + "\n" )
f.write( MOL.save_string_xyz() )
f.close()
--------------------------------------------------------------------------

    Molecular point group: c1
  Charge       = 0
  Multiplicity = 1
  Basis Set: 6-31G*
  Basis Set:
  @DF-RHF Final Energy:  -306.97659313196885
    Total Energy =                       -306.9765931319687411
    Molecular point group: c1
  Basis Set: 6-31G*
  Basis Set:
  Basis Set: 6-31G*
  Basis Set:
  @DF-RHF Final Energy:  -306.97664747214873
    Total Energy =                       -306.9766474721487839
  Basis Set: 6-31G*
  Basis Set:
  Basis Set: 6-31G*
  Basis Set:
  @DF-RHF Final Energy:  -306.97666706059101
    Total Energy =                       -306.9766670605907848
  Basis Set: 6-31G*
  Basis Set:
  Charge       = 0
  Multiplicity = 1
  Basis Set: 6-31G*
  Basis Set:

    Orbital Energies (a.u.)
    -----------------------

    Doubly Occupied:

       1A    -20.553459     2A    -20.552563     3A    -11.269172
       4A    -11.268417     5A    -11.263477     6A    -11.263436
       7A     -1.387604     8A     -1.369840     9A     -1.030789
      10A     -0.936130    11A     -0.891975    12A     -0.824009
      13A     -0.683548    14A     -0.679943    15A     -0.657040
      16A     -0.635608    17A     -0.628787    18A     -0.597473
      19A     -0.551496    20A     -0.534895    21A     -0.509472
      22A     -0.477505    23A     -0.462367    24A     -0.419035
      25A     -0.409384

  @DF-RHF Final Energy:  -306.97666723958559

   => Energetics <=

    Nuclear Repulsion Energy =            258.7638279790901379
    One-Electron Energy =                -931.7661413937886437
    Two-Electron Energy =                 366.0256461751128541
    DFT Exchange-Correlation Energy =       0.0000000000000000
    Empirical Dispersion Energy =           0.0000000000000000
    PCM Polarization Energy =               0.0000000000000000
    EFP Energy =                            0.0000000000000000
    Total Energy =                       -306.9766672395856517
    Molecular point group: c1
  Basis Set: 6-31G*
  Basis Set:

  -Total Gradient:
     Atom            X                  Y                   Z
    ------   -----------------  -----------------  -----------------
       1       -0.000000856001    -0.000000139587     0.000000428815
       2        0.000000998374    -0.000000763671     0.000000727912
       3       -0.000002858858    -0.000007056166     0.000015928716
       4       -0.000000061976    -0.000000445728     0.000000474186
       5        0.000001802995     0.000000632163    -0.000000272462
       6       -0.000021982070     0.000020467601    -0.000048518304
       7       -0.000572852718    -0.001805342829    -0.001013370919
       8       -0.000027988170     0.000011063839     0.000003845534
       9        0.000012762314    -0.000012961238    -0.000017126582
      10        0.000895016879     0.003345071385     0.001310391703
      11       -0.000006057101    -0.000000624568     0.000018254847
      12        0.000005987979    -0.000006102554    -0.000001215256
      13       -0.000441764168    -0.004234063849     0.000213215902
      14        0.000157486183     0.002684147831    -0.000473128946
      15       -0.000001440211     0.000008216471    -0.000007384014
      16        0.000001806551    -0.000002099097    -0.000002251134

  **** Optimization is complete! (in 4 steps) ****
    Final optimized geometry and variables:
    Molecular point group: c1

    Geometry (in Angstrom), charge = 0, multiplicity = 1:

    H           -2.634434230899    -0.504164976105     1.446770683622
    C           -2.631557218507    -0.680335925587     0.372941128525
    O           -1.354662861436    -0.543266471083    -0.162017370733
    H           -2.957579380877    -1.693744195687     0.183616487207
    H           -3.336144492746     0.008288771354    -0.091456899560
    C           -0.801363794686     0.724342454780     0.000503666292
    C            0.617837496561     0.720331626371    -0.517593728258
    H           -1.382399852187     1.464182763831    -0.551587553713
    H           -0.799703833998     1.014040656511     1.049247133105
    O            1.423209845226    -0.007133981072     0.355117790279
    H            0.634908884967     0.281774761601    -1.512713498247
    H            0.971282186946     1.749362111542    -0.597044979188
    C            2.741118538570    -0.170773121132    -0.064213333052
    H            2.801272672451    -0.363564705212    -1.132817330900
    H            3.333471104681     0.718721329857     0.145868920572
    H            3.162124887960    -1.007119103834     0.476407060654

  Mulliken Charges: (a.u.)
   Center  Symbol    Alpha    Beta     Spin     Total
       1     H     0.42808  0.42808  0.00000  0.14384
       2     C     3.07948  3.07948  0.00000 -0.15896
       3     O     4.30086  4.30086  0.00000 -0.60172
       4     H     0.41131  0.41131  0.00000  0.17737
       5     H     0.43191  0.43191  0.00000  0.13618
       6     C     2.99346  2.99346  0.00000  0.01308
       7     C     2.99325  2.99325  0.00000  0.01350
       8     H     0.43230  0.43230  0.00000  0.13540
       9     H     0.42275  0.42275  0.00000  0.15449
      10     O     4.30227  4.30227  0.00000 -0.60453
      11     H     0.42216  0.42216  0.00000  0.15568
      12     H     0.43271  0.43271  0.00000  0.13458
      13     C     3.07793  3.07793  0.00000 -0.15585
      14     H     0.43015  0.43015  0.00000  0.13970
      15     H     0.42972  0.42972  0.00000  0.14055
      16     H     0.41165  0.41165  0.00000  0.17669

   Total alpha = 25.00000, Total beta = 25.00000, Total charge =  0.00000
