  ==> Input File <==

--------------------------------------------------------------------------
set {
	reference rhf
	basis 6-31G*
}

set_num_threads( 4 )
memory 2 gb

molecule MOL {
0 1

H	 3.089270	 -1.380733	 0.000000
O	 2.178328	 -1.639175	 0.000000
C	 1.368216	 -0.558384	 0.000000
C	 1.084841	 0.159234	 -1.155001
C	 0.813111	 -0.172871	 1.207754
H	 1.517871	 -0.142461	 -2.093884
C	 0.247382	 1.260816	 -1.101623
H	 1.031174	 -0.726294	 2.100641
C	 -0.024269	 0.931144	 1.252501
H	 0.035451	 1.808273	 -2.002043
C	 -0.311765	 1.653203	 0.101090
C	 -0.624010	 1.350775	 2.546754
H	 -0.962528	 2.508538	 0.144847
O	 -0.440299	 0.800451	 3.584993
H	 -1.271487	 2.231052	 2.490765

	symmetry c1
}
set optking {
	frozen_dihedral = ("
		4 3 2 1
	")
}

ee = optimize('scf')
oeprop('DIPOLE', 'QUADRUPOLE', 'MULLIKEN_CHARGES')
f=open( 'psi4out.xyz', 'w' )
f.write( "15  " )
f.write( str(ee) + "\n" )
f.write( MOL.save_string_xyz() )
f.close()
--------------------------------------------------------------------------

    Molecular point group: c1
  Charge       = 0
  Multiplicity = 1
  Basis Set: 6-31G*
  Basis Set:
  @DF-RHF Final Energy:  -418.28198687261050
    Total Energy =                       -418.2819868726094228
    Molecular point group: c1
  Basis Set: 6-31G*
  Basis Set:
  Basis Set: 6-31G*
  Basis Set:
  @DF-RHF Final Energy:  -418.28269121618683
    Total Energy =                       -418.2826912161860946
  Basis Set: 6-31G*
  Basis Set:
  Basis Set: 6-31G*
  Basis Set:
  @DF-RHF Final Energy:  -418.28234538202480
    Total Energy =                       -418.2823453820252553
  Basis Set: 6-31G*
  Basis Set:
  Basis Set: 6-31G*
  Basis Set:
  @DF-RHF Final Energy:  -418.28279635770110
    Total Energy =                       -418.2827963577014998
  Basis Set: 6-31G*
  Basis Set:
  Basis Set: 6-31G*
  Basis Set:
  @DF-RHF Final Energy:  -418.28280971409288
    Total Energy =                       -418.2828097140931050
  Basis Set: 6-31G*
  Basis Set:
  Charge       = 0
  Multiplicity = 1
  Basis Set: 6-31G*
  Basis Set:

    Orbital Energies (a.u.)
    -----------------------

    Doubly Occupied:

       1A    -20.587586     2A    -20.564855     3A    -11.333629
       4A    -11.303396     5A    -11.253568     6A    -11.251345
       7A    -11.251014     8A    -11.249484     9A    -11.243986
      10A     -1.405679    11A     -1.403492    12A     -1.170227
      13A     -1.048876    14A     -1.026287    15A     -0.897490
      16A     -0.845364    17A     -0.802509    18A     -0.740053
      19A     -0.698130    20A     -0.681277    21A     -0.649658
      22A     -0.634610    23A     -0.618101    24A     -0.605783
      25A     -0.555737    26A     -0.545296    27A     -0.532402
      28A     -0.497414    29A     -0.486263    30A     -0.423835
      31A     -0.352138    32A     -0.341672

  @DF-RHF Final Energy:  -418.28281080697661

   => Energetics <=

    Nuclear Repulsion Energy =            402.5760070088542761
    One-Electron Energy =               -1367.7153225874035343
    Two-Electron Energy =                 546.8565047715721903
    DFT Exchange-Correlation Energy =       0.0000000000000000
    Empirical Dispersion Energy =           0.0000000000000000
    PCM Polarization Energy =               0.0000000000000000
    EFP Energy =                            0.0000000000000000
    Total Energy =                       -418.2828108069770678
    Molecular point group: c1
  Basis Set: 6-31G*
  Basis Set:

  -Total Gradient:
     Atom            X                  Y                   Z
    ------   -----------------  -----------------  -----------------
       1        0.000030774069    -0.000020898999     0.000431912444
       2       -0.000133786676    -0.000123629075    -0.000531455647
       3        0.000441553636     0.000370541887    -0.000117029763
       4       -0.000182120747    -0.000369071834     0.000037137887
       5       -0.000110615271     0.000081557950     0.000143793039
       6       -0.000007217323    -0.000006735628    -0.000011424944
       7       -0.000060644663     0.000149653500     0.000139650291
       8       -0.000012285789    -0.000000004089    -0.000027511634
       9        0.000101360713    -0.000083472998     0.000072718194
      10        0.000009071552    -0.000014917428    -0.000000364818
      11       -0.000041363567    -0.000014465103    -0.000172872765
      12       -0.000042333165     0.000025172441    -0.000022382240
      13       -0.000004029108    -0.000002526940     0.000032085016
      14        0.000008757494    -0.000000876529     0.000010904453
      15        0.000002878842     0.000009672843     0.000014840483

  **** Optimization is complete! (in 6 steps) ****
    Final optimized geometry and variables:
    Molecular point group: c1

    Geometry (in Angstrom), charge = 0, multiplicity = 1:

    H            2.584952638362    -1.787261016415    -0.824409957958
    O            1.671167095685    -2.037928271806    -0.791445909793
    C            0.872386291336    -0.928455000427    -0.739440888059
    C            0.586836116544    -0.221063508682    -1.900760724634
    C            0.309725654517    -0.548143228482     0.461135359654
    H            1.020036732328    -0.546183301025    -2.829402725217
    C           -0.252496797500     0.877609093814    -1.856300467266
    H            0.519626290374    -1.102249038154     1.355882310477
    C           -0.538301657474     0.553985602766     0.503537253872
    H           -0.469469543852     1.421786380012    -2.757318240823
    C           -0.817933677488     1.267372506723    -0.652319420967
    C           -1.146477469432     0.973198300403     1.791577705702
    H           -1.474539965035     2.119092416704    -0.614627650722
    O           -0.954737903999     0.433831019407     2.834741155362
    H           -1.807610135975     1.842923940681     1.729233108250

  Mulliken Charges: (a.u.)
   Center  Symbol    Alpha    Beta     Spin     Total
       1     H     0.26975  0.26975  0.00000  0.46050
       2     O     4.38591  4.38591  0.00000 -0.77183
       3     C     2.82017  2.82017  0.00000  0.35966
       4     C     3.11010  3.11010  0.00000 -0.22020
       5     C     3.10690  3.10690  0.00000 -0.21380
       6     H     0.38972  0.38972  0.00000  0.22056
       7     C     3.10153  3.10153  0.00000 -0.20307
       8     H     0.37172  0.37172  0.00000  0.25656
       9     C     3.05164  3.05164  0.00000 -0.10329
      10     H     0.39267  0.39267  0.00000  0.21465
      11     C     3.10748  3.10748  0.00000 -0.21497
      12     C     2.83197  2.83197  0.00000  0.33607
      13     H     0.39201  0.39201  0.00000  0.21599
      14     O     4.24649  4.24649  0.00000 -0.49298
      15     H     0.42194  0.42194  0.00000  0.15612

   Total alpha = 32.00000, Total beta = 32.00000, Total charge =  0.00000
