  ==> Input File <==

--------------------------------------------------------------------------
set {
	reference rhf
	basis 6-31G*
}

set_num_threads( 4 )
memory 2 gb

molecule MOL {
0 1

H	 1.136379	 0.211822	 1.465562
C	 1.135357	 0.094285	 0.374742
C	 0.065331	 0.871482	 -0.349150
O	 1.941633	 -0.601957	 -0.151457
C	 -0.084000	 2.302199	 0.187720
H	 -0.865724	 0.321328	 -0.275802
H	 0.350255	 0.910314	 -1.399612
C	 -0.616975	 2.357821	 1.619944
H	 -0.753700	 2.848151	 -0.469129
H	 0.876101	 2.810931	 0.132597
H	 -1.591890	 1.885443	 1.690131
H	 -0.719096	 3.385028	 1.954209
H	 0.043777	 1.849074	 2.315627

	symmetry c1
}
set optking {
	frozen_dihedral = ("
		6 3 2 4
	")
}

ee = optimize('scf')
oeprop('DIPOLE', 'QUADRUPOLE', 'MULLIKEN_CHARGES')
f=open( 'psi4out.xyz', 'w' )
f.write( "13  " )
f.write( str(ee) + "\n" )
f.write( MOL.save_string_xyz() )
f.close()
--------------------------------------------------------------------------

    Molecular point group: c1
  Charge       = 0
  Multiplicity = 1
  Basis Set: 6-31G*
  Basis Set:
  @DF-RHF Final Energy:  -230.98181707353248
    Total Energy =                       -230.9818170735323974
    Molecular point group: c1
  Basis Set: 6-31G*
  Basis Set:
  Basis Set: 6-31G*
  Basis Set:
  @DF-RHF Final Energy:  -230.98236361125012
    Total Energy =                       -230.9823636112500651
  Basis Set: 6-31G*
  Basis Set:
  Basis Set: 6-31G*
  Basis Set:
  @DF-RHF Final Energy:  -230.98275657805883
    Total Energy =                       -230.9827565780587406
  Basis Set: 6-31G*
  Basis Set:
  Basis Set: 6-31G*
  Basis Set:
  @DF-RHF Final Energy:  -230.98278583101876
    Total Energy =                       -230.9827858310187025
  Basis Set: 6-31G*
  Basis Set:
  @DF-RHF Final Energy:  -230.98282922368858
    Total Energy =                       -230.9828292236886682
  Basis Set: 6-31G*
  Basis Set:
  @DF-RHF Final Energy:  -230.98283241133157
    Total Energy =                       -230.9828324113316569
  Basis Set: 6-31G*
  Basis Set:
  Basis Set: 6-31G*
  Basis Set:
  @DF-RHF Final Energy:  -230.98283488025842
    Total Energy =                       -230.9828348802585083
  Basis Set: 6-31G*
  Basis Set:
  Basis Set: 6-31G*
  Basis Set:
  @DF-RHF Final Energy:  -230.98283624754569
    Total Energy =                       -230.9828362475458334
  Basis Set: 6-31G*
  Basis Set:
  Charge       = 0
  Multiplicity = 1
  Basis Set: 6-31G*
  Basis Set:

    Orbital Energies (a.u.)
    -----------------------

    Doubly Occupied:

       1A    -20.561989     2A    -11.326544     3A    -11.238838
       4A    -11.235873     5A    -11.226080     6A     -1.401930
       7A     -1.086342     8A     -0.973863     9A     -0.852252
      10A     -0.787375    11A     -0.673119    12A     -0.649085
      13A     -0.606719    14A     -0.596842    15A     -0.581272
      16A     -0.527115    17A     -0.506948    18A     -0.494620
      19A     -0.484128    20A     -0.408886

  @DF-RHF Final Energy:  -230.98283645836690

   => Energetics <=

    Nuclear Repulsion Energy =            172.0119140282919545
    One-Electron Energy =                -653.5498604736608286
    Two-Electron Energy =                 250.5551099870018277
    DFT Exchange-Correlation Energy =       0.0000000000000000
    Empirical Dispersion Energy =           0.0000000000000000
    PCM Polarization Energy =               0.0000000000000000
    EFP Energy =                            0.0000000000000000
    Total Energy =                       -230.9828364583670748
    Molecular point group: c1
  Basis Set: 6-31G*
  Basis Set:

  -Total Gradient:
     Atom            X                  Y                   Z
    ------   -----------------  -----------------  -----------------
       1        0.000002662192     0.000002735225     0.000001986827
       2        0.000240588876     0.000255875994    -0.000088413870
       3       -0.000120851054     0.000064276679     0.000279819411
       4       -0.000171370465    -0.000198761539     0.000032807264
       5        0.000015658245    -0.000001227952     0.000004132931
       6        0.000035526177    -0.000124975177    -0.000226737084
       7        0.000012383553     0.000004550664     0.000000330976
       8        0.000001054499     0.000001893634     0.000003102980
       9       -0.000011605011    -0.000012196815     0.000007843290
      10       -0.000002416779     0.000008265895    -0.000014426569
      11       -0.000004073402     0.000003376487     0.000002355316
      12        0.000003783586    -0.000001112928     0.000001017953
      13       -0.000001340420    -0.000002700161    -0.000003819422

  **** Optimization is complete! (in 9 steps) ****
    Final optimized geometry and variables:
    Molecular point group: c1

    Geometry (in Angstrom), charge = 0, multiplicity = 1:

    H            0.777075514382    -0.827332235091     1.092343508380
    C            0.688975687475    -0.922369719161     0.005375954888
    C           -0.411993570699    -0.124984253441    -0.650474738355
    O            1.433034261408    -1.635237900010    -0.587696143472
    C           -0.558072606947     1.305639226029    -0.109298883557
    H           -1.344180066292    -0.668997691001    -0.500300463586
    H           -0.212107140803    -0.121707946703    -1.715580208848
    C           -1.164578997601     1.392084150580     1.293060769550
    H           -1.187725517078     1.861039324104    -0.797201933908
    H            0.410723162177     1.799516237539    -0.123054291871
    H           -2.149910985040     0.935744213759     1.318516844298
    H           -1.271869722236     2.427331325895     1.599533930171
    H           -0.551959976856     0.896153149243     2.039137612846

  Mulliken Charges: (a.u.)
   Center  Symbol    Alpha    Beta     Spin     Total
       1     H     0.43013  0.43013  0.00000  0.13973
       2     C     2.83073  2.83073  0.00000  0.33853
       3     C     3.21036  3.21036  0.00000 -0.42073
       4     O     4.23907  4.23907  0.00000 -0.47814
       5     C     3.16575  3.16575  0.00000 -0.33151
       6     H     0.40633  0.40633  0.00000  0.18735
       7     H     0.39709  0.39709  0.00000  0.20581
       8     C     3.24427  3.24427  0.00000 -0.48854
       9     H     0.41100  0.41100  0.00000  0.17801
      10     H     0.41440  0.41440  0.00000  0.17120
      11     H     0.41826  0.41826  0.00000  0.16347
      12     H     0.41335  0.41335  0.00000  0.17330
      13     H     0.41925  0.41925  0.00000  0.16151

   Total alpha = 20.00000, Total beta = 20.00000, Total charge =  0.00000
