  ==> Input File <==

--------------------------------------------------------------------------
set {
	reference rhf
	basis 6-31G*
}

set_num_threads( 4 )
memory 2 gb

molecule MOL {
0 1

O	 0.968737	 -0.101610	 -0.705824
C	 0.028650	 0.075053	 -0.000277
C	 -1.233602	 -0.752807	 0.000328
O	 -0.033267	 1.047919	 0.899501
C	 -2.501530	 0.091881	 0.000126
H	 -1.193807	 -1.406641	 -0.865785
H	 -1.193516	 -1.405779	 0.867015
H	 -2.545121	 0.729328	 -0.874513
H	 -3.377167	 -0.548497	 0.000561
H	 -2.544818	 0.730135	 0.874258
C	 1.091763	 1.902108	 1.000787
H	 1.973369	 1.338578	 1.270263
H	 0.852357	 2.614766	 1.774522
H	 1.267889	 2.411080	 0.064092

	symmetry c1
}
set optking {
	frozen_dihedral = ("
		4 2 3 6
	")
}

ee = optimize('scf')
oeprop('DIPOLE', 'QUADRUPOLE', 'MULLIKEN_CHARGES')
f=open( 'psi4out.xyz', 'w' )
f.write( "14  " )
f.write( str(ee) + "\n" )
f.write( MOL.save_string_xyz() )
f.close()
--------------------------------------------------------------------------

    Molecular point group: c1
  Charge       = 0
  Multiplicity = 1
  Basis Set: 6-31G*
  Basis Set:
  @DF-RHF Final Energy:  -305.87009062716118
    Total Energy =                       -305.8700906271614031
    Molecular point group: c1
  Basis Set: 6-31G*
  Basis Set:
  Basis Set: 6-31G*
  Basis Set:
  @DF-RHF Final Energy:  -305.87011483648189
    Total Energy =                       -305.8701148364816618
  Basis Set: 6-31G*
  Basis Set:
  Basis Set: 6-31G*
  Basis Set:
  @DF-RHF Final Energy:  -305.87038737912650
    Total Energy =                       -305.8703873791260435
  Basis Set: 6-31G*
  Basis Set:
  Basis Set: 6-31G*
  Basis Set:
  @DF-RHF Final Energy:  -305.87045957942092
    Total Energy =                       -305.8704595794206966
  Basis Set: 6-31G*
  Basis Set:
  Charge       = 0
  Multiplicity = 1
  Basis Set: 6-31G*
  Basis Set:

    Orbital Energies (a.u.)
    -----------------------

    Doubly Occupied:

       1A    -20.605607     2A    -20.544317     3A    -11.372332
       4A    -11.281845     5A    -11.238371     6A    -11.223932
       7A     -1.470267     8A     -1.362396     9A     -1.067126
      10A     -0.975179    11A     -0.886298    12A     -0.774679
      13A     -0.695810    14A     -0.680261    15A     -0.673122
      16A     -0.620510    17A     -0.587006    18A     -0.566609
      19A     -0.545157    20A     -0.520331    21A     -0.514351
      22A     -0.500290    23A     -0.456281    24A     -0.434207

  @DF-RHF Final Energy:  -305.87046046328624

   => Energetics <=

    Nuclear Repulsion Energy =            248.3815497595435033
    One-Electron Energy =                -909.3114531654839539
    Two-Electron Energy =                 355.0594429426541865
    DFT Exchange-Correlation Energy =       0.0000000000000000
    Empirical Dispersion Energy =           0.0000000000000000
    PCM Polarization Energy =               0.0000000000000000
    EFP Energy =                            0.0000000000000000
    Total Energy =                       -305.8704604632862356
    Molecular point group: c1
  Basis Set: 6-31G*
  Basis Set:

  -Total Gradient:
     Atom            X                  Y                   Z
    ------   -----------------  -----------------  -----------------
       1       -0.000011360764     0.000151871949     0.000104871096
       2        0.000279689233    -0.000522765490     0.000356992980
       3        0.000137277372    -0.000256911226     0.000363961069
       4       -0.000171437065     0.000343055935    -0.000455470629
       5        0.000082679872    -0.000084192902    -0.000059267827
       6       -0.000320449493     0.000412964608    -0.000364954906
       7        0.000007258275    -0.000067161020    -0.000003689542
       8        0.000001723072    -0.000001760566     0.000035180418
       9       -0.000024589880     0.000000571519     0.000008308007
      10        0.000004479895     0.000009370603    -0.000008132425
      11       -0.000023400357    -0.000014970013     0.000033266575
      12        0.000008224608     0.000005485289     0.000001473692
      13        0.000029668227     0.000020464712    -0.000001717196
      14        0.000000237001     0.000003976601    -0.000010821311

  **** Optimization is complete! (in 5 steps) ****
    Final optimized geometry and variables:
    Molecular point group: c1

    Geometry (in Angstrom), charge = 0, multiplicity = 1:

    O            1.227817744592    -0.507257472804    -0.906667104284
    C            0.287103249971    -0.314230747226    -0.205704016438
    C           -0.970883415600    -1.150119961056    -0.208349889088
    O            0.241043755697     0.662857500772     0.690190925829
    C           -2.265395271745    -0.334400266569    -0.210139905040
    H           -0.915491900447    -1.793664532227    -1.076159228578
    H           -0.935890545524    -1.783784386672     0.674013150452
    H           -2.316488495461     0.317624840451    -1.076057064192
    H           -3.121058813989    -0.999788845043    -0.245263641732
    H           -2.346051594398     0.277778937850     0.678556233721
    C            1.382461409278     1.495181209646     0.792033955086
    H            2.250532072290     0.915819172077     1.071588165670
    H            1.152692210365     2.218958740276     1.558357652176
    H            1.574454659925     1.992123901114    -0.147845069586

  Mulliken Charges: (a.u.)
   Center  Symbol    Alpha    Beta     Spin     Total
       1     O     4.28610  4.28610  0.00000 -0.57221
       2     C     2.61176  2.61176  0.00000  0.77648
       3     C     3.20122  3.20122  0.00000 -0.40243
       4     O     4.30240  4.30240  0.00000 -0.60480
       5     C     3.24611  3.24611  0.00000 -0.49221
       6     H     0.39736  0.39736  0.00000  0.20528
       7     H     0.40205  0.40205  0.00000  0.19590
       8     H     0.41473  0.41473  0.00000  0.17054
       9     H     0.41415  0.41415  0.00000  0.17169
      10     H     0.40607  0.40607  0.00000  0.18786
      11     C     3.09226  3.09226  0.00000 -0.18452
      12     H     0.40865  0.40865  0.00000  0.18269
      13     H     0.40873  0.40873  0.00000  0.18254
      14     H     0.40840  0.40840  0.00000  0.18319

   Total alpha = 24.00000, Total beta = 24.00000, Total charge =  0.00000
