                              Psi4 1.0.54 Driver

  ==> Input File <==

--------------------------------------------------------------------------
set {
	reference rhf
	basis cc-pvtz
}

set_num_threads( 4 )
memory 2 gb

molecule MOL {
0 1

H	 -2.808785	 1.461131	 -1.807629
C	 -2.057481	 1.984617	 -2.414582
C	 -1.105415	 2.851054	 -1.635643
O	 -2.048334	 1.850924	 -3.589039
C	 -0.441128	 2.106144	 -0.473960
H	 -0.372342	 3.258587	 -2.319643
H	 -1.690978	 3.678603	 -1.241201
C	 0.519471	 1.006210	 -0.920703
H	 0.094312	 2.827128	 0.134173
H	 -1.209483	 1.681771	 0.167703
C	 1.181757	 0.280428	 0.247371
H	 1.285389	 1.441198	 -1.557304
H	 -0.009039	 0.284240	 -1.537845
C	 2.151032	 -0.811012	 -0.202643
H	 1.700595	 1.007401	 0.864350
H	 0.412983	 -0.162011	 0.877080
C	 3.580021	 -0.656538	 0.320835
H	 2.170545	 -0.847575	 -1.289412
H	 1.766632	 -1.772905	 0.124928
C	 4.327657	 0.562694	 -0.213579
H	 4.138806	 -1.549270	 0.057813
H	 3.561991	 -0.620783	 1.406976
H	 4.355973	 0.557257	 -1.298551
H	 3.867136	 1.491650	 0.100501
H	 5.351524	 0.571613	 0.142204

	symmetry c1
}
set optking {
	frozen_dihedral = ("
		8 11 14 18
	")
}

ee,wfn = optimize('scf', return_wfn=True)
oeprop( wfn, 'DIPOLE', 'QUADRUPOLE', 'MULLIKEN_CHARGES')
f=open( 'psi4out.xyz', 'w' )
f.write( "25  " )
f.write( str(ee) + "\n" )
f.write( MOL.save_string_xyz() )
f.close()
--------------------------------------------------------------------------

    Molecular point group: c1
  Charge       = 0
  Multiplicity = 1
  Basis Set: CC-PVTZ
  Basis Set:
  @DF-RHF Final Energy:  -387.25497804092055
    Total Energy =                       -387.2549780409203777
    Molecular point group: c1
  Basis Set: CC-PVTZ
  Basis Set:
  Basis Set: CC-PVTZ
  Basis Set:
  @DF-RHF Final Energy:  -387.25512337956673
    Total Energy =                       -387.2551233795668395
  Basis Set: CC-PVTZ
  Basis Set:
  Basis Set: CC-PVTZ
  Basis Set:
  @DF-RHF Final Energy:  -387.25533642791680
    Total Energy =                       -387.2553364279167454
  Basis Set: CC-PVTZ
  Basis Set:
  Basis Set: CC-PVTZ
  Basis Set:
  @DF-RHF Final Energy:  -387.25507104104651
    Total Energy =                       -387.2550710410464490
  Basis Set: CC-PVTZ
  Basis Set:
  Basis Set: CC-PVTZ
  Basis Set:
  @DF-RHF Final Energy:  -387.25531755567488
    Total Energy =                       -387.2553175556744236
  Basis Set: CC-PVTZ
  Basis Set:
  Basis Set: CC-PVTZ
  Basis Set:
  @DF-RHF Final Energy:  -387.25535771111902
    Total Energy =                       -387.2553577111191316
  Basis Set: CC-PVTZ
  Basis Set:
  Charge       = 0
  Multiplicity = 1
  Basis Set: CC-PVTZ
  Basis Set:

    Orbital Energies (a.u.)
    -----------------------

    Doubly Occupied:

       1A    -20.551351     2A    -11.320962     3A    -11.233777
       4A    -11.232638     5A    -11.221947     6A    -11.217812
       7A    -11.216476     8A    -11.214712     9A    -11.209179
      10A     -1.406362    11A     -1.104492    12A     -1.070149
      13A     -1.013450    14A     -0.943728    15A     -0.876223
      16A     -0.820642    17A     -0.788773    18A     -0.783261
      19A     -0.667896    20A     -0.662550    21A     -0.632706
      22A     -0.626454    23A     -0.608523    24A     -0.594038
      25A     -0.572059    26A     -0.555506    27A     -0.534045
      28A     -0.525427    29A     -0.514180    30A     -0.497445
      31A     -0.488513    32A     -0.484622    33A     -0.463458
      34A     -0.454621    35A     -0.442412    36A     -0.411870

  @DF-RHF Final Energy:  -387.25535832310374

   => Energetics <=

    Nuclear Repulsion Energy =            444.1012116458442165
    One-Electron Energy =               -1404.7886212502655781
    Two-Electron Energy =                 573.4320512813176265
    DFT Exchange-Correlation Energy =       0.0000000000000000
    Empirical Dispersion Energy =           0.0000000000000000
    PCM Polarization Energy =               0.0000000000000000
    EFP Energy =                            0.0000000000000000
    Total Energy =                       -387.2553583231037919
    Molecular point group: c1
  Basis Set: CC-PVTZ
  Basis Set:

  -Total Gradient:
     Atom            X                  Y                   Z
    ------   -----------------  -----------------  -----------------
       1        0.000005401844     0.000025258793     0.000033962666
       2       -0.000009446964    -0.000067043016     0.000015567397
       3       -0.000028063787     0.000005753386    -0.000028852121
       4        0.000035824013     0.000035434199    -0.000027450476
       5        0.000017952638    -0.000004080855     0.000001541142
       6       -0.000002036166     0.000005869768     0.000002997145
       7       -0.000004705486    -0.000009297934     0.000000462458
       8        0.000276340897     0.000247380062    -0.000023581569
       9        0.000008092732    -0.000007431367    -0.000004486193
      10        0.000000341842     0.000003202294     0.000006334198
      11       -0.000455706781    -0.000436624157     0.000002861329
      12       -0.000006309339     0.000016893103     0.000009242479
      13       -0.000001955491     0.000001496688    -0.000008243711
      14        0.000506972530     0.000512600928     0.000056770620
      15        0.000010549590     0.000007967061    -0.000008462758
      16        0.000001977891    -0.000006589204     0.000008890969
      17        0.000010081359    -0.000016866316    -0.000098553501
      18       -0.000368958070    -0.000325353669     0.000018797527
      19       -0.000017179446    -0.000018063866     0.000000687393
      20        0.000008510615     0.000026165769     0.000052259267
      21       -0.000003847761    -0.000003661138    -0.000010773740
      22        0.000019273631     0.000019474559    -0.000015455046
      23        0.000014511524    -0.000026053733     0.000018157696
      24       -0.000015865987    -0.000003421639    -0.000015438530
      25       -0.000001755828     0.000016990285     0.000012765355

  **** Optimization is complete! (in 7 steps) ****
    Final optimized geometry and variables:
    Molecular point group: c1

    Geometry (in Angstrom), charge = 0, multiplicity = 1:

    H           -3.487520052059     0.423541725810    -0.850469102713
    C           -2.733669421048     0.960937532158    -1.441906614996
    C           -1.802906018611     1.831164146215    -0.641741428561
    O           -2.706027693312     0.838383697218    -2.617299934067
    C           -1.147872768330     1.083778995171     0.523600153009
    H           -1.064293982843     2.252358874724    -1.311358797023
    H           -2.403363533242     2.649031861366    -0.249536264614
    C           -0.173210893719    -0.005248207133     0.082252070417
    H           -0.626106237094     1.804848856320     1.143597238759
    H           -1.920945981370     0.649073230121     1.152588739342
    C            0.484658894322    -0.730476100983     1.254149054327
    H            0.595281372704     0.436958201151    -0.546003549790
    H           -0.688922190005    -0.730724345577    -0.541871995380
    C            1.469500895874    -1.839844734428     0.827563163217
    H            0.996465354499     0.000097920274     1.872944556268
    H           -0.290790666270    -1.155953966161     1.883229355600
    C            2.892201304225    -1.672706320582     1.364967738183
    H            1.509167213745    -1.896097490240    -0.256555603805
    H            1.089620676889    -2.800687969660     1.156940506428
    C            3.647824436506    -0.486809249084     0.771316609103
    H            3.451281272390    -2.580351383713     1.159459248858
    H            2.857461707756    -1.576393983013     2.446951927172
    H            3.746996690095    -0.590386442473    -0.304185050444
    H            3.144336469010     0.453354814691     0.966332915283
    H            4.645286581812    -0.414033476460     1.189284331393

  Mulliken Charges: (a.u.)
   Center  Symbol    Alpha    Beta     Spin     Total
       1     H     0.46419  0.46419  0.00000  0.07161
       2     C     2.90478  2.90478  0.00000  0.19045
       3     C     3.08919  3.08919  0.00000 -0.17839
       4     O     4.16613  4.16613  0.00000 -0.33225
       5     C     3.11752  3.11752  0.00000 -0.23505
       6     H     0.44278  0.44278  0.00000  0.11444
       7     H     0.44057  0.44057  0.00000  0.11885
       8     C     3.08968  3.08968  0.00000 -0.17936
       9     H     0.44276  0.44276  0.00000  0.11447
      10     H     0.44956  0.44956  0.00000  0.10089
      11     C     3.10861  3.10861  0.00000 -0.21723
      12     H     0.44823  0.44823  0.00000  0.10354
      13     H     0.44641  0.44641  0.00000  0.10717
      14     C     3.10063  3.10063  0.00000 -0.20126
      15     H     0.44999  0.44999  0.00000  0.10003
      16     H     0.44412  0.44412  0.00000  0.11176
      17     C     3.08771  3.08771  0.00000 -0.17541
      18     H     0.45261  0.45261  0.00000  0.09477
      19     H     0.44428  0.44428  0.00000  0.11144
      20     C     3.15257  3.15257  0.00000 -0.30514
      21     H     0.44837  0.44837  0.00000  0.10326
      22     H     0.45457  0.45457  0.00000  0.09085
      23     H     0.45330  0.45330  0.00000  0.09340
      24     H     0.45599  0.45599  0.00000  0.08802
      25     H     0.44543  0.44543  0.00000  0.10914

   Total alpha = 36.00000, Total beta = 36.00000, Total charge =  0.00000

*** Psi4 exiting successfully. Buy a developer a beer!
