  ==> Input File <==

--------------------------------------------------------------------------
set {
	reference rhf
	basis 6-31G*
}

set_num_threads( 4 )
memory 2 gb

molecule MOL {
0 1

H	 -1.748661	 -2.220942	 -0.005015
C	 -1.343207	 -1.225221	 -0.013879
N	 -0.055091	 -1.100174	 -0.261126
C	 -2.150779	 -0.125890	 0.222726
C	 0.449969	 0.122615	 -0.277109
H	 -3.200618	 -0.238980	 0.422496
N	 -1.660212	 1.097703	 0.209594
C	 -0.371804	 1.219904	 -0.038265
C	 1.928147	 0.267347	 -0.541394
H	 0.029131	 2.217482	 -0.051283
C	 2.243718	 1.442548	 -1.472700
H	 2.431028	 0.414646	 0.408488
H	 2.311663	 -0.654151	 -0.967928
H	 3.315096	 1.534919	 -1.619721
H	 1.876752	 2.371143	 -1.051361
H	 1.781555	 1.305886	 -2.445345

	symmetry c1
}
set optking {
	frozen_dihedral = ("
		12 9 5 3
	")
}

ee = optimize('scf')
oeprop('DIPOLE', 'QUADRUPOLE', 'MULLIKEN_CHARGES')
f=open( 'psi4out.xyz', 'w' )
f.write( "16  " )
f.write( str(ee) + "\n" )
f.write( MOL.save_string_xyz() )
f.close()
--------------------------------------------------------------------------

    Molecular point group: c1
  Charge       = 0
  Multiplicity = 1
  Basis Set: 6-31G*
  Basis Set:
  @DF-RHF Final Energy:  -340.75523825208023
    Total Energy =                       -340.7552382520802325
    Molecular point group: c1
  Basis Set: 6-31G*
  Basis Set:
  Basis Set: 6-31G*
  Basis Set:
  @DF-RHF Final Energy:  -340.75597514930359
    Total Energy =                       -340.7559751493036515
  Basis Set: 6-31G*
  Basis Set:
  Basis Set: 6-31G*
  Basis Set:
  @DF-RHF Final Energy:  -340.75630767077052
    Total Energy =                       -340.7563076707705818
  Basis Set: 6-31G*
  Basis Set:
  Basis Set: 6-31G*
  Basis Set:
  @DF-RHF Final Energy:  -340.75632933118771
    Total Energy =                       -340.7563293311881125
  Basis Set: 6-31G*
  Basis Set:
  Basis Set: 6-31G*
  Basis Set:
  @DF-RHF Final Energy:  -340.75634136751444
    Total Energy =                       -340.7563413675144943
  Basis Set: 6-31G*
  Basis Set:
  Basis Set: 6-31G*
  Basis Set:
  @DF-RHF Final Energy:  -340.75634787487172
    Total Energy =                       -340.7563478748717216
  Basis Set: 6-31G*
  Basis Set:
  Charge       = 0
  Multiplicity = 1
  Basis Set: 6-31G*
  Basis Set:

    Orbital Energies (a.u.)
    -----------------------

    Doubly Occupied:

       1A    -15.586368     2A    -15.581560     3A    -11.282040
       4A    -11.274930     5A    -11.272133     6A    -11.271112
       7A    -11.232805     8A    -11.223376     9A     -1.312711
      10A     -1.221113    11A     -1.084910    12A     -1.015114
      13A     -0.905864    14A     -0.893516    15A     -0.830187
      16A     -0.714309    17A     -0.709531    18A     -0.655257
      19A     -0.620155    20A     -0.608130    21A     -0.574739
      22A     -0.563805    23A     -0.521405    24A     -0.511235
      25A     -0.504537    26A     -0.480837    27A     -0.428801
      28A     -0.394624    29A     -0.344695

  @DF-RHF Final Energy:  -340.75634870569462

   => Energetics <=

    Nuclear Repulsion Energy =            349.1511274384018293
    One-Electron Energy =               -1152.5753543895757502
    Two-Electron Energy =                 462.6678782454790166
    DFT Exchange-Correlation Energy =       0.0000000000000000
    Empirical Dispersion Energy =           0.0000000000000000
    PCM Polarization Energy =               0.0000000000000000
    EFP Energy =                            0.0000000000000000
    Total Energy =                       -340.7563487056949612
    Molecular point group: c1
  Basis Set: 6-31G*
  Basis Set:

  -Total Gradient:
     Atom            X                  Y                   Z
    ------   -----------------  -----------------  -----------------
       1       -0.000015060466     0.000001443021    -0.000025417968
       2        0.000230861629    -0.000077028459     0.000002922106
       3       -0.000051782227    -0.000195175994     0.000728389939
       4        0.000010945260     0.000218763523     0.000084169696
       5       -0.000172439486     0.000062921013    -0.000944421076
       6       -0.000011767423    -0.000010873250    -0.000048805945
       7       -0.000160238252    -0.000129499359     0.000025728323
       8        0.000200699162    -0.000050492631    -0.000094244518
       9       -0.000073548214     0.001069256852     0.000206330991
      10       -0.000021186553     0.000001317582    -0.000008490333
      11       -0.000010654902    -0.000000255516    -0.000005877403
      12        0.000090119245    -0.000898975237     0.000084926026
      13       -0.000011743613    -0.000003199942     0.000007961915
      14       -0.000006213800    -0.000003559439    -0.000006724668
      15        0.000006974820     0.000006482330    -0.000003124708
      16       -0.000004965182     0.000008875506    -0.000003322376

  **** Optimization is complete! (in 7 steps) ****
    Final optimized geometry and variables:
    Molecular point group: c1

    Geometry (in Angstrom), charge = 0, multiplicity = 1:

    H           -1.646384650533    -2.471875143283     0.258500286083
    C           -1.259875043574    -1.468667071792     0.263359692946
    N            0.027523725011    -1.317572508085     0.012695665603
    C           -2.082757638630    -0.389687757792     0.520773918533
    C            0.514637070653    -0.089684759710     0.011867908529
    H           -3.130062617486    -0.521104165039     0.722339289280
    N           -1.609433968131     0.843186167932     0.528579473916
    C           -0.326746524898     0.991179339229     0.277752141268
    C            1.996587728215     0.070565291770    -0.246160043087
    H            0.052220864846     1.996338466349     0.289277335506
    C            2.370029481462     1.203825056523    -1.205589416274
    H            2.503667830794     0.213885879916     0.705632662624
    H            2.349558145891    -0.874752355976    -0.638774001381
    H            3.439477429918     1.199417079489    -1.387333935530
    H            2.113533889640     2.180111193814    -0.808817464664
    H            1.868015234941     1.088492535811    -2.160759341001

  Mulliken Charges: (a.u.)
   Center  Symbol    Alpha    Beta     Spin     Total
       1     H     0.39385  0.39385  0.00000  0.21229
       2     C     2.99061  2.99061  0.00000  0.01878
       3     N     3.75730  3.75730  0.00000 -0.51459
       4     C     2.99819  2.99819  0.00000  0.00362
       5     C     2.87410  2.87410  0.00000  0.25181
       6     H     0.39430  0.39430  0.00000  0.21141
       7     N     3.73032  3.73032  0.00000 -0.46063
       8     C     2.99359  2.99359  0.00000  0.01283
       9     C     3.17364  3.17364  0.00000 -0.34728
      10     H     0.39431  0.39431  0.00000  0.21138
      11     C     3.24702  3.24702  0.00000 -0.49404
      12     H     0.40813  0.40813  0.00000  0.18375
      13     H     0.39868  0.39868  0.00000  0.20264
      14     H     0.41353  0.41353  0.00000  0.17293
      15     H     0.41916  0.41916  0.00000  0.16169
      16     H     0.41329  0.41329  0.00000  0.17341

   Total alpha = 29.00000, Total beta = 29.00000, Total charge =  0.00000
