  ==> Input File <==

--------------------------------------------------------------------------
set {
	reference rhf
	basis 6-31G*
}

set_num_threads( 1 )
memory 2 gb

molecule MOL {
0 1

H	 -1.764462	 -0.373314	 -1.056230
O	 -1.422729	 -0.573567	 -0.196946
C	 -0.731407	 0.539437	 0.309156
C	 0.680193	 0.672443	 -0.251532
H	 -1.319765	 1.404033	 0.030086
H	 -0.700012	 0.506517	 1.397677
C	 1.599139	 -0.492137	 0.118598
H	 0.616402	 0.758534	 -1.332349
H	 1.107032	 1.602637	 0.117369
H	 1.239738	 -1.428634	 -0.297334
H	 2.601428	 -0.335055	 -0.265730
H	 1.674954	 -0.608418	 1.197020

	symmetry c1
}
set optking {
	frozen_dihedral = ("
		8 4 3 2
	")
}

ee = energy('scf')
oeprop('DIPOLE', 'QUADRUPOLE', 'MULLIKEN_CHARGES')
f=open( 'psi4out.xyz', 'w' )
f.write( "12  " )
f.write( str(ee) + "\n" )
f.write( MOL.save_string_xyz() )
f.close()
--------------------------------------------------------------------------

    Molecular point group: c1

    Geometry (in Angstrom), charge = 0, multiplicity = 1:

       Center              X                  Y                   Z               Mass
    ------------   -----------------  -----------------  -----------------  -----------------
           H         -1.752823557542    -0.389981425466    -1.035473218255     1.007825032070
           O         -1.411090557542    -0.590234425466    -0.176189218255    15.994914619560
           C         -0.719768557542     0.522769574534     0.329912781745    12.000000000000
           C          0.691831442458     0.655775574534    -0.230775218255    12.000000000000
           H         -1.308126557542     1.387365574534     0.050842781745     1.007825032070
           H         -0.688373557542     0.489849574534     1.418433781745     1.007825032070
           C          1.610777442458    -0.508804425466     0.139354781745    12.000000000000
           H          0.628040442458     0.741866574534    -1.311592218255     1.007825032070
           H          1.118670442458     1.585969574534     0.138125781745     1.007825032070
           H          1.251376442458    -1.445301425466    -0.276577218255     1.007825032070
           H          2.613066442458    -0.351722425466    -0.244973218255     1.007825032070
           H          1.686592442458    -0.625085425466     1.217776781745     1.007825032070

  Charge       = 0
  Multiplicity = 1
  Basis Set: 6-31G*
  Basis Set:

    Orbital Energies (a.u.)
    -----------------------

    Doubly Occupied:

       1A    -20.552096     2A    -11.268894     3A    -11.217862
       4A    -11.206822     5A     -1.360055     6A     -1.047400
       7A     -0.920169     8A     -0.809988     9A     -0.686358
      10A     -0.641167    11A     -0.616009    12A     -0.567340
      13A     -0.524641    14A     -0.521378    15A     -0.484389
      16A     -0.464232    17A     -0.427625

  @DF-RHF Final Energy:  -193.10823118848128

   => Energetics <=

    Nuclear Repulsion Energy =            132.7433280610853785
    One-Electron Energy =                -525.0704221036507988
    Two-Electron Energy =                 199.2188628540841933
    DFT Exchange-Correlation Energy =       0.0000000000000000
    Empirical Dispersion Energy =           0.0000000000000000
    PCM Polarization Energy =               0.0000000000000000
    EFP Energy =                            0.0000000000000000
    Total Energy =                       -193.1082311884812270

  Mulliken Charges: (a.u.)
   Center  Symbol    Alpha    Beta     Spin     Total
       1     H     0.28105  0.28105  0.00000  0.43789
       2     O     4.36982  4.36982  0.00000 -0.73965
       3     C     2.99783  2.99783  0.00000  0.00435
       4     C     3.16077  3.16077  0.00000 -0.32154
       5     H     0.43013  0.43013  0.00000  0.13974
       6     H     0.41727  0.41727  0.00000  0.16547
       7     C     3.24042  3.24042  0.00000 -0.48085
       8     H     0.42615  0.42615  0.00000  0.14770
       9     H     0.42350  0.42350  0.00000  0.15301
      10     H     0.41043  0.41043  0.00000  0.17914
      11     H     0.42058  0.42058  0.00000  0.15884
      12     H     0.42205  0.42205  0.00000  0.15590

   Total alpha = 17.00000, Total beta = 17.00000, Total charge = -0.00000
