  ==> Input File <==

--------------------------------------------------------------------------
set {
	reference rhf
	basis 6-31G*
}

set_num_threads( 4 )
memory 2 gb

molecule MOL {
0 1

H	 2.332609	 0.878551	 -1.051851
C	 2.357710	 0.000000	 -0.417167
C	 1.175432	 0.000000	 0.532082
H	 3.291263	 0.000000	 0.136880
H	 2.332609	 -0.878551	 -1.051851
O	 0.000000	 0.000000	 -0.221444
H	 1.206604	 0.877321	 1.177902
H	 1.206604	 -0.877321	 1.177902
C	 -1.175432	 0.000000	 0.532082
C	 -2.090799	 1.084889	 -0.000811
H	 -0.947040	 0.177706	 1.582798
H	 -1.661864	 -0.973135	 0.467737
H	 -1.611070	 2.054226	 0.073684
H	 -3.017407	 1.113117	 0.564069
H	 -2.326896	 0.901772	 -1.042940

	symmetry c1
}
set optking {
	frozen_dihedral = ("
		11 9 6 3
	")
}

ee = optimize('scf')
oeprop('DIPOLE', 'QUADRUPOLE', 'MULLIKEN_CHARGES')
f=open( 'psi4out.xyz', 'w' )
f.write( "15  " )
f.write( str(ee) + "\n" )
f.write( MOL.save_string_xyz() )
f.close()
--------------------------------------------------------------------------

    Molecular point group: c1
  Charge       = 0
  Multiplicity = 1
  Basis Set: 6-31G*
  Basis Set:
  @DF-RHF Final Energy:  -232.14093204503951
    Total Energy =                       -232.1409320450394489
    Molecular point group: c1
  Basis Set: 6-31G*
  Basis Set:
  Basis Set: 6-31G*
  Basis Set:
  @DF-RHF Final Energy:  -232.14120353958248
    Total Energy =                       -232.1412035395824205
  Basis Set: 6-31G*
  Basis Set:
  Charge       = 0
  Multiplicity = 1
  Basis Set: 6-31G*
  Basis Set:

    Orbital Energies (a.u.)
    -----------------------

    Doubly Occupied:

       1A    -20.548016     2A    -11.268912     3A    -11.267706
       4A    -11.208726     5A    -11.208448     6A     -1.373113
       7A     -1.042937     8A     -0.982842     9A     -0.850237
      10A     -0.823633    11A     -0.671255    12A     -0.662659
      13A     -0.624248    14A     -0.580590    15A     -0.549992
      16A     -0.535475    17A     -0.522392    18A     -0.499184
      19A     -0.485662    20A     -0.462907    21A     -0.404945

  @DF-RHF Final Energy:  -232.14129797219712

   => Energetics <=

    Nuclear Repulsion Energy =            191.2080936069266670
    One-Electron Energy =                -693.5510252054600642
    Two-Electron Energy =                 270.2016336263363314
    DFT Exchange-Correlation Energy =       0.0000000000000000
    Empirical Dispersion Energy =           0.0000000000000000
    PCM Polarization Energy =               0.0000000000000000
    EFP Energy =                            0.0000000000000000
    Total Energy =                       -232.1412979721970373
    Molecular point group: c1
  Basis Set: 6-31G*
  Basis Set:

  -Total Gradient:
     Atom            X                  Y                   Z
    ------   -----------------  -----------------  -----------------
       1        0.000021650341     0.000013312028    -0.000023996107
       2       -0.000180123249    -0.000053094712    -0.000049746294
       3        0.000350530702     0.001461668967     0.000221681508
       4       -0.000094922331     0.000006728135     0.000050088568
       5        0.000044438580    -0.000015070958    -0.000050862585
       6       -0.000109064411    -0.002566482723     0.000135884400
       7        0.000013818902     0.000013459472     0.000001123879
       8       -0.000013471395     0.000006918849    -0.000081920552
       9       -0.000136421836     0.002773435381    -0.000358693435
      10       -0.000150717386     0.000137760743    -0.000028160469
      11        0.000076946489    -0.001759896877     0.000154136505
      12        0.000096593253    -0.000080698140     0.000068782786
      13        0.000025314467     0.000093771784    -0.000004741681
      14        0.000074118304    -0.000044064070    -0.000026454843
      15       -0.000018690427     0.000012252124    -0.000007121681

  **** Optimization is complete! (in 3 steps) ****
    Final optimized geometry and variables:
    Molecular point group: c1

    Geometry (in Angstrom), charge = 0, multiplicity = 1:

    H            2.271804671242     0.655067052356    -1.144341463459
    C            2.306005235847    -0.228076408598    -0.516350817914
    C            1.140195173637    -0.232474451824     0.452451823526
    H            3.248422023295    -0.233776936978     0.022679629560
    H            2.268814263341    -1.101972074728    -1.156907730702
    O           -0.046209929948    -0.219763281264    -0.286293417831
    H            1.185982166038     0.638780353351     1.104664948321
    H            1.182143027027    -1.116058785117     1.088235761800
    C           -1.237810113889    -0.200853071317     0.452523706159
    C           -2.165817878081     0.866850048908    -0.098458411874
    H           -1.031562791423    -0.022469253702     1.504761113202
    H           -1.707128307604    -1.179618379577     0.387153798531
    H           -1.718135008749     1.850131725736     0.000578527835
    H           -3.113454543303     0.862753154038     0.432041919053
    H           -2.360402859845     0.688754175701    -1.150142627803

  Mulliken Charges: (a.u.)
   Center  Symbol    Alpha    Beta     Spin     Total
       1     H     0.41358  0.41358  0.00000  0.17285
       2     C     3.24448  3.24448  0.00000 -0.48896
       3     C     2.98810  2.98810  0.00000  0.02381
       4     H     0.42282  0.42282  0.00000  0.15436
       5     H     0.41319  0.41319  0.00000  0.17362
       6     O     4.31215  4.31215  0.00000 -0.62431
       7     H     0.43216  0.43216  0.00000  0.13569
       8     H     0.43203  0.43203  0.00000  0.13594
       9     C     2.98844  2.98844  0.00000  0.02312
      10     C     3.24248  3.24248  0.00000 -0.48495
      11     H     0.43111  0.43111  0.00000  0.13779
      12     H     0.42521  0.42521  0.00000  0.14958
      13     H     0.41776  0.41776  0.00000  0.16448
      14     H     0.42403  0.42403  0.00000  0.15195
      15     H     0.41248  0.41248  0.00000  0.17504

   Total alpha = 21.00000, Total beta = 21.00000, Total charge = -0.00000
