                              Psi4 1.0.54 Driver

  ==> Input File <==

--------------------------------------------------------------------------
set {
	reference rhf
	basis cc-pvtz
}

set_num_threads( 4 )
memory 2 gb

molecule MOL {
0 1

O	 -2.374409	 1.338660	 -0.336961
C	 -2.104891	 0.204655	 -0.107126
C	 -0.881910	 -0.448129	 -0.720509
C	 -2.949910	 -0.638219	 0.818225
C	 0.399795	 0.286200	 -0.307186
H	 -0.993344	 -0.406697	 -1.796602
H	 -0.822408	 -1.489763	 -0.423315
C	 1.650173	 -0.339179	 -0.921970
H	 0.308334	 1.322990	 -0.605398
H	 0.493279	 0.278911	 0.776099
C	 2.964556	 0.317877	 -0.497021
H	 1.567997	 -0.309010	 -2.005629
H	 1.685081	 -1.390257	 -0.648801
C	 3.145940	 1.753590	 -0.983548
H	 3.784402	 -0.284390	 -0.875748
H	 3.045339	 0.290535	 0.586519
H	 3.064116	 1.811488	 -2.064077
H	 4.123349	 2.131293	 -0.706452
H	 2.407120	 2.423049	 -0.560170
H	 -3.440322	 -1.417144	 0.243099
H	 -3.694377	 -0.025850	 1.303346
H	 -2.331085	 -1.129829	 1.560495

	symmetry c1
}
set optking {
	frozen_dihedral = ("
		6 3 2 1
	")
}

ee,wfn = optimize('scf', return_wfn=True)
oeprop( wfn, 'DIPOLE', 'QUADRUPOLE', 'MULLIKEN_CHARGES')
f=open( 'psi4out.xyz', 'w' )
f.write( "22  " )
f.write( str(ee) + "\n" )
f.write( MOL.save_string_xyz() )
f.close()
--------------------------------------------------------------------------

    Molecular point group: c1
  Charge       = 0
  Multiplicity = 1
  Basis Set: CC-PVTZ
  Basis Set:
  @DF-RHF Final Energy:  -348.22321546192131
    Total Energy =                       -348.2232154619208018
    Molecular point group: c1
  Basis Set: CC-PVTZ
  Basis Set:
  Basis Set: CC-PVTZ
  Basis Set:
  @DF-RHF Final Energy:  -348.22283564269929
    Total Energy =                       -348.2228356426993514
  Basis Set: CC-PVTZ
  Basis Set:
  Basis Set: CC-PVTZ
  Basis Set:
  @DF-RHF Final Energy:  -348.22329322967556
    Total Energy =                       -348.2232932296757895
  Basis Set: CC-PVTZ
  Basis Set:
  Basis Set: CC-PVTZ
  Basis Set:
  @DF-RHF Final Energy:  -348.22339606346435
    Total Energy =                       -348.2233960634648611
  Basis Set: CC-PVTZ
  Basis Set:
  Basis Set: CC-PVTZ
  Basis Set:
  @DF-RHF Final Energy:  -348.22327481096715
    Total Energy =                       -348.2232748109677232
  Basis Set: CC-PVTZ
  Basis Set:
  Basis Set: CC-PVTZ
  Basis Set:
  @DF-RHF Final Energy:  -348.22343333875045
    Total Energy =                       -348.2234333387506808
  Basis Set: CC-PVTZ
  Basis Set:
  Basis Set: CC-PVTZ
  Basis Set:
  @DF-RHF Final Energy:  -348.22343534526811
    Total Energy =                       -348.2234353452678874
  Basis Set: CC-PVTZ
  Basis Set:
  Charge       = 0
  Multiplicity = 1
  Basis Set: CC-PVTZ
  Basis Set:

    Orbital Energies (a.u.)
    -----------------------

    Doubly Occupied:

       1A    -20.536936     2A    -11.320062     3A    -11.228084
       4A    -11.227386     5A    -11.222517     6A    -11.218076
       7A    -11.216788     8A    -11.207233     9A     -1.397664
      10A     -1.094447    11A     -1.044096    12A     -1.001814
      13A     -0.937228    14A     -0.856229    15A     -0.784727
      16A     -0.733586    17A     -0.663269    18A     -0.646441
      19A     -0.625599    20A     -0.622773    21A     -0.598099
      22A     -0.582794    23A     -0.564419    24A     -0.545308
      25A     -0.532307    26A     -0.515474    27A     -0.500397
      28A     -0.487123    29A     -0.469323    30A     -0.462694
      31A     -0.459603    32A     -0.399063

  @DF-RHF Final Energy:  -348.22343497768105

   => Energetics <=

    Nuclear Repulsion Energy =            373.3565307331498957
    One-Electron Energy =               -1211.7568125155949019
    Two-Electron Energy =                 490.1768468047641250
    DFT Exchange-Correlation Energy =       0.0000000000000000
    Empirical Dispersion Energy =           0.0000000000000000
    PCM Polarization Energy =               0.0000000000000000
    EFP Energy =                            0.0000000000000000
    Total Energy =                       -348.2234349776809381
    Molecular point group: c1
  Basis Set: CC-PVTZ
  Basis Set:

  -Total Gradient:
     Atom            X                  Y                   Z
    ------   -----------------  -----------------  -----------------
       1       -0.000025608538    -0.000334886311    -0.000194397972
       2        0.000167809287     0.000376185595     0.000342368428
       3       -0.000270016310    -0.000374025736    -0.000120554057
       4       -0.000025406499     0.000026550960    -0.000116837910
       5       -0.000025551202    -0.000041089183     0.000082773021
       6        0.000109753438     0.000247219893     0.000121417640
       7        0.000007305249     0.000112725614    -0.000031395822
       8       -0.000049396084    -0.000003233662    -0.000057963080
       9       -0.000017142933    -0.000114332207     0.000012174887
      10        0.000005575397     0.000042372002    -0.000080333043
      11        0.000010914031     0.000023735613     0.000056209341
      12        0.000003422081     0.000007202954     0.000061987406
      13       -0.000004242034     0.000054363533    -0.000044268825
      14       -0.000036172938     0.000023924516    -0.000030637381
      15       -0.000096687058     0.000024303000     0.000053483161
      16       -0.000005694520     0.000021534499    -0.000076939224
      17       -0.000005004425    -0.000004841505     0.000088953394
      18       -0.000017639682    -0.000000759630    -0.000009548807
      19        0.000126708297    -0.000060144618    -0.000046040163
      20        0.000006486712     0.000046861208     0.000063542204
      21        0.000155883292    -0.000085768552    -0.000069096797
      22       -0.000015295559     0.000012102018    -0.000004896399

  **** Optimization is complete! (in 8 steps) ****
    Final optimized geometry and variables:
    Molecular point group: c1

    Geometry (in Angstrom), charge = 0, multiplicity = 1:

    O           -2.378843843617     0.965620361788     0.005072898440
    C           -2.088572474392    -0.154289057371     0.274045576179
    C           -0.840743176457    -0.796583630497    -0.305935300689
    C           -2.937528572507    -0.993604730628     1.196199026493
    C            0.426956313939    -0.032603229046     0.084758837734
    H           -0.952282274240    -0.783530909104    -1.385214412724
    H           -0.768021492650    -1.832905449343     0.002923117055
    C            1.683526709809    -0.632025224842    -0.541989485449
    H            0.305086234725     0.999684643182    -0.212733432490
    H            0.530149061307    -0.035290701139     1.167347126199
    C            2.988308725732     0.047101678281    -0.122403880982
    H            1.594031433350    -0.597220849728    -1.625170170957
    H            1.741402156533    -1.684038406593    -0.276013645356
    C            3.141550036754     1.486626864426    -0.607016929760
    H            3.816961029942    -0.539855786678    -0.505754455104
    H            3.074324727101     0.019579489183     0.960576922668
    H            3.054570238659     1.544751403519    -1.687058179025
    H            4.112966563355     1.881758602535    -0.333069387036
    H            2.392120309710     2.141264702871    -0.179809003475
    H           -3.284355690776    -1.878012632510     0.672032405814
    H           -3.781589197403    -0.422586074450     1.550378613037
    H           -2.342213879305    -1.334360271979     2.037078151407

  Mulliken Charges: (a.u.)
   Center  Symbol    Alpha    Beta     Spin     Total
       1     O     4.17653  4.17653  0.00000 -0.35306
       2     C     2.85858  2.85858  0.00000  0.28283
       3     C     3.10221  3.10221  0.00000 -0.20442
       4     C     3.15343  3.15343  0.00000 -0.30685
       5     C     3.09744  3.09744  0.00000 -0.19489
       6     H     0.44192  0.44192  0.00000  0.11617
       7     H     0.44735  0.44735  0.00000  0.10530
       8     C     3.09681  3.09681  0.00000 -0.19363
       9     H     0.43654  0.43654  0.00000  0.12692
      10     H     0.45374  0.45374  0.00000  0.09252
      11     C     3.09065  3.09065  0.00000 -0.18131
      12     H     0.45230  0.45230  0.00000  0.09541
      13     H     0.44958  0.44958  0.00000  0.10084
      14     C     3.15191  3.15191  0.00000 -0.30381
      15     H     0.44810  0.44810  0.00000  0.10379
      16     H     0.45464  0.45464  0.00000  0.09073
      17     H     0.45438  0.45438  0.00000  0.09124
      18     H     0.44662  0.44662  0.00000  0.10677
      19     H     0.45149  0.45149  0.00000  0.09702
      20     H     0.44893  0.44893  0.00000  0.10214
      21     H     0.43639  0.43639  0.00000  0.12721
      22     H     0.45045  0.45045  0.00000  0.09910

   Total alpha = 32.00000, Total beta = 32.00000, Total charge = -0.00000

*** Psi4 exiting successfully. Buy a developer a beer!
