  ==> Input File <==

--------------------------------------------------------------------------
set {
	reference rhf
	basis 6-31G*
}

set_num_threads( 1 )
memory 2 gb

molecule MOL {
0 1

H	 -3.892951	 0.981613	 -0.358725
C	 -3.196921	 0.361773	 0.172313
C	 -2.076860	 -0.007332	 -0.404944
H	 -3.439953	 0.057760	 1.173024
O	 -2.033152	 -1.018833	 -1.311485
H	 -1.136226	 0.477489	 -0.211677
C	 -0.792038	 -1.462489	 -1.741200
C	 -0.225356	 -2.518325	 -0.819042
H	 -0.069813	 -0.657259	 -1.816646
H	 -0.921231	 -1.909079	 -2.716060
F	 0.940515	 -2.935698	 -1.290583
F	 -0.019924	 -2.046538	 0.399583
F	 -1.019564	 -3.563843	 -0.716492

	symmetry c1
}
set optking {
	frozen_dihedral = ("
		11 8 7 9,
		3 5 7 9,
		6 3 5 7
	")
}

ee = energy('scf')
oeprop('DIPOLE', 'QUADRUPOLE', 'MULLIKEN_CHARGES')
f=open( 'psi4out.xyz', 'w' )
f.write( "13  " )
f.write( str(ee) + "\n" )
f.write( MOL.save_string_xyz() )
f.close()
--------------------------------------------------------------------------

    Molecular point group: c1

    Geometry (in Angstrom), charge = 0, multiplicity = 1:

       Center              X                  Y                   Z               Mass
    ------------   -----------------  -----------------  -----------------  -----------------
           H         -2.945323982500     2.752885675406     0.347398262779     1.007825032070
           C         -2.249293982500     2.133045675406     0.878436262779    12.000000000000
           C         -1.129232982500     1.763940675406     0.301179262779    12.000000000000
           H         -2.492325982500     1.829032675406     1.879147262779     1.007825032070
           O         -1.085524982500     0.752439675406    -0.605361737221    15.994914619560
           H         -0.188598982500     2.248761675406     0.494446262779     1.007825032070
           C          0.155589017500     0.308783675406    -1.035076737221    12.000000000000
           C          0.722271017500    -0.747052324594    -0.112918737221    12.000000000000
           H          0.877814017500     1.114013675406    -1.110522737221     1.007825032070
           H          0.026396017500    -0.137806324594    -2.009936737221     1.007825032070
           F          1.888142017500    -1.164425324594    -0.584459737221    18.998403224000
           F          0.927703017500    -0.275265324594     1.105706262779    18.998403224000
           F         -0.071936982500    -1.792570324594    -0.010368737221    18.998403224000

  Charge       = 0
  Multiplicity = 1
  Basis Set: 6-31G*
  Basis Set:

    Orbital Energies (a.u.)
    -----------------------

    Doubly Occupied:

       1A    -26.352245     2A    -26.350671     3A    -26.347384
       4A    -20.633819     5A    -11.512785     6A    -11.347438
       7A    -11.328698     8A    -11.169962     9A     -1.748917
      10A     -1.647027    11A     -1.645132    12A     -1.460417
      13A     -1.093639    14A     -1.018973    15A     -0.932692
      16A     -0.844460    17A     -0.838137    18A     -0.829441
      19A     -0.802265    20A     -0.730099    21A     -0.717476
      22A     -0.703587    23A     -0.679451    24A     -0.667277
      25A     -0.659891    26A     -0.649888    27A     -0.645289
      28A     -0.587498    29A     -0.574490    30A     -0.538487
      31A     -0.509911    32A     -0.268814

  @DF-RHF Final Energy:  -527.40299667165073

   => Energetics <=

    Nuclear Repulsion Energy =            413.4821694476633525
    One-Electron Energy =               -1550.0979936096391611
    Two-Electron Energy =                 609.2128274903259353
    DFT Exchange-Correlation Energy =       0.0000000000000000
    Empirical Dispersion Energy =           0.0000000000000000
    PCM Polarization Energy =               0.0000000000000000
    EFP Energy =                            0.0000000000000000
    Total Energy =                       -527.4029966716498166

  Mulliken Charges: (a.u.)
   Center  Symbol    Alpha    Beta     Spin     Total
       1     H     0.40468  0.40468  0.00000  0.19064
       2     C     3.32816  3.32816  0.00000 -0.65633
       3     C     2.84878  2.84878  0.00000  0.30243
       4     H     0.39759  0.39759  0.00000  0.20482
       5     O     4.27071  4.27071  0.00000 -0.54142
       6     H     0.40319  0.40319  0.00000  0.19361
       7     C     3.07365  3.07365  0.00000 -0.14730
       8     C     2.45269  2.45269  0.00000  1.09462
       9     H     0.40159  0.40159  0.00000  0.19682
      10     H     0.38604  0.38604  0.00000  0.22792
      11     F     4.68142  4.68142  0.00000 -0.36284
      12     F     4.67842  4.67842  0.00000 -0.35684
      13     F     4.67307  4.67307  0.00000 -0.34615

   Total alpha = 32.00000, Total beta = 32.00000, Total charge =  0.00000
