  ==> Input File <==

--------------------------------------------------------------------------
set {
	reference rhf
	basis 6-31G*
}

set_num_threads( 4 )
memory 2 gb

molecule MOL {
0 1

H	 -1.836216	 1.387520	 -0.000064
C	 -1.301823	 0.443321	 -0.000031
O	 -0.003969	 0.658512	 0.000451
O	 -1.829879	 -0.616434	 -0.000857
C	 0.837918	 -0.409596	 0.433533
C	 2.268714	 0.075374	 0.344396
H	 0.664669	 -1.268750	 -0.199836
H	 0.567139	 -0.679304	 1.445082
H	 2.519718	 0.348558	 -0.674133
H	 2.944328	 -0.710395	 0.665869
H	 2.421881	 0.940872	 0.978699

	symmetry c1
}
set optking {
	frozen_dihedral = ("
		5 3 2 4
	")
}

ee = optimize('scf')
oeprop('DIPOLE', 'QUADRUPOLE', 'MULLIKEN_CHARGES')
f=open( 'psi4out.xyz', 'w' )
f.write( "11  " )
f.write( str(ee) + "\n" )
f.write( MOL.save_string_xyz() )
f.close()
--------------------------------------------------------------------------

    Molecular point group: c1
  Charge       = 0
  Multiplicity = 1
  Basis Set: 6-31G*
  Basis Set:
  @DF-RHF Final Energy:  -266.82638664453236
    Total Energy =                       -266.8263866445323629
    Molecular point group: c1
  Basis Set: 6-31G*
  Basis Set:
  Basis Set: 6-31G*
  Basis Set:
  @DF-RHF Final Energy:  -266.82092401790624
    Total Energy =                       -266.8209240179061794
  Basis Set: 6-31G*
  Basis Set:
  Basis Set: 6-31G*
  Basis Set:
  @DF-RHF Final Energy:  -266.82661085646453
    Total Energy =                       -266.8266108564645265
  Basis Set: 6-31G*
  Basis Set:
  Basis Set: 6-31G*
  Basis Set:
  @DF-RHF Final Energy:  -266.82668730085823
    Total Energy =                       -266.8266873008581115
  Basis Set: 6-31G*
  Basis Set:
  Basis Set: 6-31G*
  Basis Set:
  @DF-RHF Final Energy:  -266.82668971040448
    Total Energy =                       -266.8266897104047075
  Basis Set: 6-31G*
  Basis Set:
  Charge       = 0
  Multiplicity = 1
  Basis Set: 6-31G*
  Basis Set:

    Orbital Energies (a.u.)
    -----------------------

    Doubly Occupied:

       1A    -20.610761     2A    -20.558242     3A    -11.378592
       4A    -11.292908     5A    -11.227125     6A     -1.474955
       7A     -1.374283     8A     -1.052599     9A     -0.901710
      10A     -0.806863    11A     -0.737501    12A     -0.689598
      13A     -0.677173    14A     -0.595497    15A     -0.571614
      16A     -0.557782    17A     -0.518352    18A     -0.515124
      19A     -0.460445    20A     -0.453426

  @DF-RHF Final Energy:  -266.82669371711103

   => Energetics <=

    Nuclear Repulsion Energy =            179.0613792279379481
    One-Electron Energy =                -718.8670428679138240
    Two-Electron Energy =                 272.9789699228647351
    DFT Exchange-Correlation Energy =       0.0000000000000000
    Empirical Dispersion Energy =           0.0000000000000000
    PCM Polarization Energy =               0.0000000000000000
    EFP Energy =                            0.0000000000000000
    Total Energy =                       -266.8266937171110840
    Molecular point group: c1
  Basis Set: 6-31G*
  Basis Set:

  -Total Gradient:
     Atom            X                  Y                   Z
    ------   -----------------  -----------------  -----------------
       1        0.000018236895    -0.000004960380     0.000000492814
       2        0.000745226961     0.001712793677     0.013115743644
       3       -0.000350862097    -0.003343610490    -0.010996714632
       4       -0.000445354508    -0.000455346462    -0.006993856417
       5        0.000050540027     0.002058161460     0.004879341630
       6       -0.000004270268     0.000018105097     0.000002955914
       7       -0.000011751655    -0.000007772869    -0.000001865406
       8       -0.000002652441     0.000021158600    -0.000014771285
       9       -0.000003143741    -0.000003019948     0.000005157924
      10       -0.000005149747    -0.000002518920     0.000001425429
      11        0.000009180575     0.000007010235     0.000002090386

  **** Optimization is complete! (in 6 steps) ****
    Final optimized geometry and variables:
    Molecular point group: c1

    Geometry (in Angstrom), charge = 0, multiplicity = 1:

    H           -1.813876456545     1.375171454200    -0.222565487417
    C           -1.295769144522     0.425532133479    -0.137463522430
    O            0.006466794071     0.607456360648    -0.224748649298
    O           -1.845032034015    -0.618671381871    -0.044266036639
    C            0.851591016649    -0.453161788379     0.221977899695
    C            2.276786898791     0.054151578106     0.181892406367
    H            0.713980253207    -1.310802044544    -0.421562389163
    H            0.553806168135    -0.733791276446     1.223524233494
    H            2.553342468033     0.340585168187    -0.826198012336
    H            2.954393125656    -0.724753822610     0.515843390096
    H            2.397160333787     0.915789050595     0.828356617410

  Mulliken Charges: (a.u.)
   Center  Symbol    Alpha    Beta     Spin     Total
       1     H     0.41138  0.41138  0.00000  0.17723
       2     C     2.72779  2.72779  0.00000  0.54441
       3     O     4.29255  4.29255  0.00000 -0.58510
       4     O     4.26022  4.26022  0.00000 -0.52045
       5     C     3.00599  3.00599  0.00000 -0.01198
       6     C     3.24921  3.24921  0.00000 -0.49843
       7     H     0.40627  0.40627  0.00000  0.18747
       8     H     0.41103  0.41103  0.00000  0.17794
       9     H     0.40946  0.40946  0.00000  0.18108
      10     H     0.41509  0.41509  0.00000  0.16981
      11     H     0.41100  0.41100  0.00000  0.17800

   Total alpha = 20.00000, Total beta = 20.00000, Total charge =  0.00000
