                              Psi4 1.0.54 Driver

  ==> Input File <==

--------------------------------------------------------------------------
set {
	reference rhf
	basis cc-pvtz
}

set_num_threads( 4 )
memory 2 gb

molecule MOL {
0 1

O	 -2.657961	 1.083090	 -1.061652
C	 -2.580700	 0.013639	 -0.558931
C	 -3.721860	 -0.965344	 -0.498664
O	 -1.481217	 -0.452708	 0.001092
H	 -4.048234	 -1.175959	 -1.508219
H	 -3.441565	 -1.881082	 -0.003185
H	 -4.546935	 -0.499896	 0.023526
C	 -0.332055	 0.384012	 -0.000250
C	 0.892252	 -0.506059	 -0.000295
H	 -0.360822	 1.020205	 -0.874146
H	 -0.359817	 1.021310	 0.872861
C	 2.188199	 0.299473	 -0.001416
H	 0.857046	 -1.152781	 -0.871031
H	 0.857910	 -1.151798	 0.871202
C	 3.437151	 -0.577593	 -0.000991
H	 2.209565	 0.950707	 -0.871712
H	 2.210062	 0.952234	 0.867721
C	 4.732399	 0.226982	 -0.000914
H	 3.417321	 -1.229122	 -0.869998
H	 3.416993	 -1.228707	 0.868337
H	 4.797903	 0.863451	 -0.876963
H	 5.598517	 -0.424436	 -0.000420
H	 4.797415	 0.864118	 0.874691

	symmetry c1
}
set optking {
	frozen_dihedral = ("
		2 4 8 10
	")
}

ee,wfn = optimize('scf', return_wfn=True)
oeprop( wfn, 'DIPOLE', 'QUADRUPOLE', 'MULLIKEN_CHARGES')
f=open( 'psi4out.xyz', 'w' )
f.write( "23  " )
f.write( str(ee) + "\n" )
f.write( MOL.save_string_xyz() )
f.close()
--------------------------------------------------------------------------

    Molecular point group: c1
  Charge       = 0
  Multiplicity = 1
  Basis Set: CC-PVTZ
  Basis Set:
  @DF-RHF Final Energy:  -423.13353848112718
    Total Energy =                       -423.1335384811276299
    Molecular point group: c1
  Basis Set: CC-PVTZ
  Basis Set:
  Basis Set: CC-PVTZ
  Basis Set:
  @DF-RHF Final Energy:  -423.13333571015164
    Total Energy =                       -423.1333357101518686
  Basis Set: CC-PVTZ
  Basis Set:
  Basis Set: CC-PVTZ
  Basis Set:
  @DF-RHF Final Energy:  -423.13261452744712
    Total Energy =                       -423.1326145274467763
  Basis Set: CC-PVTZ
  Basis Set:
  Basis Set: CC-PVTZ
  Basis Set:
  @DF-RHF Final Energy:  -423.13375998638440
    Total Energy =                       -423.1337599863841206
  Basis Set: CC-PVTZ
  Basis Set:
  Basis Set: CC-PVTZ
  Basis Set:
  @DF-RHF Final Energy:  -423.13378559472841
    Total Energy =                       -423.1337855947288062
  Basis Set: CC-PVTZ
  Basis Set:
  Charge       = 0
  Multiplicity = 1
  Basis Set: CC-PVTZ
  Basis Set:

    Orbital Energies (a.u.)
    -----------------------

    Doubly Occupied:

       1A    -20.595425     2A    -20.529159     3A    -11.367058
       4A    -11.278773     5A    -11.230369     6A    -11.222455
       7A    -11.221411     8A    -11.219515     9A    -11.210924
      10A     -1.469804    11A     -1.364253    12A     -1.095282
      13A     -1.043236    14A     -1.004055    15A     -0.932094
      16A     -0.843832    17A     -0.802529    18A     -0.775776
      19A     -0.697078    20A     -0.685483    21A     -0.668990
      22A     -0.648606    23A     -0.606769    24A     -0.589073
      25A     -0.585076    26A     -0.569443    27A     -0.557538
      28A     -0.538224    29A     -0.524192    30A     -0.506544
      31A     -0.491513    32A     -0.478433    33A     -0.471923
      34A     -0.469946    35A     -0.451248    36A     -0.437638

  @DF-RHF Final Energy:  -423.13378603845058

   => Energetics <=

    Nuclear Repulsion Energy =            450.6226844535335658
    One-Electron Energy =               -1469.1456093116498778
    Two-Electron Energy =                 595.3891388196665275
    DFT Exchange-Correlation Energy =       0.0000000000000000
    Empirical Dispersion Energy =           0.0000000000000000
    PCM Polarization Energy =               0.0000000000000000
    EFP Energy =                            0.0000000000000000
    Total Energy =                       -423.1337860384497844
    Molecular point group: c1
  Basis Set: CC-PVTZ
  Basis Set:

  -Total Gradient:
     Atom            X                  Y                   Z
    ------   -----------------  -----------------  -----------------
       1        0.000065472941    -0.000039463596     0.000026373119
       2        0.000276919460    -0.000535697176    -0.001258398455
       3       -0.000026884067    -0.000026272999    -0.000001592965
       4       -0.000742235246     0.001093381718     0.002022740096
       5        0.000000923060     0.000001897327     0.000008728328
       6       -0.000004349448     0.000001269106    -0.000000248437
       7        0.000015439415    -0.000006004890    -0.000008889088
       8        0.001171958600    -0.001632717786    -0.001642369530
       9        0.000004534338     0.000010705163    -0.000002952394
      10       -0.000756574582     0.001133488966     0.000849065124
      11        0.000009568517    -0.000000133728     0.000003395818
      12       -0.000004203917     0.000001866946    -0.000002877759
      13       -0.000008895160     0.000004746476    -0.000003514553
      14        0.000005051706    -0.000002322390    -0.000000457660
      15        0.000000941702    -0.000004767786     0.000017178811
      16       -0.000002897266     0.000000496614    -0.000004194719
      17        0.000000085432    -0.000000258420    -0.000002671858
      18       -0.000003474658     0.000001803190    -0.000002471391
      19       -0.000001413533     0.000004951255     0.000001266530
      20        0.000001460320    -0.000006427831     0.000003514052
      21        0.000000210115     0.000002284410    -0.000000186410
      22       -0.000001770143    -0.000000761071    -0.000001930517
      23        0.000000132407    -0.000002063497     0.000000493855

  **** Optimization is complete! (in 6 steps) ****
    Final optimized geometry and variables:
    Molecular point group: c1

    Geometry (in Angstrom), charge = 0, multiplicity = 1:

    O           -2.750849740803     1.136627394323    -0.790815590717
    C           -2.632775931587     0.064633733562    -0.301863343207
    C           -3.751633288886    -0.938680679403    -0.217647032505
    O           -1.512578978881    -0.384576378560     0.231601072910
    H           -4.101579902409    -1.147488076720    -1.219732158610
    H           -3.439055342417    -1.852345422807     0.262022841911
    H           -4.571114453443    -0.494237672710     0.331035089880
    C           -0.354303323341     0.440062721764     0.196248809573
    C            0.867964488555    -0.453170270569     0.211082145766
    H           -0.388901448734     1.069390769749    -0.678870926246
    H           -0.375196331607     1.086120419852     1.065642609016
    C            2.165612176462     0.349563842649     0.222155175291
    H            0.839577371303    -1.100186200790    -0.659936867678
    H            0.823748956951    -1.098442685228     1.082470942477
    C            3.412613823836    -0.530086254469     0.234375022525
    H            2.196200175160     1.000950854579    -0.647769366513
    H            2.180695052584     1.002057158769     1.091802994174
    C            4.709368509215     0.271952605915     0.246224801932
    H            3.399561098604    -1.181622832664    -0.634808379501
    H            3.383144407077    -1.181134080167     1.103578126416
    H            4.783858446673     0.908755134397    -0.628910108357
    H            5.574056898903    -0.381375373555     0.253957027720
    H            4.768078693740     0.908515563251     1.122776136504

  Mulliken Charges: (a.u.)
   Center  Symbol    Alpha    Beta     Spin     Total
       1     O     4.20304  4.20304  0.00000 -0.40607
       2     C     2.81127  2.81127  0.00000  0.37746
       3     C     3.14195  3.14195  0.00000 -0.28391
       4     O     4.14751  4.14751  0.00000 -0.29502
       5     H     0.44226  0.44226  0.00000  0.11548
       6     H     0.44199  0.44199  0.00000  0.11602
       7     H     0.44211  0.44211  0.00000  0.11578
       8     C     2.98225  2.98225  0.00000  0.03550
       9     C     3.08155  3.08155  0.00000 -0.16310
      10     H     0.44638  0.44638  0.00000  0.10723
      11     H     0.45602  0.45602  0.00000  0.08796
      12     C     3.09824  3.09824  0.00000 -0.19647
      13     H     0.45142  0.45142  0.00000  0.09717
      14     H     0.45028  0.45028  0.00000  0.09944
      15     C     3.08491  3.08491  0.00000 -0.16982
      16     H     0.45205  0.45205  0.00000  0.09591
      17     H     0.45345  0.45345  0.00000  0.09309
      18     C     3.14964  3.14964  0.00000 -0.29927
      19     H     0.45336  0.45336  0.00000  0.09328
      20     H     0.45355  0.45355  0.00000  0.09289
      21     H     0.45438  0.45438  0.00000  0.09125
      22     H     0.44767  0.44767  0.00000  0.10465
      23     H     0.45473  0.45473  0.00000  0.09053

   Total alpha = 36.00000, Total beta = 36.00000, Total charge = -0.00000

*** Psi4 exiting successfully. Buy a developer a beer!
