  ==> Input File <==

--------------------------------------------------------------------------
set {
	reference rhf
	basis 6-31G*
}

set_num_threads( 1 )
memory 2 gb

molecule MOL {
0 1

H	 3.246729	 -1.351371	 -0.710104
O	 2.826016	 -1.159218	 0.122261
C	 2.077727	 -0.067559	 -0.035091
C	 0.624473	 -0.343591	 0.253101
O	 2.542965	 0.974826	 -0.363729
C	 -0.265902	 0.883932	 0.072916
H	 0.324016	 -1.163849	 -0.390541
H	 0.565024	 -0.726111	 1.268924
C	 -1.728698	 0.646073	 0.462102
H	 -0.209144	 1.219470	 -0.958188
H	 0.135059	 1.692851	 0.673903
C	 -2.482460	 -0.343073	 -0.431425
H	 -2.245265	 1.602650	 0.432430
H	 -1.779332	 0.308348	 1.496285
C	 -3.960546	 -0.461025	 -0.060175
H	 -2.395034	 -0.026811	 -1.468912
H	 -2.024850	 -1.327147	 -0.371646
H	 -4.472726	 -1.168004	 -0.705284
H	 -4.465146	 0.496508	 -0.151489
H	 -4.081218	 -0.800940	 0.964585

	symmetry c1
}
set optking {
	frozen_dihedral = ("
		16 12 9 6,
		7 4 6 10,
		12 9 6 10,
		5 3 4 7
	")
}

ee = energy('scf')
oeprop('DIPOLE', 'QUADRUPOLE', 'MULLIKEN_CHARGES')
f=open( 'psi4out.xyz', 'w' )
f.write( "20  " )
f.write( str(ee) + "\n" )
f.write( MOL.save_string_xyz() )
f.close()
--------------------------------------------------------------------------

    Molecular point group: c1

    Geometry (in Angstrom), charge = 0, multiplicity = 1:

       Center              X                  Y                   Z               Mass
    ------------   -----------------  -----------------  -----------------  -----------------
           H          3.250920256056    -1.347697842575    -0.704551668658     1.007825032070
           O          2.830207256056    -1.155544842575     0.127813331342    15.994914619560
           C          2.081918256056    -0.063885842575    -0.029538668658    12.000000000000
           C          0.628664256056    -0.339917842575     0.258653331342    12.000000000000
           O          2.547156256056     0.978499157425    -0.358176668658    15.994914619560
           C         -0.261710743944     0.887605157425     0.078468331342    12.000000000000
           H          0.328207256056    -1.160175842575    -0.384988668658     1.007825032070
           H          0.569215256056    -0.722437842575     1.274476331342     1.007825032070
           C         -1.724506743944     0.649746157425     0.467654331342    12.000000000000
           H         -0.204952743944     1.223143157425    -0.952635668658     1.007825032070
           H          0.139250256056     1.696524157425     0.679455331342     1.007825032070
           C         -2.478268743944    -0.339399842575    -0.425872668658    12.000000000000
           H         -2.241073743944     1.606323157425     0.437982331342     1.007825032070
           H         -1.775140743944     0.312021157425     1.501837331342     1.007825032070
           C         -3.956354743944    -0.457351842575    -0.054622668658    12.000000000000
           H         -2.390842743944    -0.023137842575    -1.463359668658     1.007825032070
           H         -2.020658743944    -1.323473842575    -0.366093668658     1.007825032070
           H         -4.468534743944    -1.164330842575    -0.699731668658     1.007825032070
           H         -4.460954743944     0.500181157425    -0.145936668658     1.007825032070
           H         -4.077026743944    -0.797266842575     0.970137331342     1.007825032070

  Charge       = 0
  Multiplicity = 1
  Basis Set: 6-31G*
  Basis Set:

    Orbital Energies (a.u.)
    -----------------------

    Doubly Occupied:

       1A    -20.601338     2A    -20.557095     3A    -11.380113
       4A    -11.239796     5A    -11.222525     6A    -11.221463
       7A    -11.220419     8A    -11.213162     9A     -1.470530
      10A     -1.366942    11A     -1.096133    12A     -1.040469
      13A     -0.959565    14A     -0.866851    15A     -0.817413
      16A     -0.779420    17A     -0.707186    18A     -0.684545
      19A     -0.665745    20A     -0.632539    21A     -0.618247
      22A     -0.587774    23A     -0.560738    24A     -0.550012
      25A     -0.540029    26A     -0.508397    27A     -0.500759
      28A     -0.485610    29A     -0.469836    30A     -0.465169
      31A     -0.457827    32A     -0.443170

  @DF-RHF Final Energy:  -383.93225155640516

   => Energetics <=

    Nuclear Repulsion Energy =            376.0091417641945100
    One-Electron Energy =               -1268.0211517599088893
    Two-Electron Energy =                 508.0797584393078523
    DFT Exchange-Correlation Energy =       0.0000000000000000
    Empirical Dispersion Energy =           0.0000000000000000
    PCM Polarization Energy =               0.0000000000000000
    EFP Energy =                            0.0000000000000000
    Total Energy =                       -383.9322515564065270

  Mulliken Charges: (a.u.)
   Center  Symbol    Alpha    Beta     Spin     Total
       1     H     0.26512  0.26512  0.00000  0.46976
       2     O     4.35662  4.35662  0.00000 -0.71323
       3     C     2.63259  2.63259  0.00000  0.73481
       4     C     3.21101  3.21101  0.00000 -0.42201
       5     O     4.26053  4.26053  0.00000 -0.52107
       6     C     3.15514  3.15514  0.00000 -0.31029
       7     H     0.40317  0.40317  0.00000  0.19367
       8     H     0.39840  0.39840  0.00000  0.20320
       9     C     3.15526  3.15526  0.00000 -0.31053
      10     H     0.41393  0.41393  0.00000  0.17213
      11     H     0.40734  0.40734  0.00000  0.18532
      12     C     3.15474  3.15474  0.00000 -0.30948
      13     H     0.41799  0.41799  0.00000  0.16402
      14     H     0.42341  0.42341  0.00000  0.15318
      15     C     3.23916  3.23916  0.00000 -0.47833
      16     H     0.42208  0.42208  0.00000  0.15584
      17     H     0.42342  0.42342  0.00000  0.15317
      18     H     0.41858  0.41858  0.00000  0.16285
      19     H     0.42044  0.42044  0.00000  0.15912
      20     H     0.42107  0.42107  0.00000  0.15786

   Total alpha = 32.00000, Total beta = 32.00000, Total charge =  0.00000
