  ==> Input File <==

--------------------------------------------------------------------------
set {
	reference rhf
	basis 6-31G*
}

set_num_threads( 4 )
memory 2 gb

molecule MOL {
0 1

H	 -2.853488	 2.199789	 -1.013108
C	 -3.020267	 1.131254	 -1.197606
C	 -1.985169	 0.465745	 -2.068400
O	 -3.962551	 0.583465	 -0.724555
C	 -0.553397	 0.708759	 -1.571181
H	 -2.213711	 -0.592282	 -2.123694
H	 -2.092533	 0.883255	 -3.068806
C	 -0.252658	 0.041456	 -0.226725
H	 0.138734	 0.337387	 -2.321063
H	 -0.373481	 1.780197	 -1.497648
C	 1.180775	 0.282413	 0.250794
H	 -0.431994	 -1.028289	 -0.312355
H	 -0.947705	 0.403341	 0.528582
C	 2.148627	 -0.814315	 -0.201312
H	 1.516199	 1.249228	 -0.115937
H	 1.192670	 0.346017	 1.338083
C	 3.580890	 -0.659131	 0.322722
H	 2.166869	 -0.852443	 -1.289387
H	 1.762857	 -1.776509	 0.128956
C	 4.324889	 0.564933	 -0.213704
H	 4.142010	 -1.551473	 0.056605
H	 3.564836	 -0.624694	 1.410140
H	 4.342616	 0.565491	 -1.300421
H	 3.866655	 1.493402	 0.110242
H	 5.353900	 0.572371	 0.132816

	symmetry c1
}
set optking {
	frozen_dihedral = ("
		12 8 11 14
	")
}

ee = optimize('scf')
oeprop('DIPOLE', 'QUADRUPOLE', 'MULLIKEN_CHARGES')
f=open( 'psi4out.xyz', 'w' )
f.write( "25  " )
f.write( str(ee) + "\n" )
f.write( MOL.save_string_xyz() )
f.close()
--------------------------------------------------------------------------

    Molecular point group: c1
  Charge       = 0
  Multiplicity = 1
  Basis Set: 6-31G*
  Basis Set:
  @DF-RHF Final Energy:  -387.11843020424698
    Total Energy =                       -387.1184302042474883
    Molecular point group: c1
  Basis Set: 6-31G*
  Basis Set:
  Basis Set: 6-31G*
  Basis Set:
  @DF-RHF Final Energy:  -387.11840884978523
    Total Energy =                       -387.1184088497851690
  Basis Set: 6-31G*
  Basis Set:
  Basis Set: 6-31G*
  Basis Set:
  @DF-RHF Final Energy:  -387.11599311942700
    Total Energy =                       -387.1159931194281398
  Basis Set: 6-31G*
  Basis Set:
  Basis Set: 6-31G*
  Basis Set:
  @DF-RHF Final Energy:  -387.11865038806900
    Total Energy =                       -387.1186503880688861
  Basis Set: 6-31G*
  Basis Set:
  Basis Set: 6-31G*
  Basis Set:
  @DF-RHF Final Energy:  -387.11873186323675
    Total Energy =                       -387.1187318632366896
  Basis Set: 6-31G*
  Basis Set:
  Basis Set: 6-31G*
  Basis Set:
  @DF-RHF Final Energy:  -387.11875568366088
    Total Energy =                       -387.1187556836607655
  Basis Set: 6-31G*
  Basis Set:
  Charge       = 0
  Multiplicity = 1
  Basis Set: 6-31G*
  Basis Set:

    Orbital Energies (a.u.)
    -----------------------

    Doubly Occupied:

       1A    -20.561908     2A    -11.326062     3A    -11.235117
       4A    -11.234426     5A    -11.224008     6A    -11.219939
       7A    -11.219076     8A    -11.218447     9A    -11.211793
      10A     -1.401837    11A     -1.103729    12A     -1.069366
      13A     -1.012650    14A     -0.941718    15A     -0.878351
      16A     -0.822284    17A     -0.788519    18A     -0.780514
      19A     -0.665554    20A     -0.651434    21A     -0.635492
      22A     -0.622741    23A     -0.608736    24A     -0.599020
      25A     -0.573091    26A     -0.553940    27A     -0.528870
      28A     -0.522114    29A     -0.521105    30A     -0.501661
      31A     -0.484877    32A     -0.478527    33A     -0.460909
      34A     -0.454841    35A     -0.445736    36A     -0.409233

  @DF-RHF Final Energy:  -387.11875665301244

   => Energetics <=

    Nuclear Repulsion Energy =            441.9610012826432808
    One-Electron Energy =               -1400.2242664548161883
    Two-Electron Energy =                 571.1445085191603539
    DFT Exchange-Correlation Energy =       0.0000000000000000
    Empirical Dispersion Energy =           0.0000000000000000
    PCM Polarization Energy =               0.0000000000000000
    EFP Energy =                            0.0000000000000000
    Total Energy =                       -387.1187566530124968
    Molecular point group: c1
  Basis Set: 6-31G*
  Basis Set:

  -Total Gradient:
     Atom            X                  Y                   Z
    ------   -----------------  -----------------  -----------------
       1        0.000007356649     0.000002009385     0.000004533844
       2       -0.000003232225     0.000053210342    -0.000048468338
       3        0.000021551022    -0.000028010482    -0.000009979611
       4        0.000008733451    -0.000017573434    -0.000008863210
       5       -0.000052240166     0.000098614880     0.000031731978
       6       -0.000007825291    -0.000008103230     0.000025418011
       7       -0.000001487162    -0.000021396719    -0.000009409703
       8       -0.001295264141    -0.000689100081     0.004259054092
       9       -0.000027503053     0.000002527397     0.000001732558
      10       -0.000015162338     0.000007342587     0.000020590953
      11        0.000823470237     0.001658179997    -0.003193826365
      12        0.000974130016     0.000132636542    -0.002877336149
      13        0.000021004306    -0.000003285786     0.000004665276
      14       -0.000416275457    -0.001185070652     0.001758182958
      15       -0.000035973380    -0.000029647667    -0.000024425190
      16        0.000012851040     0.000030282458     0.000035529246
      17       -0.000020219479    -0.000002049094     0.000033196207
      18        0.000010943265    -0.000023364062    -0.000006853037
      19       -0.000040671304     0.000029410048     0.000000995856
      20       -0.000001804434    -0.000023278845    -0.000012473639
      21        0.000032592487     0.000028312790     0.000004064156
      22        0.000002236698    -0.000010230527     0.000006835239
      23       -0.000019875727     0.000003348392     0.000008603543
      24        0.000009699804    -0.000004732420     0.000006078720
      25        0.000012965190    -0.000000031817    -0.000009577396

  **** Optimization is complete! (in 7 steps) ****
    Final optimized geometry and variables:
    Molecular point group: c1

    Geometry (in Angstrom), charge = 0, multiplicity = 1:

    H           -3.067406547210     1.914116283004    -0.403671277027
    C           -3.194603780680     0.843147611615    -0.605370382144
    C           -2.114551220048     0.221979903916    -1.454147985165
    O           -4.134925423845     0.261355308796    -0.170388853100
    C           -0.706575789125     0.496024738063    -0.907606409332
    H           -2.311443113928    -0.840925560426    -1.533764268773
    H           -2.202671162459     0.653501862315    -2.450429489222
    C           -0.429464485060    -0.186541859224     0.437401491007
    H            0.017906816784     0.160757600234    -1.643788915226
    H           -0.561074290679     1.570264784752    -0.807685025918
    C            1.014118315523     0.018686369946     0.929062611154
    H           -0.627260146165    -1.249685626676     0.323089576077
    H           -1.130133814131     0.183038011844     1.181170452960
    C            1.977010427502    -1.076927485573     0.458490121172
    H            1.365351132957     0.997422642102     0.614388030363
    H            1.023960188632     0.031160076797     2.016587993714
    C            3.420641379665    -0.909461678252     0.946136271914
    H            1.973985920804    -1.132624397271    -0.629276431175
    H            1.600709465556    -2.034240189073     0.811557550512
    C            4.156200684252     0.294645707103     0.354897358184
    H            3.974280996497    -1.811309629550     0.697055799531
    H            3.427353766631    -0.840497996212     2.032069590422
    H            4.155315638204     0.257158668692    -0.731238116520
    H            3.705192963441     1.234961280009     0.653977799333
    H            5.191017341733     0.312557415680     0.682596038270

  Mulliken Charges: (a.u.)
   Center  Symbol    Alpha    Beta     Spin     Total
       1     H     0.43263  0.43263  0.00000  0.13474
       2     C     2.83091  2.83091  0.00000  0.33818
       3     C     3.20836  3.20836  0.00000 -0.41673
       4     O     4.23775  4.23775  0.00000 -0.47551
       5     C     3.16784  3.16784  0.00000 -0.33568
       6     H     0.39974  0.39974  0.00000  0.20051
       7     H     0.40678  0.40678  0.00000  0.18645
       8     C     3.15735  3.15735  0.00000 -0.31470
       9     H     0.41226  0.41226  0.00000  0.17548
      10     H     0.41958  0.41958  0.00000  0.16083
      11     C     3.15766  3.15766  0.00000 -0.31531
      12     H     0.41704  0.41704  0.00000  0.16591
      13     H     0.41566  0.41566  0.00000  0.16867
      14     C     3.15412  3.15412  0.00000 -0.30824
      15     H     0.42033  0.42033  0.00000  0.15935
      16     H     0.41892  0.41892  0.00000  0.16216
      17     C     3.15303  3.15303  0.00000 -0.30607
      18     H     0.42490  0.42490  0.00000  0.15020
      19     H     0.42004  0.42004  0.00000  0.15991
      20     C     3.24114  3.24114  0.00000 -0.48229
      21     H     0.42011  0.42011  0.00000  0.15978
      22     H     0.42247  0.42247  0.00000  0.15505
      23     H     0.42256  0.42256  0.00000  0.15487
      24     H     0.42046  0.42046  0.00000  0.15908
      25     H     0.41833  0.41833  0.00000  0.16333

   Total alpha = 36.00000, Total beta = 36.00000, Total charge =  0.00000
