  ==> Input File <==

--------------------------------------------------------------------------
set {
	reference rhf
	basis 6-31G*
}

set_num_threads( 1 )
memory 2 gb

molecule MOL {
0 1

O	 0.749854	 1.307668	 -0.000040
C	 0.576249	 0.131685	 -0.000108
C	 -0.766779	 -0.556801	 -0.000461
O	 1.568443	 -0.749345	 -0.000005
C	 -1.945214	 0.412366	 0.000161
H	 -0.796911	 -1.211249	 -0.867467
H	 -0.796854	 -1.212390	 0.865687
C	 -3.287791	 -0.317055	 0.000105
H	 -1.876087	 1.060580	 -0.866812
H	 -1.875822	 1.059691	 0.867761
H	 -3.394745	 -0.949193	 -0.877058
H	 -4.111778	 0.388953	 0.000015
H	 -3.394954	 -0.949187	 0.877259
C	 2.836353	 -0.289423	 -0.431380
H	 2.786013	 0.061954	 -1.451940
H	 3.497973	 -1.138594	 -0.360434
H	 3.186081	 0.511971	 0.203416

	symmetry c1
}
set optking {
	frozen_dihedral = ("
		1 2 3 6,
		9 5 3 6
	")
}

ee = energy('scf')
oeprop('DIPOLE', 'QUADRUPOLE', 'MULLIKEN_CHARGES')
f=open( 'psi4out.xyz', 'w' )
f.write( "17  " )
f.write( str(ee) + "\n" )
f.write( MOL.save_string_xyz() )
f.close()
--------------------------------------------------------------------------

    Molecular point group: c1

    Geometry (in Angstrom), charge = 0, multiplicity = 1:

       Center              X                  Y                   Z               Mass
    ------------   -----------------  -----------------  -----------------  -----------------
           O          0.757646214033     1.316451108498     0.066612412398    15.994914619560
           C          0.584041214033     0.140468108498     0.066544412398    12.000000000000
           C         -0.758986785967    -0.548017891502     0.066191412398    12.000000000000
           O          1.576235214033    -0.740561891502     0.066647412398    15.994914619560
           C         -1.937421785967     0.421149108498     0.066813412398    12.000000000000
           H         -0.789118785967    -1.202465891502    -0.800814587602     1.007825032070
           H         -0.789061785967    -1.203606891502     0.932339412398     1.007825032070
           C         -3.279998785967    -0.308271891502     0.066757412398    12.000000000000
           H         -1.868294785967     1.069363108498    -0.800159587602     1.007825032070
           H         -1.868029785967     1.068474108498     0.934413412398     1.007825032070
           H         -3.386952785967    -0.940409891502    -0.810405587602     1.007825032070
           H         -4.103985785967     0.397736108498     0.066667412398     1.007825032070
           H         -3.387161785967    -0.940403891502     0.943911412398     1.007825032070
           C          2.844145214033    -0.280639891502    -0.364727587602    12.000000000000
           H          2.793805214033     0.070737108498    -1.385287587602     1.007825032070
           H          3.505765214033    -1.129810891502    -0.293781587602     1.007825032070
           H          3.193873214033     0.520754108498     0.270068412398     1.007825032070

  Charge       = 0
  Multiplicity = 1
  Basis Set: 6-31G*
  Basis Set:

    Orbital Energies (a.u.)
    -----------------------

    Doubly Occupied:

       1A    -20.601856     2A    -20.546668     3A    -11.372917
       4A    -11.282170     5A    -11.236132     6A    -11.221951
       7A    -11.214642     8A     -1.469100     9A     -1.363426
      10A     -1.080538    11A     -1.001112    12A     -0.940672
      13A     -0.827674    14A     -0.767427    15A     -0.700403
      16A     -0.682876    17A     -0.672351    18A     -0.636852
      19A     -0.597309    20A     -0.575041    21A     -0.568673
      22A     -0.529192    23A     -0.521016    24A     -0.498412
      25A     -0.487431    26A     -0.478924    27A     -0.455674
      28A     -0.437260

  @DF-RHF Final Energy:  -344.90435475766157

   => Energetics <=

    Nuclear Repulsion Energy =            312.4924650744845280
    One-Electron Energy =               -1089.2580453578270863
    Two-Electron Energy =                 431.8612255256817889
    DFT Exchange-Correlation Energy =       0.0000000000000000
    Empirical Dispersion Energy =           0.0000000000000000
    PCM Polarization Energy =               0.0000000000000000
    EFP Energy =                            0.0000000000000000
    Total Energy =                       -344.9043547576608262

  Mulliken Charges: (a.u.)
   Center  Symbol    Alpha    Beta     Spin     Total
       1     O     4.28353  4.28353  0.00000 -0.56705
       2     C     2.60580  2.60580  0.00000  0.78839
       3     C     3.20664  3.20664  0.00000 -0.41328
       4     O     4.30760  4.30760  0.00000 -0.61519
       5     C     3.15211  3.15211  0.00000 -0.30422
       6     H     0.40210  0.40210  0.00000  0.19580
       7     H     0.40023  0.40023  0.00000  0.19954
       8     C     3.24273  3.24273  0.00000 -0.48546
       9     H     0.41130  0.41130  0.00000  0.17740
      10     H     0.41055  0.41055  0.00000  0.17891
      11     H     0.42160  0.42160  0.00000  0.15680
      12     H     0.41513  0.41513  0.00000  0.16974
      13     H     0.42116  0.42116  0.00000  0.15768
      14     C     3.09361  3.09361  0.00000 -0.18722
      15     H     0.41338  0.41338  0.00000  0.17325
      16     H     0.40786  0.40786  0.00000  0.18427
      17     H     0.40468  0.40468  0.00000  0.19064

   Total alpha = 28.00000, Total beta = 28.00000, Total charge = -0.00000
