                              Psi4 1.0.54 Driver

  ==> Input File <==

--------------------------------------------------------------------------
set {
	reference rhf
	basis cc-pvtz
}

set_num_threads( 4 )
memory 2 gb

molecule MOL {
0 1

H	 -0.629896	 4.320167	 0.290528
O	 0.187634	 3.845447	 0.292380
C	 -0.077776	 2.549347	 0.155935
C	 1.177972	 1.720426	 0.151778
O	 -1.182795	 2.140632	 0.056650
C	 0.926581	 0.227233	 0.000178
H	 1.708353	 1.939952	 1.072774
H	 1.806937	 2.098070	 -0.647913
C	 2.220156	 -0.582071	 -0.000088
H	 0.281783	 -0.110386	 0.803723
H	 0.380481	 0.047913	 -0.919083
C	 3.466689	 0.296012	 -0.000457
H	 2.239073	 -1.234095	 -0.869382
H	 2.239505	 -1.233985	 0.869270
H	 3.493549	 0.935857	 -0.875887
H	 4.368821	 -0.304526	 -0.001199
H	 3.494559	 0.935166	 0.875458

	symmetry c1
}
set optking {
	frozen_dihedral = ("
		10 6 9 13
	")
}

ee,wfn = optimize('scf', return_wfn=True)
oeprop( wfn, 'DIPOLE', 'QUADRUPOLE', 'MULLIKEN_CHARGES')
f=open( 'psi4out.xyz', 'w' )
f.write( "17  " )
f.write( str(ee) + "\n" )
f.write( MOL.save_string_xyz() )
f.close()
--------------------------------------------------------------------------

    Molecular point group: c1
  Charge       = 0
  Multiplicity = 1
  Basis Set: CC-PVTZ
  Basis Set:
  @DF-RHF Final Energy:  -345.03403979226545
    Total Energy =                       -345.0340397922655029
    Molecular point group: c1
  Basis Set: CC-PVTZ
  Basis Set:
  Basis Set: CC-PVTZ
  Basis Set:
  @DF-RHF Final Energy:  -344.40906860905409
    Total Energy =                       -344.4090686090542022
  Basis Set: CC-PVTZ
  Basis Set:
  Basis Set: CC-PVTZ
  Basis Set:
  @DF-RHF Final Energy:  -344.61272699139124
    Total Energy =                       -344.6127269913911846
  Basis Set: CC-PVTZ
  Basis Set:
  Basis Set: CC-PVTZ
  Basis Set:
  @DF-RHF Final Energy:  -344.89298388108853
    Total Energy =                       -344.8929838810882984
  Basis Set: CC-PVTZ
  Basis Set:
  @DF-RHF Final Energy:  -345.01610586574640
    Total Energy =                       -345.0161058657463400
  @DF-RHF Final Energy:  -345.03710348479120
    Total Energy =                       -345.0371034847913165
  @DF-RHF Final Energy:  -345.03867710321930
    Total Energy =                       -345.0386771032193565
  @DF-RHF Final Energy:  -345.03799971506447
    Total Energy =                       -345.0379997150644158
  Basis Set: CC-PVTZ
  Basis Set:
  @DF-RHF Final Energy:  -345.03850656181510
    Total Energy =                       -345.0385065618150406
  Basis Set: CC-PVTZ
  Basis Set:
  Basis Set: CC-PVTZ
  Basis Set:
  @DF-RHF Final Energy:  -345.03883326841293
    Total Energy =                       -345.0388332684129296
  Basis Set: CC-PVTZ
  Basis Set:
  Basis Set: CC-PVTZ
  Basis Set:
  @DF-RHF Final Energy:  -345.03883551899276
    Total Energy =                       -345.0388355189926415
  Basis Set: CC-PVTZ
  Basis Set:
  Charge       = 0
  Multiplicity = 1
  Basis Set: CC-PVTZ
  Basis Set:

    Orbital Energies (a.u.)
    -----------------------

    Doubly Occupied:

       1A    -20.603594     2A    -20.540366     3A    -11.373174
       4A    -11.238632     5A    -11.221473     6A    -11.220924
       7A    -11.213805     8A     -1.477291     9A     -1.368786
      10A     -1.088758    11A     -1.015762    12A     -0.921534
      13A     -0.834958    14A     -0.772452    15A     -0.703472
      16A     -0.692893    17A     -0.671072    18A     -0.629169
      19A     -0.604445    20A     -0.574177    21A     -0.562561
      22A     -0.551697    23A     -0.527674    24A     -0.484226
      25A     -0.476584    26A     -0.475882    27A     -0.458612
      28A     -0.447081

  @DF-RHF Final Energy:  -345.03883584421055

   => Energetics <=

    Nuclear Repulsion Energy =            308.4656127990259620
    One-Electron Energy =               -1081.5067922630241810
    Two-Electron Energy =                 428.0023436197878937
    DFT Exchange-Correlation Energy =       0.0000000000000000
    Empirical Dispersion Energy =           0.0000000000000000
    PCM Polarization Energy =               0.0000000000000000
    EFP Energy =                            0.0000000000000000
    Total Energy =                       -345.0388358442103254
    Molecular point group: c1
  Basis Set: CC-PVTZ
  Basis Set:

  -Total Gradient:
     Atom            X                  Y                   Z
    ------   -----------------  -----------------  -----------------
       1        0.000010420526    -0.000008976490    -0.000014968652
       2       -0.000002422299    -0.000067783534     0.000017504940
       3       -0.000090011930     0.000023336273    -0.000038189705
       4        0.000025416657     0.000008820360     0.000066419067
       5        0.000095606460     0.000050836862    -0.000012304331
       6       -0.001740184049    -0.000889671584    -0.001546077616
       7       -0.000003657326     0.000000890738    -0.000026425939
       8       -0.000039704110    -0.000000960269     0.000007256316
       9       -0.000106635975    -0.002030704822     0.001366713878
      10        0.001501205632     0.001036555573     0.001072701727
      11        0.000015472177     0.000003766815     0.000000461788
      12       -0.000000914521     0.000001605207    -0.000016530882
      13        0.000360056125     0.001882299559    -0.000893260825
      14       -0.000000307422     0.000002173934     0.000003699814
      15        0.000017725879    -0.000023450662    -0.000008761223
      16       -0.000015096743     0.000020197373     0.000024296589
      17       -0.000026969085    -0.000008935331    -0.000002534944

  **** Optimization is complete! (in 12 steps) ****
    Final optimized geometry and variables:
    Molecular point group: c1

    Geometry (in Angstrom), charge = 0, multiplicity = 1:

    H           -1.298344182040     2.360744188673     1.874469807063
    O           -0.576437768605     2.056811642782     1.345180627513
    C           -0.868909349394     0.839541946159     0.894904536546
    C            0.237279205224     0.285530036170     0.037072685325
    O           -1.886174874556     0.299362415913     1.161812006566
    C           -0.061827864484    -1.117395052588    -0.482338261340
    H            1.139868123100     0.313512281773     0.636327346608
    H            0.392342900728     0.996203935589    -0.765900083909
    C            1.034819385402    -1.763581755948    -1.369441438542
    H           -0.239427123065    -1.748171690852     0.378775509000
    H           -0.997447770985    -1.083912511498    -1.024064504150
    C            2.220487664757    -0.886457669472    -1.774232024911
    H            0.569292506705    -2.116854105773    -2.282314602011
    H            1.420537173058    -2.642877081879    -0.866996193266
    H            1.908680269088    -0.020484269255    -2.346854527390
    H            2.901305891141    -1.455987453609    -2.395934052569
    H            2.783144282521    -0.534207881783    -0.917893787680

  Mulliken Charges: (a.u.)
   Center  Symbol    Alpha    Beta     Spin     Total
       1     H     0.38260  0.38260  0.00000  0.23480
       2     O     4.15953  4.15953  0.00000 -0.31905
       3     C     2.80899  2.80899  0.00000  0.38202
       4     C     3.10965  3.10965  0.00000 -0.21930
       5     O     4.19093  4.19093  0.00000 -0.38187
       6     C     3.09334  3.09334  0.00000 -0.18668
       7     H     0.43680  0.43680  0.00000  0.12640
       8     H     0.43662  0.43662  0.00000  0.12677
       9     C     3.08948  3.08948  0.00000 -0.17895
      10     H     0.44316  0.44316  0.00000  0.11369
      11     H     0.44259  0.44259  0.00000  0.11482
      12     C     3.15772  3.15772  0.00000 -0.31545
      13     H     0.44917  0.44917  0.00000  0.10165
      14     H     0.44925  0.44925  0.00000  0.10150
      15     H     0.45357  0.45357  0.00000  0.09287
      16     H     0.44261  0.44261  0.00000  0.11479
      17     H     0.45400  0.45400  0.00000  0.09200

   Total alpha = 28.00000, Total beta = 28.00000, Total charge = -0.00000

*** Psi4 exiting successfully. Buy a developer a beer!
