  ==> Input File <==

--------------------------------------------------------------------------
set {
	reference rhf
	basis 6-31G*
}

set_num_threads( 1 )
memory 2 gb

molecule MOL {
0 1

H	 -2.772460	 1.544690	 1.538045
O	 -1.964506	 1.444109	 2.022757
C	 -0.885472	 1.626816	 1.153120
C	 -0.793441	 0.596080	 0.058728
H	 0.007414	 1.587237	 1.766627
H	 -0.912172	 2.620292	 0.706671
C	 -1.530462	 -0.493172	 -0.025500
H	 -0.050297	 0.799590	 -0.696788
H	 -1.092586	 -1.461565	 -0.186463
H	 -2.602122	 -0.450675	 0.050101

	symmetry c1
}
set optking {
	frozen_dihedral = ("
		5 3 2 1,
		5 3 4 7
	")
}

ee = energy('scf')
oeprop('DIPOLE', 'QUADRUPOLE', 'MULLIKEN_CHARGES')
f=open( 'psi4out.xyz', 'w' )
f.write( "10  " )
f.write( str(ee) + "\n" )
f.write( MOL.save_string_xyz() )
f.close()
--------------------------------------------------------------------------

    Molecular point group: c1

    Geometry (in Angstrom), charge = 0, multiplicity = 1:

       Center              X                  Y                   Z               Mass
    ------------   -----------------  -----------------  -----------------  -----------------
           H         -1.438682938849     0.708552806790     0.680163122246     1.007825032070
           O         -0.630728938849     0.607971806790     1.164875122246    15.994914619560
           C          0.448305061151     0.790678806790     0.295238122246    12.000000000000
           C          0.540336061151    -0.240057193210    -0.799153877754    12.000000000000
           H          1.341191061151     0.751099806790     0.908745122246     1.007825032070
           H          0.421605061151     1.784154806790    -0.151210877754     1.007825032070
           C         -0.196684938849    -1.329309193210    -0.883381877754    12.000000000000
           H          1.283480061151    -0.036547193210    -1.554669877754     1.007825032070
           H          0.241191061151    -2.297702193210    -1.044344877754     1.007825032070
           H         -1.268344938849    -1.286812193210    -0.807780877754     1.007825032070

  Charge       = 0
  Multiplicity = 1
  Basis Set: 6-31G*
  Basis Set:

    Orbital Energies (a.u.)
    -----------------------

    Doubly Occupied:

       1A    -20.558763     2A    -11.279582     3A    -11.232997
       4A    -11.220519     5A     -1.367611     6A     -1.058874
       7A     -0.928888     8A     -0.768980     9A     -0.688531
      10A     -0.652241    11A     -0.612664    12A     -0.570030
      13A     -0.564785    14A     -0.495184    15A     -0.451213
      16A     -0.316583

  @DF-RHF Final Energy:  -191.85775937041035

   => Energetics <=

    Nuclear Repulsion Energy =            119.2565068790148217
    One-Electron Energy =                -496.6936563726374629
    Two-Electron Energy =                 185.5793901232124767
    DFT Exchange-Correlation Energy =       0.0000000000000000
    Empirical Dispersion Energy =           0.0000000000000000
    PCM Polarization Energy =               0.0000000000000000
    EFP Energy =                            0.0000000000000000
    Total Energy =                       -191.8577593704101787

  Mulliken Charges: (a.u.)
   Center  Symbol    Alpha    Beta     Spin     Total
       1     H     0.28024  0.28024  0.00000  0.43952
       2     O     4.36529  4.36529  0.00000 -0.73057
       3     C     2.99737  2.99737  0.00000  0.00526
       4     C     3.09710  3.09710  0.00000 -0.19420
       5     H     0.40373  0.40373  0.00000  0.19254
       6     H     0.43082  0.43082  0.00000  0.13836
       7     C     3.19510  3.19510  0.00000 -0.39020
       8     H     0.40826  0.40826  0.00000  0.18347
       9     H     0.40594  0.40594  0.00000  0.18811
      10     H     0.41614  0.41614  0.00000  0.16772

   Total alpha = 16.00000, Total beta = 16.00000, Total charge = -0.00000
