  ==> Input File <==

--------------------------------------------------------------------------
set {
	reference rhf
	basis 6-31G*
}

set_num_threads( 4 )
memory 2 gb

molecule MOL {
0 1

O	 -2.821601	 1.309235	 -0.001213
C	 -2.668563	 0.129746	 -0.000350
C	 -3.801572	 -0.864014	 -0.000442
O	 -1.481751	 -0.454642	 0.000584
H	 -4.417280	 -0.689587	 -0.874708
H	 -3.443784	 -1.883046	 -0.000565
H	 -4.417179	 -0.689832	 0.873954
C	 -0.334255	 0.388708	 0.000906
C	 0.891947	 -0.504646	 0.000751
H	 -0.365390	 1.025305	 -0.873475
H	 -0.365484	 1.024911	 0.875569
C	 2.149042	 0.242905	 -0.447969
H	 0.708997	 -1.351926	 -0.654295
H	 1.034280	 -0.905788	 1.000395
C	 3.397382	 -0.641355	 -0.455598
H	 1.993330	 0.650627	 -1.445266
H	 2.318582	 1.095574	 0.207236
C	 4.652685	 0.105003	 -0.905074
H	 3.229816	 -1.493744	 -1.110144
H	 3.555799	 -1.047789	 0.540788
H	 4.537653	 0.494887	 -1.912433
H	 5.520051	 -0.547599	 -0.900249
H	 4.866279	 0.943962	 -0.248922

	symmetry c1
}
set optking {
	frozen_dihedral = ("
		13 9 8 10
	")
}

ee = optimize('scf')
oeprop('DIPOLE', 'QUADRUPOLE', 'MULLIKEN_CHARGES')
f=open( 'psi4out.xyz', 'w' )
f.write( "23  " )
f.write( str(ee) + "\n" )
f.write( MOL.save_string_xyz() )
f.close()
--------------------------------------------------------------------------

    Molecular point group: c1
  Charge       = 0
  Multiplicity = 1
  Basis Set: 6-31G*
  Basis Set:
  @DF-RHF Final Energy:  -422.97820696511997
    Total Energy =                       -422.9782069651208758
    Molecular point group: c1
  Basis Set: 6-31G*
  Basis Set:
  Basis Set: 6-31G*
  Basis Set:
  @DF-RHF Final Energy:  -422.97832542524924
    Total Energy =                       -422.9783254252492952
  Basis Set: 6-31G*
  Basis Set:
  Basis Set: 6-31G*
  Basis Set:
  @DF-RHF Final Energy:  -422.97836926747499
    Total Energy =                       -422.9783692674756139
  Basis Set: 6-31G*
  Basis Set:
  Basis Set: 6-31G*
  Basis Set:
  @DF-RHF Final Energy:  -422.97828482373728
    Total Energy =                       -422.9782848237374537
  Basis Set: 6-31G*
  Basis Set:
  Basis Set: 6-31G*
  Basis Set:
  @DF-RHF Final Energy:  -422.97839453933631
    Total Energy =                       -422.9783945393355680
  Basis Set: 6-31G*
  Basis Set:
  Charge       = 0
  Multiplicity = 1
  Basis Set: 6-31G*
  Basis Set:

    Orbital Energies (a.u.)
    -----------------------

    Doubly Occupied:

       1A    -20.603661     2A    -20.540926     3A    -11.374418
       4A    -11.281297     5A    -11.232620     6A    -11.224300
       7A    -11.223693     8A    -11.221598     9A    -11.212937
      10A     -1.468540    11A     -1.361287    12A     -1.093885
      13A     -1.042177    14A     -1.003492    15A     -0.931009
      16A     -0.841966    17A     -0.802913    18A     -0.775913
      19A     -0.690679    20A     -0.685031    21A     -0.668443
      22A     -0.646428    23A     -0.605912    24A     -0.588064
      25A     -0.582432    26A     -0.566921    27A     -0.558872
      28A     -0.537633    29A     -0.523445    30A     -0.505195
      31A     -0.490893    32A     -0.477930    33A     -0.470796
      34A     -0.465516    35A     -0.450209    36A     -0.435690

  @DF-RHF Final Energy:  -422.97839384207458

   => Energetics <=

    Nuclear Repulsion Energy =            449.6127348272257791
    One-Electron Energy =               -1466.8088170747923868
    Two-Electron Energy =                 594.2176884054917991
    DFT Exchange-Correlation Energy =       0.0000000000000000
    Empirical Dispersion Energy =           0.0000000000000000
    PCM Polarization Energy =               0.0000000000000000
    EFP Energy =                            0.0000000000000000
    Total Energy =                       -422.9783938420748655
    Molecular point group: c1
  Basis Set: 6-31G*
  Basis Set:

  -Total Gradient:
     Atom            X                  Y                   Z
    ------   -----------------  -----------------  -----------------
       1       -0.000011918589     0.000012587235    -0.000126140807
       2        0.000051349739    -0.000018312341     0.000285114118
       3       -0.000010161349    -0.000000509235    -0.000086705884
       4        0.000079248519     0.000000406453    -0.000183972061
       5       -0.000012042362    -0.000011508181    -0.000000255427
       6       -0.000001177944    -0.000001678048    -0.000005053818
       7        0.000015948631     0.000013522447    -0.000000216812
       8       -0.002422628697    -0.003395717797    -0.001340184329
       9        0.001924817019     0.002893591397    -0.002689189484
      10        0.001736185820     0.002339477247     0.001700959639
      11       -0.000001757416     0.000012636309     0.000027158540
      12       -0.000074199497    -0.000004031054    -0.000118358253
      13       -0.001216252748    -0.001807488403     0.002517613090
      14       -0.000038078348     0.000014453176     0.000039730050
      15       -0.000014582287    -0.000023181903     0.000013996180
      16        0.000039176217    -0.000009394943    -0.000044720233
      17       -0.000045621118    -0.000034213201    -0.000027549034
      18        0.000002082267     0.000012586235     0.000027714119
      19        0.000013565582     0.000025465251    -0.000008494321
      20       -0.000013060666    -0.000019832956     0.000004877583
      21       -0.000009290660    -0.000003620824     0.000007058047
      22       -0.000000871748     0.000000161901     0.000004991252
      23        0.000009269648     0.000004601232     0.000001627844

  **** Optimization is complete! (in 6 steps) ****
    Final optimized geometry and variables:
    Molecular point group: c1

    Geometry (in Angstrom), charge = 0, multiplicity = 1:

    O           -2.797942319098     1.340956935209     0.245830617297
    C           -2.654401922472     0.160556537343     0.225807930095
    C           -3.794470461848    -0.824743092542     0.249963133232
    O           -1.472786231068    -0.432941675528     0.177102071080
    H           -4.438167487729    -0.632982854670    -0.600162089551
    H           -3.444933024514    -1.846281634097     0.223019699892
    H           -4.378521560287    -0.658841678774     1.147310334099
    C           -0.320643150469     0.400237649495     0.152188671926
    C            0.907266231917    -0.494864577202     0.124643281257
    H           -0.361052224484     1.055206570109    -0.708710327201
    H           -0.326494569819     1.033795359334     1.029530776257
    C            2.171084040917     0.260764731368    -0.285615518618
    H            0.718055335113    -1.328620951005    -0.545237836726
    H            1.043022051638    -0.932672758304     1.110622962062
    C            3.428494666322    -0.608942325493    -0.238864754714
    H            2.045098060604     0.656817675126    -1.291482007423
    H            2.307777029585     1.122115097030     0.366471679647
    C            4.690581205612     0.146963905975    -0.651984558032
    H            3.293372219855    -1.470173734486    -0.889384520269
    H            3.556070419146    -1.002798056195     0.766923060260
    H            4.607233579380     0.524393602476    -1.667158877146
    H            5.564452723263    -0.495452785218    -0.608887935135
    H            4.871275670985     0.995514104539     0.001746417030

  Mulliken Charges: (a.u.)
   Center  Symbol    Alpha    Beta     Spin     Total
       1     O     4.28361  4.28361  0.00000 -0.56721
       2     C     2.61527  2.61527  0.00000  0.76946
       3     C     3.28776  3.28776  0.00000 -0.57551
       4     O     4.31192  4.31192  0.00000 -0.62385
       5     H     0.39740  0.39740  0.00000  0.20520
       6     H     0.39985  0.39985  0.00000  0.20030
       7     H     0.39744  0.39744  0.00000  0.20511
       8     C     2.99693  2.99693  0.00000  0.00615
       9     C     3.16616  3.16616  0.00000 -0.33233
      10     H     0.41088  0.41088  0.00000  0.17824
      11     H     0.41022  0.41022  0.00000  0.17957
      12     C     3.15980  3.15980  0.00000 -0.31961
      13     H     0.41172  0.41172  0.00000  0.17656
      14     H     0.41591  0.41591  0.00000  0.16819
      15     C     3.15176  3.15176  0.00000 -0.30352
      16     H     0.42007  0.42007  0.00000  0.15986
      17     H     0.42108  0.42108  0.00000  0.15785
      18     C     3.23988  3.23988  0.00000 -0.47977
      19     H     0.42124  0.42124  0.00000  0.15753
      20     H     0.42144  0.42144  0.00000  0.15713
      21     H     0.42083  0.42083  0.00000  0.15834
      22     H     0.41800  0.41800  0.00000  0.16400
      23     H     0.42085  0.42085  0.00000  0.15831

   Total alpha = 36.00000, Total beta = 36.00000, Total charge = -0.00000
