  ==> Input File <==

--------------------------------------------------------------------------
set {
	reference rhf
	basis 6-31G*
}

set_num_threads( 4 )
memory 2 gb

molecule MOL {
0 1

H	 0.945393	 2.337051	 -0.916070
O	 1.241151	 1.929803	 -0.113244
C	 0.709265	 0.639550	 -0.033818
C	 -0.793441	 0.596080	 0.058728
H	 1.141838	 0.188139	 0.851796
H	 1.032551	 0.034897	 -0.880521
C	 -1.530462	 -0.493172	 -0.025500
H	 -1.268471	 1.554324	 0.202247
H	 -1.092586	 -1.461565	 -0.186463
H	 -2.602122	 -0.450675	 0.050101

	symmetry c1
}
set optking {
	frozen_dihedral = ("
		5 3 4 7
	")
}

ee = optimize('scf')
oeprop('DIPOLE', 'QUADRUPOLE', 'MULLIKEN_CHARGES')
f=open( 'psi4out.xyz', 'w' )
f.write( "10  " )
f.write( str(ee) + "\n" )
f.write( MOL.save_string_xyz() )
f.close()
--------------------------------------------------------------------------

    Molecular point group: c1
  Charge       = 0
  Multiplicity = 1
  Basis Set: 6-31G*
  Basis Set:
  @DF-RHF Final Energy:  -191.91356045798710
    Total Energy =                       -191.9135604579871597
    Molecular point group: c1
  Basis Set: 6-31G*
  Basis Set:
  Basis Set: 6-31G*
  Basis Set:
  @DF-RHF Final Energy:  -191.91387104082270
    Total Energy =                       -191.9138710408226700
  Basis Set: 6-31G*
  Basis Set:
  Basis Set: 6-31G*
  Basis Set:
  @DF-RHF Final Energy:  -191.91393011798192
    Total Energy =                       -191.9139301179819199
  Basis Set: 6-31G*
  Basis Set:
  Basis Set: 6-31G*
  Basis Set:
  @DF-RHF Final Energy:  -191.91393350454229
    Total Energy =                       -191.9139335045422570
  Basis Set: 6-31G*
  Basis Set:
  Charge       = 0
  Multiplicity = 1
  Basis Set: 6-31G*
  Basis Set:

    Orbital Energies (a.u.)
    -----------------------

    Doubly Occupied:

       1A    -20.560277     2A    -11.277350     3A    -11.230576
       4A    -11.221633     5A     -1.368141     6A     -1.060924
       7A     -0.919880     8A     -0.775671     9A     -0.701405
      10A     -0.628869    11A     -0.622537    12A     -0.590622
      13A     -0.523779    14A     -0.500272    15A     -0.445987
      16A     -0.364272

  @DF-RHF Final Energy:  -191.91393369445146

   => Energetics <=

    Nuclear Repulsion Energy =            116.8989001931329028
    One-Electron Energy =                -492.0412808510130276
    Two-Electron Energy =                 183.2284469634286665
    DFT Exchange-Correlation Energy =       0.0000000000000000
    Empirical Dispersion Energy =           0.0000000000000000
    PCM Polarization Energy =               0.0000000000000000
    EFP Energy =                            0.0000000000000000
    Total Energy =                       -191.9139336944514866
    Molecular point group: c1
  Basis Set: 6-31G*
  Basis Set:

  -Total Gradient:
     Atom            X                  Y                   Z
    ------   -----------------  -----------------  -----------------
       1       -0.000003653199    -0.000000540832    -0.000005174268
       2       -0.000011325921    -0.000031298740     0.000000973436
       3        0.000067301117     0.002939282386     0.002791097736
       4       -0.000201711082    -0.000197497257    -0.004126996953
       5       -0.000005777847    -0.002457691737    -0.001204698464
       6       -0.000000932303     0.000004878485    -0.000007273726
       7        0.000170193087    -0.000262824573     0.002558122833
       8       -0.000004781175     0.000001644611    -0.000003884185
       9       -0.000007550068     0.000004839962    -0.000002480659
      10       -0.000001762611    -0.000000792306     0.000000314249

  **** Optimization is complete! (in 5 steps) ****
    Final optimized geometry and variables:
    Molecular point group: c1

    Geometry (in Angstrom), charge = 0, multiplicity = 1:

    H            1.010514910417     1.592700257655    -0.896553141931
    O            1.247271027194     1.214156554255    -0.061174898427
    C            0.741811260394    -0.090178618085     0.018203401120
    C           -0.767954709309    -0.126698111887     0.095621934239
    H            1.170339105288    -0.531268383021     0.909156069602
    H            1.088569071215    -0.690149928316    -0.820896834258
    C           -1.501491830353    -1.218391926023     0.014927436446
    H           -1.237649109440     0.824506438324     0.288480119500
    H           -1.066595571040    -2.188633827456    -0.161590488381
    H           -2.570983168895    -1.187202162909     0.119257110595

  Mulliken Charges: (a.u.)
   Center  Symbol    Alpha    Beta     Spin     Total
       1     H     0.28122  0.28122  0.00000  0.43756
       2     O     4.37001  4.37001  0.00000 -0.74002
       3     C     3.00308  3.00308  0.00000 -0.00617
       4     C     3.09405  3.09405  0.00000 -0.18810
       5     H     0.40541  0.40541  0.00000  0.18918
       6     H     0.42253  0.42253  0.00000  0.15493
       7     C     3.19778  3.19778  0.00000 -0.39555
       8     H     0.40290  0.40290  0.00000  0.19421
       9     H     0.41407  0.41407  0.00000  0.17186
      10     H     0.40895  0.40895  0.00000  0.18210

   Total alpha = 16.00000, Total beta = 16.00000, Total charge =  0.00000
