                              Psi4 1.0.54 Driver

  ==> Input File <==

--------------------------------------------------------------------------
set {
	reference rhf
	basis cc-pvtz
}

set_num_threads( 4 )
memory 2 gb

molecule MOL {
0 1

H	 -2.428577	 -1.776285	 -0.397070
C	 -1.660469	 -1.051328	 -0.228596
C	 -1.962656	 0.331640	 -0.015909
C	 -0.375269	 -1.413201	 -0.210134
H	 -2.986571	 0.655177	 -0.024777
C	 -0.983332	 1.217140	 0.192394
H	 -0.070135	 -2.429643	 -0.361393
N	 0.640204	 -0.530428	 -0.000115
H	 -1.172050	 2.258263	 0.354901
C	 0.416783	 0.818987	 0.211999
C	 2.006991	 -1.033007	 -0.000020
O	 1.323979	 1.584133	 0.395818
H	 2.182444	 -1.636914	 -0.880881
H	 2.678769	 -0.195442	 -0.002236
H	 2.183828	 -1.633244	 0.883082

	symmetry c1
}
set optking {
	frozen_dihedral = ("
		10 8 11 13
	")
}

ee,wfn = optimize('scf', return_wfn=True)
oeprop( wfn, 'DIPOLE', 'QUADRUPOLE', 'MULLIKEN_CHARGES')
f=open( 'psi4out.xyz', 'w' )
f.write( "15  " )
f.write( str(ee) + "\n" )
f.write( MOL.save_string_xyz() )
f.close()
--------------------------------------------------------------------------

    Molecular point group: c1
  Charge       = 0
  Multiplicity = 1
  Basis Set: CC-PVTZ
  Basis Set:
  @DF-RHF Final Energy:  -360.72256211838180
    Total Energy =                       -360.7225621183816315
    Molecular point group: c1
  Basis Set: CC-PVTZ
  Basis Set:
  Basis Set: CC-PVTZ
  Basis Set:
  @DF-RHF Final Energy:  -360.72257941790883
    Total Energy =                       -360.7225794179087188
  Basis Set: CC-PVTZ
  Basis Set:
  Basis Set: CC-PVTZ
  Basis Set:
  @DF-RHF Final Energy:  -360.72257248180256
    Total Energy =                       -360.7225724818023309
  Basis Set: CC-PVTZ
  Basis Set:
  Charge       = 0
  Multiplicity = 1
  Basis Set: CC-PVTZ
  Basis Set:

    Orbital Energies (a.u.)
    -----------------------

    Doubly Occupied:

       1A    -20.501778     2A    -15.616490     3A    -11.339555
       4A    -11.293215     5A    -11.263515     6A    -11.258209
       7A    -11.230682     8A    -11.228371     9A     -1.390543
      10A     -1.285759    11A     -1.118801    12A     -1.028873
      13A     -0.972299    14A     -0.875739    15A     -0.838572
      16A     -0.719112    17A     -0.703076    18A     -0.663383
      19A     -0.652772    20A     -0.625211    21A     -0.611927
      22A     -0.573892    23A     -0.558166    24A     -0.550441
      25A     -0.529335    26A     -0.482818    27A     -0.420143
      28A     -0.410817    29A     -0.311006

  @DF-RHF Final Energy:  -360.72258443761558

   => Energetics <=

    Nuclear Repulsion Energy =            358.4528025144501839
    One-Electron Energy =               -1200.2417751627006055
    Two-Electron Energy =                 481.0663882106347842
    DFT Exchange-Correlation Energy =       0.0000000000000000
    Empirical Dispersion Energy =           0.0000000000000000
    PCM Polarization Energy =               0.0000000000000000
    EFP Energy =                            0.0000000000000000
    Total Energy =                       -360.7225844376155806
    Molecular point group: c1
  Basis Set: CC-PVTZ
  Basis Set:

  -Total Gradient:
     Atom            X                  Y                   Z
    ------   -----------------  -----------------  -----------------
       1        0.000002015498     0.000002842920    -0.000013455540
       2        0.000007155538    -0.000003807414     0.000011310558
       3        0.000003258604     0.000006394822     0.000000535318
       4       -0.000011835191    -0.000027289546     0.000002676225
       5        0.000003036769     0.000004845190    -0.000001248942
       6        0.000010127142     0.000009176129     0.000009042260
       7       -0.000000979413     0.000005051006    -0.000003302369
       8       -0.000038805482     0.000027143452     0.000326928237
       9       -0.000006190921     0.000003283123     0.000008847383
      10       -0.000001373640    -0.000030633238    -0.000296062423
      11       -0.000075515785    -0.000293276942     0.000121796999
      12        0.000020811645     0.000049578545     0.000005155968
      13        0.000078238147     0.000260024350    -0.000158950600
      14       -0.000006934396    -0.000007699486    -0.000006779666
      15        0.000016991481    -0.000005632908    -0.000006493409

  **** Optimization is complete! (in 4 steps) ****
    Final optimized geometry and variables:
    Molecular point group: c1

    Geometry (in Angstrom), charge = 0, multiplicity = 1:

    H           -2.427115613624    -1.773367980598    -0.442653820050
    C           -1.659079915347    -1.047964976048    -0.275712049133
    C           -1.961385817796     0.335603871872    -0.066283009246
    C           -0.373681522412    -1.409561235172    -0.259799880889
    H           -2.985321508221     0.659077420205    -0.075743507322
    C           -0.982080613964     1.221694800855     0.139269554289
    H           -0.068873324224    -2.426058973373    -0.410865796028
    N            0.641876449014    -0.525736623211    -0.054944419981
    H           -1.170569635532     2.263180912890     0.300238928463
    C            0.417773540785     0.822496118650     0.163455203548
    C            2.009533294732    -1.025543475119    -0.047694492053
    O            1.324929517452     1.585155398165     0.356818097891
    H            2.185849575614    -1.622579959937    -0.932234508509
    H            2.680267392582    -0.186851835848    -0.042150964593
    H            2.189280062312    -1.629692114026     0.832732095225

  Mulliken Charges: (a.u.)
   Center  Symbol    Alpha    Beta     Spin     Total
       1     H     0.41409  0.41409  0.00000  0.17183
       2     C     3.10221  3.10221  0.00000 -0.20442
       3     C     3.06191  3.06191  0.00000 -0.12382
       4     C     3.03297  3.03297  0.00000 -0.06594
       5     H     0.41834  0.41834  0.00000  0.16332
       6     C     3.11620  3.11620  0.00000 -0.23240
       7     H     0.42058  0.42058  0.00000  0.15883
       8     N     3.51262  3.51262  0.00000 -0.02523
       9     H     0.40888  0.40888  0.00000  0.18223
      10     C     2.84547  2.84547  0.00000  0.30906
      11     C     3.10868  3.10868  0.00000 -0.21736
      12     O     4.23658  4.23658  0.00000 -0.47316
      13     H     0.45200  0.45200  0.00000  0.09600
      14     H     0.42141  0.42141  0.00000  0.15718
      15     H     0.44806  0.44806  0.00000  0.10389

   Total alpha = 29.00000, Total beta = 29.00000, Total charge = -0.00000

*** Psi4 exiting successfully. Buy a developer a beer!
