  ==> Input File <==

--------------------------------------------------------------------------
set {
	reference rhf
	basis 6-31G*
}

set_num_threads( 1 )
memory 2 gb

molecule MOL {
0 1

H	 2.465338	 -2.224223	 0.000000
O	 2.784187	 -1.332015	 0.000000
C	 1.765313	 -0.449364	 0.000000
C	 1.559439	 0.288359	 1.161604
C	 0.942377	 -0.263140	 -1.093724
H	 2.212580	 0.125350	 1.998081
C	 0.532728	 1.207645	 1.223582
H	 1.078107	 -0.817727	 -2.001213
C	 -0.078981	 0.668161	 -0.997166
H	 0.380948	 1.772884	 2.124318
C	 -0.307965	 1.413087	 0.137823
N	 -0.946641	 0.861262	 -2.157065
H	 -1.108594	 2.122532	 0.170758
O	 -0.727128	 0.203068	 -3.128984
O	 -1.823259	 1.664667	 -2.065715

	symmetry c1
}
set optking {
	frozen_dihedral = ("
		11 9 12 14
	")
}

ee = energy('scf')
oeprop('DIPOLE', 'QUADRUPOLE', 'MULLIKEN_CHARGES')
f=open( 'psi4out.xyz', 'w' )
f.write( "15  " )
f.write( str(ee) + "\n" )
f.write( MOL.save_string_xyz() )
f.close()
--------------------------------------------------------------------------

    Molecular point group: c1

    Geometry (in Angstrom), charge = 0, multiplicity = 1:

       Center              X                  Y                   Z               Mass
    ------------   -----------------  -----------------  -----------------  -----------------
           H          2.116438828149    -2.626969124113     0.760996386535     1.007825032070
           O          2.435287828149    -1.734761124113     0.760996386535    15.994914619560
           C          1.416413828149    -0.852110124113     0.760996386535    12.000000000000
           C          1.210539828149    -0.114387124113     1.922600386535    12.000000000000
           C          0.593477828149    -0.665886124113    -0.332727613465    12.000000000000
           H          1.863680828149    -0.277396124113     2.759077386535     1.007825032070
           C          0.183828828149     0.804898875887     1.984578386535    12.000000000000
           H          0.729207828149    -1.220473124113    -1.240216613465     1.007825032070
           C         -0.427880171851     0.265414875887    -0.236169613465    12.000000000000
           H          0.032048828149     1.370137875887     2.885314386535     1.007825032070
           C         -0.656864171851     1.010340875887     0.898819386535    12.000000000000
           N         -1.295540171851     0.458515875887    -1.396068613465    14.003074004780
           H         -1.457493171851     1.719785875887     0.931754386535     1.007825032070
           O         -1.076027171851    -0.199678124113    -2.367987613465    15.994914619560
           O         -2.172158171851     1.261920875887    -1.304718613465    15.994914619560

  Charge       = 0
  Multiplicity = 1
  Basis Set: 6-31G*
  Basis Set:

    Orbital Energies (a.u.)
    -----------------------

    Doubly Occupied:

       1A    -20.604015     2A    -20.603374     3A    -20.603050
       4A    -15.858475     5A    -11.321779     6A    -11.309031
       7A    -11.268474     8A    -11.267491     9A    -11.264978
      10A    -11.262183    11A     -1.637265    12A     -1.427422
      13A     -1.420521    14A     -1.200124    15A     -1.093806
      16A     -1.045548    17A     -0.963844    18A     -0.871594
      19A     -0.830651    20A     -0.792363    21A     -0.741333
      22A     -0.736249    23A     -0.723202    24A     -0.708792
      25A     -0.678756    26A     -0.641577    27A     -0.627327
      28A     -0.568850    29A     -0.556117    30A     -0.530709
      31A     -0.510812    32A     -0.490078    33A     -0.485285
      34A     -0.454031    35A     -0.376454    36A     -0.355099

  @DF-RHF Final Energy:  -509.02325234879868

   => Energetics <=

    Nuclear Repulsion Energy =            503.2896750475778163
    One-Electron Energy =               -1692.9643576079938612
    Two-Electron Energy =                 680.6514302116172530
    DFT Exchange-Correlation Energy =       0.0000000000000000
    Empirical Dispersion Energy =           0.0000000000000000
    PCM Polarization Energy =               0.0000000000000000
    EFP Energy =                            0.0000000000000000
    Total Energy =                       -509.0232523487986782

  Mulliken Charges: (a.u.)
   Center  Symbol    Alpha    Beta     Spin     Total
       1     H     0.26679  0.26679  0.00000  0.46643
       2     O     4.38245  4.38245  0.00000 -0.76491
       3     C     2.81482  2.81482  0.00000  0.37037
       4     C     3.10251  3.10251  0.00000 -0.20502
       5     C     3.11645  3.11645  0.00000 -0.23290
       6     H     0.38237  0.38237  0.00000  0.23525
       7     C     3.10551  3.10551  0.00000 -0.21102
       8     H     0.36129  0.36129  0.00000  0.27742
       9     C     2.91746  2.91746  0.00000  0.16509
      10     H     0.38744  0.38744  0.00000  0.22511
      11     C     3.09145  3.09145  0.00000 -0.18291
      12     N     3.24014  3.24014  0.00000  0.51971
      13     H     0.36409  0.36409  0.00000  0.27181
      14     O     4.23423  4.23423  0.00000 -0.46846
      15     O     4.23300  4.23300  0.00000 -0.46600

   Total alpha = 36.00000, Total beta = 36.00000, Total charge = -0.00000
