                              Psi4 1.0.54 Driver

  ==> Input File <==

--------------------------------------------------------------------------
set {
	reference rhf
	basis cc-pvtz
}

set_num_threads( 4 )
memory 2 gb

molecule MOL {
0 1

O	 3.219313	 0.959291	 -0.614106
C	 2.698710	 0.058177	 -0.050237
C	 1.246364	 -0.005813	 0.348416
O	 3.344101	 -1.038700	 0.312317
C	 0.453207	 1.232821	 -0.049003
H	 0.839270	 -0.907818	 -0.092281
H	 1.216683	 -0.160521	 1.422434
C	 -0.998367	 1.217982	 0.432195
H	 0.481498	 1.345443	 -1.127236
H	 0.951413	 2.105557	 0.354893
C	 -1.882951	 0.151251	 -0.211235
H	 -1.429490	 2.193659	 0.228843
H	 -1.019755	 1.099323	 1.513279
C	 -3.342450	 0.243269	 0.226009
H	 -1.826223	 0.246578	 -1.293162
H	 -1.508033	 -0.839650	 0.027695
C	 -3.731667	 1.619255	 0.758875
H	 -3.535534	 -0.504389	 0.991558
H	 -3.985576	 -0.009778	 -0.613767
C	 -5.190549	 1.702743	 1.195305
H	 -3.090031	 1.873403	 1.598179
H	 -3.541906	 2.367357	 -0.006103
H	 -5.433570	 2.691340	 1.567595
H	 -5.404005	 0.990387	 1.985301
H	 -5.859346	 1.487249	 0.368576
C	 4.720529	 -1.114346	 0.001449
H	 4.874321	 -1.055557	 -1.065852
H	 5.057824	 -2.067950	 0.373977
H	 5.264321	 -0.313596	 0.480350

	symmetry c1
}
set optking {
	frozen_dihedral = ("
		17 14 11 15
	")
}

ee,wfn = optimize('scf', return_wfn=True)
oeprop( wfn, 'DIPOLE', 'QUADRUPOLE', 'MULLIKEN_CHARGES')
f=open( 'psi4out.xyz', 'w' )
f.write( "29  " )
f.write( str(ee) + "\n" )
f.write( MOL.save_string_xyz() )
f.close()
--------------------------------------------------------------------------

    Molecular point group: c1
  Charge       = 0
  Multiplicity = 1
  Basis Set: CC-PVTZ
  Basis Set:
  @DF-RHF Final Energy:  -501.21331728362009
    Total Energy =                       -501.2133172836201993
    Molecular point group: c1
  Basis Set: CC-PVTZ
  Basis Set:
  Basis Set: CC-PVTZ
  Basis Set:
  @DF-RHF Final Energy:  -501.18408517567866
    Total Energy =                       -501.1840851756782058
  Basis Set: CC-PVTZ
  Basis Set:
  Basis Set: CC-PVTZ
  Basis Set:
  @DF-RHF Final Energy:  -501.21525779873434
    Total Energy =                       -501.2152577987338873
  Basis Set: CC-PVTZ
  Basis Set:
  Basis Set: CC-PVTZ
  Basis Set:
  @DF-RHF Final Energy:  -501.21703830886338
    Total Energy =                       -501.2170383088632661
  Basis Set: CC-PVTZ
  Basis Set:
  @DF-RHF Final Energy:  -501.21708902058901
    Total Energy =                       -501.2170890205893556
  @DF-RHF Final Energy:  -501.21711157212019
    Total Energy =                       -501.2171115721196202
  @DF-RHF Final Energy:  -501.21722655056089
    Total Energy =                       -501.2172265505612359
  Basis Set: CC-PVTZ
  Basis Set:
  @DF-RHF Final Energy:  -501.21725175245103
    Total Energy =                       -501.2172517524514888
  Basis Set: CC-PVTZ
  Basis Set:
  Basis Set: CC-PVTZ
  Basis Set:
  @DF-RHF Final Energy:  -501.21725283629530
    Total Energy =                       -501.2172528362951880
  Basis Set: CC-PVTZ
  Basis Set:
  Basis Set: CC-PVTZ
  Basis Set:
  @DF-RHF Final Energy:  -501.21725782398994
    Total Energy =                       -501.2172578239891436
  Basis Set: CC-PVTZ
  Basis Set:
  Charge       = 0
  Multiplicity = 1
  Basis Set: CC-PVTZ
  Basis Set:

    Orbital Energies (a.u.)
    -----------------------

    Doubly Occupied:

       1A    -20.595961     2A    -20.533811     3A    -11.364240
       4A    -11.278232     5A    -11.232860     6A    -11.217040
       7A    -11.215492     8A    -11.214097     9A    -11.213386
      10A    -11.212800    11A    -11.206694    12A     -1.471849
      13A     -1.365442    14A     -1.098103    15A     -1.065986
      16A     -1.018507    17A     -0.977109    18A     -0.929922
      19A     -0.863480    20A     -0.820381    21A     -0.774465
      22A     -0.759523    23A     -0.703109    24A     -0.685219
      25A     -0.676023    26A     -0.644983    27A     -0.629342
      28A     -0.609653    29A     -0.593692    30A     -0.582658
      31A     -0.566738    32A     -0.554069    33A     -0.546190
      34A     -0.525724    35A     -0.522502    36A     -0.498139
      37A     -0.493143    38A     -0.486580    39A     -0.480822
      40A     -0.460722    41A     -0.451023    42A     -0.448834
      43A     -0.441889    44A     -0.440064

  @DF-RHF Final Energy:  -501.21725863015854

   => Energetics <=

    Nuclear Repulsion Energy =            615.2503736030889741
    One-Electron Energy =               -1901.9942702346002079
    Two-Electron Energy =                 785.5266380013524667
    DFT Exchange-Correlation Energy =       0.0000000000000000
    Empirical Dispersion Energy =           0.0000000000000000
    PCM Polarization Energy =               0.0000000000000000
    EFP Energy =                            0.0000000000000000
    Total Energy =                       -501.2172586301587671
    Molecular point group: c1
  Basis Set: CC-PVTZ
  Basis Set:

  -Total Gradient:
     Atom            X                  Y                   Z
    ------   -----------------  -----------------  -----------------
       1       -0.000013067557     0.000013002282    -0.000021515611
       2        0.000015343707     0.000017388360     0.000058101438
       3       -0.000017853784    -0.000006558801    -0.000039270965
       4       -0.000014151678    -0.000010692215    -0.000013905383
       5       -0.000006229300    -0.000006861752     0.000030699163
       6       -0.000008443750    -0.000014674009     0.000005775653
       7        0.000003847150     0.000010320465     0.000000208642
       8        0.000004413606    -0.000010739741    -0.000007602317
       9       -0.000003905644    -0.000009880721    -0.000001253658
      10       -0.000006775508     0.000003467368     0.000001336512
      11       -0.000383026280     0.006505307216     0.003378097403
      12       -0.000028077249     0.000016172496     0.000010063626
      13        0.000034209412    -0.000007946298    -0.000024606134
      14       -0.002136872506     0.000741005843    -0.006063075403
      15        0.000926190490    -0.005798270192    -0.001268237269
      16        0.000006398175    -0.000007501202    -0.000003760698
      17        0.001607148927    -0.001418441635     0.003956063242
      18        0.000011957809     0.000000323752    -0.000001214834
      19       -0.000005831865    -0.000003495099    -0.000001664759
      20        0.000012610884    -0.000006938709     0.000010139213
      21       -0.000004916660     0.000000794246     0.000005965931
      22        0.000001949695     0.000001019231    -0.000004468625
      23       -0.000000062096     0.000001322973     0.000004430669
      24       -0.000003835810    -0.000000190577     0.000001904836
      25       -0.000003970911    -0.000000497858    -0.000009939808
      26        0.000004369466    -0.000007279604    -0.000001197703
      27        0.000004890177     0.000000972444    -0.000000514679
      28        0.000002070725     0.000002008297     0.000001125914
      29        0.000001620379    -0.000003136559    -0.000001684395

  **** Optimization is complete! (in 11 steps) ****
    Final optimized geometry and variables:
    Molecular point group: c1

    Geometry (in Angstrom), charge = 0, multiplicity = 1:

    O            3.014252801801     1.149419119455    -0.819392185743
    C            2.657208835735     0.121558863586    -0.353525813151
    C            1.248352097628    -0.208166963951     0.069578221897
    O            3.472974229770    -0.898173648048    -0.139348869698
    C            0.264801030409     0.932986534935    -0.158658476445
    H            0.963125191142    -1.106255740915    -0.464493411411
    H            1.287147951545    -0.485912727653     1.118249483828
    C           -1.147946025307     0.652928082806     0.358573063597
    H            0.228141744403     1.168501210571    -1.216628958155
    H            0.648950527025     1.819589294200     0.330561270948
    C           -1.890727728237    -0.439306969815    -0.408590418579
    H           -1.707959041443     1.578854943190     0.304585136921
    H           -1.097301008147     0.390457663058     1.412822208671
    C           -3.326858544280    -0.768360132929     0.056333411394
    H           -1.898175196056    -0.207036653425    -1.470217743226
    H           -1.320186738294    -1.360522262292    -0.345502745803
    C           -4.098791763458     0.341319776343     0.769965136356
    H           -3.283930280304    -1.616138901112     0.735323139819
    H           -3.900499603383    -1.107098735613    -0.800252197555
    C           -5.512016260840    -0.091962856632     1.147385029701
    H           -3.568854213441     0.641252368148     1.666705928603
    H           -4.155543888369     1.223476250705     0.137803890456
    H           -6.041386673668     0.701793838869     1.661935895703
    H           -5.494254455799    -0.956442814157     1.803028119397
    H           -6.088858974897    -0.358325214885     0.267982706137
    C            4.831129034041    -0.727520107311    -0.490384184172
    H            4.929616430756    -0.525233549507    -1.546619043620
    H            5.321639226495    -1.654634838834    -0.241829475225
    H            5.269664345884     0.087134524245     0.066653022639

  Mulliken Charges: (a.u.)
   Center  Symbol    Alpha    Beta     Spin     Total
       1     O     4.19714  4.19714  0.00000 -0.39428
       2     C     2.80525  2.80525  0.00000  0.38950
       3     C     3.10104  3.10104  0.00000 -0.20208
       4     O     4.14721  4.14721  0.00000 -0.29443
       5     C     3.09280  3.09280  0.00000 -0.18560
       6     H     0.43897  0.43897  0.00000  0.12206
       7     H     0.44013  0.44013  0.00000  0.11974
       8     C     3.10886  3.10886  0.00000 -0.21772
       9     H     0.44619  0.44619  0.00000  0.10762
      10     H     0.43931  0.43931  0.00000  0.12137
      11     C     3.10000  3.10000  0.00000 -0.19999
      12     H     0.43982  0.43982  0.00000  0.12037
      13     H     0.45239  0.45239  0.00000  0.09521
      14     C     3.08938  3.08938  0.00000 -0.17876
      15     H     0.45043  0.45043  0.00000  0.09913
      16     H     0.45158  0.45158  0.00000  0.09684
      17     C     3.09002  3.09002  0.00000 -0.18003
      18     H     0.45475  0.45475  0.00000  0.09050
      19     H     0.44978  0.44978  0.00000  0.10045
      20     C     3.15143  3.15143  0.00000 -0.30286
      21     H     0.45046  0.45046  0.00000  0.09909
      22     H     0.45307  0.45307  0.00000  0.09386
      23     H     0.44803  0.44803  0.00000  0.10394
      24     H     0.45551  0.45551  0.00000  0.08898
      25     H     0.45448  0.45448  0.00000  0.09104
      26     C     3.03813  3.03813  0.00000 -0.07627
      27     H     0.45433  0.45433  0.00000  0.09135
      28     H     0.44528  0.44528  0.00000  0.10945
      29     H     0.45425  0.45425  0.00000  0.09151

   Total alpha = 44.00000, Total beta = 44.00000, Total charge =  0.00000

*** Psi4 exiting successfully. Buy a developer a beer!
