  ==> Input File <==

--------------------------------------------------------------------------
set {
	reference rhf
	basis 6-31G*
}

set_num_threads( 1 )
memory 2 gb

molecule MOL {
0 1

O	 -0.213603	 -2.239440	 0.336385
C	 -1.286428	 -1.750911	 0.178259
C	 -2.572242	 -2.536750	 0.158102
O	 -1.481751	 -0.454642	 0.000584
H	 -2.671441	 -3.065800	 1.098383
H	 -3.430943	 -1.900519	 0.002280
H	 -2.514820	 -3.277684	 -0.630315
C	 -0.334255	 0.388708	 0.000906
C	 0.891947	 -0.504646	 0.000751
H	 -0.365390	 1.025305	 -0.873475
H	 -0.365484	 1.024911	 0.875569
C	 2.191998	 0.301789	 0.000897
H	 0.855148	 -1.151283	 -0.871571
H	 0.855132	 -1.151660	 0.872805
C	 3.441114	 -0.581407	 0.000108
H	 2.215074	 0.954890	 -0.869742
H	 2.215465	 0.953923	 0.872248
C	 4.739576	 0.224112	 -0.001102
H	 3.419457	 -1.233487	 -0.870178
H	 3.420834	 -1.233096	 0.870717
H	 4.804918	 0.861552	 -0.878265
H	 5.606527	 -0.429058	 -0.001824
H	 4.806469	 0.861674	 0.875853

	symmetry c1
}
set optking {
	frozen_dihedral = ("
		13 9 8 10,
		16 12 9 13,
		19 15 12 16,
		1 2 4 8
	")
}

ee = energy('scf')
oeprop('DIPOLE', 'QUADRUPOLE', 'MULLIKEN_CHARGES')
f=open( 'psi4out.xyz', 'w' )
f.write( "23  " )
f.write( str(ee) + "\n" )
f.write( MOL.save_string_xyz() )
f.close()
--------------------------------------------------------------------------

    Molecular point group: c1

    Geometry (in Angstrom), charge = 0, multiplicity = 1:

       Center              X                  Y                   Z               Mass
    ------------   -----------------  -----------------  -----------------  -----------------
           O         -0.803474627067    -1.436807976195     0.260127721768    15.994914619560
           C         -1.876299627067    -0.948278976195     0.102001721768    12.000000000000
           C         -3.162113627067    -1.734117976195     0.081844721768    12.000000000000
           O         -2.071622627067     0.347990023805    -0.075673278232    15.994914619560
           H         -3.261312627067    -2.263167976195     1.022125721768     1.007825032070
           H         -4.020814627067    -1.097886976195    -0.073977278232     1.007825032070
           H         -3.104691627067    -2.475051976195    -0.706572278232     1.007825032070
           C         -0.924126627067     1.191340023805    -0.075351278232    12.000000000000
           C          0.302075372933     0.297986023805    -0.075506278232    12.000000000000
           H         -0.955261627067     1.827937023805    -0.949732278232     1.007825032070
           H         -0.955355627067     1.827543023805     0.799311721768     1.007825032070
           C          1.602126372933     1.104421023805    -0.075360278232    12.000000000000
           H          0.265276372933    -0.348650976195    -0.947828278232     1.007825032070
           H          0.265260372933    -0.349027976195     0.796547721768     1.007825032070
           C          2.851242372933     0.221225023805    -0.076149278232    12.000000000000
           H          1.625202372933     1.757522023805    -0.945999278232     1.007825032070
           H          1.625593372933     1.756555023805     0.795990721768     1.007825032070
           C          4.149704372933     1.026744023805    -0.077359278232    12.000000000000
           H          2.829585372933    -0.430854976195    -0.946435278232     1.007825032070
           H          2.830962372933    -0.430463976195     0.794459721768     1.007825032070
           H          4.215046372933     1.664184023805    -0.954522278232     1.007825032070
           H          5.016655372933     0.373574023805    -0.078081278232     1.007825032070
           H          4.216597372933     1.664306023805     0.799595721768     1.007825032070

  Charge       = 0
  Multiplicity = 1
  Basis Set: 6-31G*
  Basis Set:

    Orbital Energies (a.u.)
    -----------------------

    Doubly Occupied:

       1A    -20.607988     2A    -20.532149     3A    -11.382911
       4A    -11.282298     5A    -11.235363     6A    -11.206340
       7A    -11.201791     8A    -11.200697     9A    -11.189340
      10A     -1.480543    11A     -1.372316    12A     -1.081891
      13A     -1.039742    14A     -0.992723    15A     -0.926385
      16A     -0.853309    17A     -0.793755    18A     -0.769063
      19A     -0.701124    20A     -0.691462    21A     -0.663311
      22A     -0.629819    23A     -0.602238    24A     -0.587365
      25A     -0.574449    26A     -0.561005    27A     -0.557035
      28A     -0.535162    29A     -0.530275    30A     -0.524741
      31A     -0.499379    32A     -0.469896    33A     -0.459344
      34A     -0.441729    35A     -0.426128    36A     -0.373661

  @DF-RHF Final Energy:  -422.89541712682507

   => Energetics <=

    Nuclear Repulsion Energy =            474.2473999057877450
    One-Electron Energy =               -1516.3320093404754516
    Two-Electron Energy =                 619.1891923078601394
    DFT Exchange-Correlation Energy =       0.0000000000000000
    Empirical Dispersion Energy =           0.0000000000000000
    PCM Polarization Energy =               0.0000000000000000
    EFP Energy =                            0.0000000000000000
    Total Energy =                       -422.8954171268276241

  Mulliken Charges: (a.u.)
   Center  Symbol    Alpha    Beta     Spin     Total
       1     O     4.28593  4.28593  0.00000 -0.57187
       2     C     2.60744  2.60744  0.00000  0.78512
       3     C     3.28655  3.28655  0.00000 -0.57311
       4     O     4.31643  4.31643  0.00000 -0.63286
       5     H     0.39736  0.39736  0.00000  0.20528
       6     H     0.39891  0.39891  0.00000  0.20218
       7     H     0.39741  0.39741  0.00000  0.20517
       8     C     2.98673  2.98673  0.00000  0.02653
       9     C     3.18683  3.18683  0.00000 -0.37365
      10     H     0.41329  0.41329  0.00000  0.17341
      11     H     0.41496  0.41496  0.00000  0.17008
      12     C     3.14861  3.14861  0.00000 -0.29723
      13     H     0.41330  0.41330  0.00000  0.17340
      14     H     0.38304  0.38304  0.00000  0.23392
      15     C     3.14842  3.14842  0.00000 -0.29684
      16     H     0.43337  0.43337  0.00000  0.13326
      17     H     0.43067  0.43067  0.00000  0.13865
      18     C     3.23871  3.23871  0.00000 -0.47743
      19     H     0.42304  0.42304  0.00000  0.15392
      20     H     0.42193  0.42193  0.00000  0.15614
      21     H     0.42318  0.42318  0.00000  0.15363
      22     H     0.42060  0.42060  0.00000  0.15880
      23     H     0.42325  0.42325  0.00000  0.15349

   Total alpha = 36.00000, Total beta = 36.00000, Total charge = -0.00000
