  ==> Input File <==

--------------------------------------------------------------------------
set {
	reference rhf
	basis 6-31G*
}

set_num_threads( 4 )
memory 2 gb

molecule MOL {
0 1

H	 -3.269016	 -0.876744	 0.468090
C	 -2.809304	 0.000122	 0.025886
N	 -1.391456	 0.000019	 0.300661
H	 -3.037557	 -0.000063	 -1.044252
H	 -3.269223	 0.876956	 0.468000
C	 -1.072353	 -0.670413	 1.545845
C	 -0.825876	 1.334673	 0.275649
H	 -1.528728	 -0.165484	 2.402744
H	 -1.467927	 -1.680257	 1.509817
C	 0.433837	 -0.727765	 1.747509
H	 -1.041719	 1.787163	 -0.686755
H	 -1.265933	 1.972335	 1.048466
C	 0.680315	 1.277321	 0.477313
H	 0.649681	 -1.180255	 2.709913
H	 0.873895	 -1.365425	 0.974692
N	 0.999418	 0.606890	 1.722497
H	 1.075888	 2.287166	 0.513342
H	 1.136690	 0.772392	 -0.379585
C	 2.417265	 0.606787	 1.997273
H	 2.603805	 0.152780	 2.964151
H	 2.785169	 1.626277	 2.030674
H	 2.998085	 0.060470	 1.247951

	symmetry c1
}
set optking {
	frozen_dihedral = ("
		6 3 2 4
	")
}

ee = optimize('scf')
oeprop('DIPOLE', 'QUADRUPOLE', 'MULLIKEN_CHARGES')
f=open( 'psi4out.xyz', 'w' )
f.write( "22  " )
f.write( str(ee) + "\n" )
f.write( MOL.save_string_xyz() )
f.close()
--------------------------------------------------------------------------

    Molecular point group: c1
  Charge       = 0
  Multiplicity = 1
  Basis Set: 6-31G*
  Basis Set:
  @DF-RHF Final Energy:  -344.22712154404024
    Total Energy =                       -344.2271215440403012
    Molecular point group: c1
  Basis Set: 6-31G*
  Basis Set:
  Basis Set: 6-31G*
  Basis Set:
  @DF-RHF Final Energy:  -344.22817726069735
    Total Energy =                       -344.2281772606970662
  Basis Set: 6-31G*
  Basis Set:
  Basis Set: 6-31G*
  Basis Set:
  @DF-RHF Final Energy:  -344.22829397269027
    Total Energy =                       -344.2282939726900395
  Basis Set: 6-31G*
  Basis Set:
  Basis Set: 6-31G*
  Basis Set:
  @DF-RHF Final Energy:  -344.22829796822094
    Total Energy =                       -344.2282979682207724
  Basis Set: 6-31G*
  Basis Set:
  Charge       = 0
  Multiplicity = 1
  Basis Set: 6-31G*
  Basis Set:

    Orbital Energies (a.u.)
    -----------------------

    Doubly Occupied:

       1A    -15.541728     2A    -15.539431     3A    -11.238743
       4A    -11.238485     5A    -11.237886     6A    -11.237820
       7A    -11.235734     8A    -11.235724     9A     -1.254004
      10A     -1.202594    11A     -1.024759    12A     -0.991285
      13A     -0.911724    14A     -0.867056    15A     -0.835186
      16A     -0.753554    17A     -0.664961    18A     -0.636329
      19A     -0.629518    20A     -0.625826    21A     -0.620520
      22A     -0.580221    23A     -0.549289    24A     -0.547937
      25A     -0.542516    26A     -0.518914    27A     -0.495589
      28A     -0.489344    29A     -0.465490    30A     -0.455792
      31A     -0.349099    32A     -0.340346

  @DF-RHF Final Energy:  -344.22829828477177

   => Energetics <=

    Nuclear Repulsion Energy =            421.1015502418418919
    One-Electron Energy =               -1300.9448869344396371
    Two-Electron Energy =                 535.6150384078263187
    DFT Exchange-Correlation Energy =       0.0000000000000000
    Empirical Dispersion Energy =           0.0000000000000000
    PCM Polarization Energy =               0.0000000000000000
    EFP Energy =                            0.0000000000000000
    Total Energy =                       -344.2282982847714266
    Molecular point group: c1
  Basis Set: 6-31G*
  Basis Set:

  -Total Gradient:
     Atom            X                  Y                   Z
    ------   -----------------  -----------------  -----------------
       1       -0.000012128582    -0.000010704604     0.000005052933
       2        0.000107167270     0.004583880386    -0.000587155764
       3       -0.000568881613     0.003057839110     0.002507619012
       4        0.000071792802    -0.004602241655    -0.000096016400
       5        0.000004489641    -0.000022672855    -0.000005918837
       6        0.000409581593    -0.003001628355    -0.001798605489
       7        0.000000381092    -0.000020542087    -0.000012989675
       8       -0.000005506957    -0.000000080765    -0.000002547009
       9       -0.000000457418     0.000006431686    -0.000004032895
      10        0.000004534707    -0.000007086072    -0.000009274884
      11       -0.000002998442    -0.000003506188     0.000003316719
      12        0.000006178773     0.000004704488     0.000000529043
      13       -0.000010045327     0.000034263134     0.000002598193
      14       -0.000002762548    -0.000001751305    -0.000002828347
      15        0.000004550919    -0.000002445793    -0.000001809308
      16       -0.000016893830    -0.000013803420    -0.000008181458
      17        0.000006208680     0.000002134827    -0.000003573128
      18       -0.000009390596     0.000001513251     0.000000049100
      19        0.000006589520    -0.000002814268     0.000013380622
      20        0.000006145705     0.000000756854     0.000000333983
      21        0.000000802522    -0.000002712655     0.000000173490
      22        0.000000642087     0.000000466286    -0.000000119900

  **** Optimization is complete! (in 5 steps) ****
    Final optimized geometry and variables:
    Molecular point group: c1

    Geometry (in Angstrom), charge = 0, multiplicity = 1:

    H           -3.065257913540    -1.222172483108    -0.650598126382
    C           -2.618540038890    -0.298160581889    -0.999750076536
    N           -1.209387835319    -0.287503045527    -0.675112542927
    H           -2.756724819717    -0.275662560577    -2.076236102034
    H           -3.172010902539     0.527935812740    -0.548672373888
    C           -0.878402138307    -0.971657636786     0.557716466368
    C           -0.628436754451     1.036096611314    -0.733526161154
    H           -1.318463933593    -0.480366673944     1.431325330937
    H           -1.272603491682    -1.980982611093     0.513269675440
    C            0.631033982132    -1.032712943069     0.734583370910
    H           -0.850095637478     1.471444630918    -1.702969226039
    H           -1.054548541448     1.695094845441     0.029388692488
    C            0.878808359659     0.966408131575    -0.545325743974
    H            0.861364764042    -1.487099750567     1.692739235890
    H            1.056415788225    -1.670535013234    -0.046415280661
    N            1.201727787256     0.299925243222     0.701314163124
    H            1.284400856890     1.972576324912    -0.518581790922
    H            1.323702985391     0.451739869424    -1.402504603457
    C            2.621322476624     0.294015080997     0.967042608596
    H            2.812190569880    -0.156408714920     1.934767447784
    H            2.994409803442     1.311814100816     0.993306250803
    H            3.194760300479    -0.258400172664     0.216446374599

  Mulliken Charges: (a.u.)
   Center  Symbol    Alpha    Beta     Spin     Total
       1     H     0.41943  0.41943  0.00000  0.16115
       2     C     3.13846  3.13846  0.00000 -0.27692
       3     N     3.79192  3.79192  0.00000 -0.58384
       4     H     0.41609  0.41609  0.00000  0.16783
       5     H     0.43079  0.43079  0.00000  0.13841
       6     C     3.05310  3.05310  0.00000 -0.10620
       7     C     3.05377  3.05377  0.00000 -0.10754
       8     H     0.42939  0.42939  0.00000  0.14122
       9     H     0.41815  0.41815  0.00000  0.16371
      10     C     3.05710  3.05710  0.00000 -0.11419
      11     H     0.41804  0.41804  0.00000  0.16392
      12     H     0.42880  0.42880  0.00000  0.14240
      13     C     3.05654  3.05654  0.00000 -0.11309
      14     H     0.41815  0.41815  0.00000  0.16369
      15     H     0.42883  0.42883  0.00000  0.14235
      16     N     3.78719  3.78719  0.00000 -0.57438
      17     H     0.41811  0.41811  0.00000  0.16377
      18     H     0.42886  0.42886  0.00000  0.14227
      19     C     3.14016  3.14016  0.00000 -0.28031
      20     H     0.41680  0.41680  0.00000  0.16641
      21     H     0.41679  0.41679  0.00000  0.16641
      22     H     0.43353  0.43353  0.00000  0.13293

   Total alpha = 32.00000, Total beta = 32.00000, Total charge =  0.00000
