  ==> Input File <==

--------------------------------------------------------------------------
set {
	reference rhf
	basis 6-31G*
}

set_num_threads( 4 )
memory 2 gb

molecule MOL {
0 1

O	 -0.988096	 -1.408613	 0.050699
C	 -0.676749	 -0.249230	 -0.009274
C	 -1.746085	 0.827156	 -0.009539
N	 0.623947	 0.147590	 -0.102813
H	 -1.701500	 1.431508	 -0.908902
H	 -2.703425	 0.330732	 0.036390
H	 -1.647323	 1.487769	 0.845106
C	 0.959079	 1.515816	 0.240000
C	 1.639799	 -0.573124	 -0.838246
H	 1.912312	 1.535568	 0.756695
H	 0.196497	 1.921699	 0.881615
H	 1.038346	 2.137771	 -0.648994
H	 2.598892	 -0.423701	 -0.356736
H	 1.443310	 -1.633383	 -0.851538
H	 1.722378	 -0.223635	 -1.865792

	symmetry c1
}
set optking {
	frozen_dihedral = ("
		8 4 2 3
	")
}

ee = optimize('scf')
oeprop('DIPOLE', 'QUADRUPOLE', 'MULLIKEN_CHARGES')
f=open( 'psi4out.xyz', 'w' )
f.write( "15  " )
f.write( str(ee) + "\n" )
f.write( MOL.save_string_xyz() )
f.close()
--------------------------------------------------------------------------

    Molecular point group: c1
  Charge       = 0
  Multiplicity = 1
  Basis Set: 6-31G*
  Basis Set:
  @DF-RHF Final Energy:  -286.01782820416486
    Total Energy =                       -286.0178282041647435
    Molecular point group: c1
  Basis Set: 6-31G*
  Basis Set:
  Basis Set: 6-31G*
  Basis Set:
  @DF-RHF Final Energy:  -286.02140425196342
    Total Energy =                       -286.0214042519633040
  Basis Set: 6-31G*
  Basis Set:
  Basis Set: 6-31G*
  Basis Set:
  @DF-RHF Final Energy:  -286.02406573592742
    Total Energy =                       -286.0240657359276497
  Basis Set: 6-31G*
  Basis Set:
  Basis Set: 6-31G*
  Basis Set:
  @DF-RHF Final Energy:  -286.02492276802798
    Total Energy =                       -286.0249227680279205
  Basis Set: 6-31G*
  Basis Set:
  @DF-RHF Final Energy:  -286.02555188214183
    Total Energy =                       -286.0255518821418832
  @DF-RHF Final Energy:  -286.02680570588666
    Total Energy =                       -286.0268057058865452
  @DF-RHF Final Energy:  -286.02763883363855
    Total Energy =                       -286.0276388336387186
  @DF-RHF Final Energy:  -286.02831785814504
    Total Energy =                       -286.0283178581453285
  @DF-RHF Final Energy:  -286.02908200339937
    Total Energy =                       -286.0290820033995374
  @DF-RHF Final Energy:  -286.02940226041568
    Total Energy =                       -286.0294022604155089
  @DF-RHF Final Energy:  -286.02958881465611
    Total Energy =                       -286.0295888146561083
  @DF-RHF Final Energy:  -286.02963688981765
    Total Energy =                       -286.0296368898177093
  @DF-RHF Final Energy:  -286.02966182958187
    Total Energy =                       -286.0296618295818689
  Basis Set: 6-31G*
  Basis Set:
  @DF-RHF Final Energy:  -286.02968115105762
    Total Energy =                       -286.0296811510574457
  Basis Set: 6-31G*
  Basis Set:
  Basis Set: 6-31G*
  Basis Set:
  @DF-RHF Final Energy:  -286.02969026291680
    Total Energy =                       -286.0296902629167448
  Basis Set: 6-31G*
  Basis Set:
  Basis Set: 6-31G*
  Basis Set:
  @DF-RHF Final Energy:  -286.02969292186549
    Total Energy =                       -286.0296929218654327
  Basis Set: 6-31G*
  Basis Set:
  Charge       = 0
  Multiplicity = 1
  Basis Set: 6-31G*
  Basis Set:

    Orbital Energies (a.u.)
    -----------------------

    Doubly Occupied:

       1A    -20.516500     2A    -15.583295     3A    -11.341533
       4A    -11.266166     5A    -11.247589     6A    -11.228430
       7A     -1.385853     8A     -1.243358     9A     -1.014139
      10A     -0.972156    11A     -0.918042    12A     -0.737492
      13A     -0.680942    14A     -0.658902    15A     -0.651270
      16A     -0.589661    17A     -0.576735    18A     -0.568274
      19A     -0.561617    20A     -0.545789    21A     -0.529233
      22A     -0.502694    23A     -0.411678    24A     -0.368170

  @DF-RHF Final Energy:  -286.02969298840571

   => Energetics <=

    Nuclear Repulsion Energy =            252.5180649245865254
    One-Electron Energy =                -888.8964750739653482
    Two-Electron Energy =                 350.3487171609730808
    DFT Exchange-Correlation Energy =       0.0000000000000000
    Empirical Dispersion Energy =           0.0000000000000000
    PCM Polarization Energy =               0.0000000000000000
    EFP Energy =                            0.0000000000000000
    Total Energy =                       -286.0296929884057704
    Molecular point group: c1
  Basis Set: 6-31G*
  Basis Set:

  -Total Gradient:
     Atom            X                  Y                   Z
    ------   -----------------  -----------------  -----------------
       1       -0.000005031735     0.000011408148     0.000007049292
       2        0.000514896832    -0.000326878110     0.001517120593
       3       -0.000216426916     0.000072276875    -0.000753173443
       4       -0.000605013269     0.000567497489    -0.001503939463
       5        0.000001696598     0.000000348642     0.000005871933
       6        0.000000361114    -0.000001721139     0.000002173078
       7        0.000004552891    -0.000002181632     0.000007324222
       8        0.000331078960    -0.000331709147     0.000711235257
       9       -0.000022344737     0.000000637713     0.000001563478
      10        0.000000758673     0.000011277882     0.000001039357
      11       -0.000002195237    -0.000000792372    -0.000000393349
      12       -0.000002983225     0.000002253498     0.000004395779
      13        0.000001495168    -0.000001506920     0.000000964957
      14       -0.000000019541    -0.000002003303    -0.000001296534
      15       -0.000000825574     0.000001092375     0.000000064844

  **** Optimization is complete! (in 17 steps) ****
    Final optimized geometry and variables:
    Molecular point group: c1

    Geometry (in Angstrom), charge = 0, multiplicity = 1:

    O           -0.863384878842    -1.478755833332    -0.006256150937
    C           -0.646820694788    -0.300447042329     0.080986080515
    C           -1.750128855633     0.650609589208     0.504293701717
    N            0.568027815775     0.236646191085    -0.236618189610
    H           -1.904334973365     1.433122262534    -0.230094419163
    H           -2.655483660088     0.071530297154     0.605605733280
    H           -1.525091737152     1.121091972966     1.455733622534
    C            0.987263828790     1.553370687959     0.195012993404
    C            1.645060416033    -0.679643726447    -0.561025393095
    H            1.435785360580     1.534958975314     1.186927799863
    H            0.161406374412     2.247323558968     0.204558993276
    H            1.726220675267     1.933979872043    -0.499224528982
    H            2.191272125640    -0.988929639536     0.327555198433
    H            1.241604940488    -1.555981188769    -1.038791634789
    H            2.336221867144    -0.188855701820    -1.236104262657

  Mulliken Charges: (a.u.)
   Center  Symbol    Alpha    Beta     Spin     Total
       1     O     4.30243  4.30243  0.00000 -0.60487
       2     C     2.62555  2.62555  0.00000  0.74890
       3     C     3.29815  3.29815  0.00000 -0.59631
       4     N     3.82140  3.82140  0.00000 -0.64279
       5     H     0.40630  0.40630  0.00000  0.18739
       6     H     0.39072  0.39072  0.00000  0.21855
       7     H     0.40749  0.40749  0.00000  0.18503
       8     C     3.14358  3.14358  0.00000 -0.28716
       9     C     3.14360  3.14360  0.00000 -0.28719
      10     H     0.41718  0.41718  0.00000  0.16565
      11     H     0.40723  0.40723  0.00000  0.18554
      12     H     0.41002  0.41002  0.00000  0.17996
      13     H     0.41950  0.41950  0.00000  0.16100
      14     H     0.38814  0.38814  0.00000  0.22372
      15     H     0.41872  0.41872  0.00000  0.16257

   Total alpha = 24.00000, Total beta = 24.00000, Total charge =  0.00000
