  ==> Input File <==

--------------------------------------------------------------------------
set {
	reference rhf
	basis 6-31G*
}

set_num_threads( 4 )
memory 2 gb

molecule MOL {
0 1

H	 -3.161837	 0.500524	 -0.000234
C	 -2.367097	 -0.232926	 -0.000000
O	 -1.158440	 0.455814	 -0.000122
H	 -2.468853	 -0.861886	 -0.882833
H	 -2.468942	 -0.861421	 0.883154
C	 -0.029776	 -0.365156	 0.000148
C	 -0.069386	 -1.252553	 1.232065
H	 0.876265	 0.242290	 0.000033
H	 -0.008330	 -0.974129	 -0.904617
C	 1.134416	 -2.189939	 1.316026
H	 -0.112646	 -0.618156	 2.112026
H	 -0.991001	 -1.826130	 1.213734
H	 2.067111	 -1.634451	 1.360039
H	 1.080164	 -2.811284	 2.203625
H	 1.182959	 -2.850640	 0.454909

	symmetry c1
}
set optking {
	frozen_dihedral = ("
		8 6 3 2
	")
}

ee = optimize('scf')
oeprop('DIPOLE', 'QUADRUPOLE', 'MULLIKEN_CHARGES')
f=open( 'psi4out.xyz', 'w' )
f.write( "15  " )
f.write( str(ee) + "\n" )
f.write( MOL.save_string_xyz() )
f.close()
--------------------------------------------------------------------------

    Molecular point group: c1
  Charge       = 0
  Multiplicity = 1
  Basis Set: 6-31G*
  Basis Set:
  @DF-RHF Final Energy:  -232.12925279940134
    Total Energy =                       -232.1292527994014563
    Molecular point group: c1
  Basis Set: 6-31G*
  Basis Set:
  Basis Set: 6-31G*
  Basis Set:
  @DF-RHF Final Energy:  -232.13038799248355
    Total Energy =                       -232.1303879924832927
  Basis Set: 6-31G*
  Basis Set:
  Basis Set: 6-31G*
  Basis Set:
  @DF-RHF Final Energy:  -232.13486341075446
    Total Energy =                       -232.1348634107545195
  Basis Set: 6-31G*
  Basis Set:
  Basis Set: 6-31G*
  Basis Set:
  @DF-RHF Final Energy:  -232.13583145271443
    Total Energy =                       -232.1358314527143420
  Basis Set: 6-31G*
  Basis Set:
  Basis Set: 6-31G*
  Basis Set:
  @DF-RHF Final Energy:  -232.13592351243091
    Total Energy =                       -232.1359235124309066
  Basis Set: 6-31G*
  Basis Set:
  Basis Set: 6-31G*
  Basis Set:
  @DF-RHF Final Energy:  -232.13594026062654
    Total Energy =                       -232.1359402606267395
  Basis Set: 6-31G*
  Basis Set:
  Basis Set: 6-31G*
  Basis Set:
  @DF-RHF Final Energy:  -232.13594265681175
    Total Energy =                       -232.1359426568115509
  Basis Set: 6-31G*
  Basis Set:
  Charge       = 0
  Multiplicity = 1
  Basis Set: 6-31G*
  Basis Set:

    Orbital Energies (a.u.)
    -----------------------

    Doubly Occupied:

       1A    -20.551705     2A    -11.266401     3A    -11.262880
       4A    -11.218328     5A    -11.216115     6A     -1.374252
       7A     -1.057243     8A     -0.960171     9A     -0.884652
      10A     -0.802619    11A     -0.671223    12A     -0.658078
      13A     -0.631782    14A     -0.604104    15A     -0.564639
      16A     -0.530210    17A     -0.526038    18A     -0.498063
      19A     -0.486367    20A     -0.452380    21A     -0.406861

  @DF-RHF Final Energy:  -232.13594295658260

   => Energetics <=

    Nuclear Repulsion Energy =            191.9247824784765726
    One-Electron Energy =                -694.8732269931604151
    Two-Electron Energy =                 270.8125015581012462
    DFT Exchange-Correlation Energy =       0.0000000000000000
    Empirical Dispersion Energy =           0.0000000000000000
    PCM Polarization Energy =               0.0000000000000000
    EFP Energy =                            0.0000000000000000
    Total Energy =                       -232.1359429565825963
    Molecular point group: c1
  Basis Set: 6-31G*
  Basis Set:

  -Total Gradient:
     Atom            X                  Y                   Z
    ------   -----------------  -----------------  -----------------
       1        0.000012666475     0.000004236331     0.000002821586
       2       -0.000039119122     0.000001698255     0.002166642508
       3        0.000082962028    -0.000000248632    -0.002607796778
       4        0.000001186696     0.000000115825     0.000000029810
       5       -0.000002091384     0.000001325275    -0.000007314071
       6        0.000019084248    -0.000028348294    -0.002122694395
       7        0.000012292049    -0.000002501296    -0.000006087804
       8       -0.000086528239     0.000042085503     0.002567402728
       9       -0.000003107457     0.000002272316    -0.000001427030
      10       -0.000005107413    -0.000012965550     0.000013202594
      11       -0.000002554927    -0.000000771907    -0.000002398094
      12        0.000006474970     0.000000629167    -0.000002696118
      13       -0.000009398629     0.000001148427    -0.000004690283
      14        0.000011765378    -0.000005829634     0.000003428838
      15        0.000001475328    -0.000002845789     0.000001576512

  **** Optimization is complete! (in 8 steps) ****
    Final optimized geometry and variables:
    Molecular point group: c1

    Geometry (in Angstrom), charge = 0, multiplicity = 1:

    H           -2.612441430180     1.401643944786    -0.751922771409
    C           -1.913716094013     0.605745964651    -0.532189899409
    O           -0.640993988937     1.171516005613    -0.506302729102
    H           -1.998146664406    -0.155111999570    -1.307022318302
    H           -2.186048792162     0.161074981818     0.420234547600
    C            0.435190171847     0.278640181635    -0.472170014915
    C            0.465446083930    -0.638233865409     0.748968452778
    H            1.321155464317     0.901638379827    -0.456195090594
    H            0.455108026785    -0.316393464475    -1.385874814123
    C            1.762630850480    -1.445123978779     0.813769251699
    H            0.360461316477    -0.027937269483     1.641863087059
    H           -0.378068087920    -1.322075832975     0.732644012662
    H            2.629359003056    -0.794109316471     0.881934493679
    H            1.771868723166    -2.098346743552     1.679811209106
    H            1.885016710688    -2.067241233667    -0.068589318113

  Mulliken Charges: (a.u.)
   Center  Symbol    Alpha    Beta     Spin     Total
       1     H     0.41236  0.41236  0.00000  0.17527
       2     C     3.08151  3.08151  0.00000 -0.16301
       3     O     4.30735  4.30735  0.00000 -0.61470
       4     H     0.43214  0.43214  0.00000  0.13571
       5     H     0.42744  0.42744  0.00000  0.14513
       6     C     2.98168  2.98168  0.00000  0.03664
       7     C     3.17278  3.17278  0.00000 -0.34556
       8     H     0.41638  0.41638  0.00000  0.16723
       9     H     0.43228  0.43228  0.00000  0.13544
      10     C     3.24631  3.24631  0.00000 -0.49262
      11     H     0.41440  0.41440  0.00000  0.17121
      12     H     0.42048  0.42048  0.00000  0.15905
      13     H     0.41910  0.41910  0.00000  0.16179
      14     H     0.41546  0.41546  0.00000  0.16909
      15     H     0.42033  0.42033  0.00000  0.15934

   Total alpha = 21.00000, Total beta = 21.00000, Total charge =  0.00000
