  ==> Input File <==

--------------------------------------------------------------------------
set {
	reference rhf
	basis 6-31G*
}

set_num_threads( 1 )
memory 2 gb

molecule MOL {
0 1

O	 0.074228	 1.262779	 -0.000085
C	 0.028650	 0.075053	 -0.000277
C	 -1.233602	 -0.752807	 0.000328
O	 1.109162	 -0.694619	 -0.000298
C	 -2.501530	 0.091881	 0.000126
H	 -1.193807	 -1.406641	 -0.865785
H	 -1.193516	 -1.405779	 0.867015
H	 -2.545121	 0.729328	 -0.874513
H	 -3.377167	 -0.548497	 0.000561
H	 -2.544818	 0.730135	 0.874258
C	 0.900371	 -2.095331	 0.000227
H	 0.351879	 -2.397167	 0.880832
H	 1.883247	 -2.540098	 0.001011
H	 0.352804	 -2.398154	 -0.880648

	symmetry c1
}
set optking {
	frozen_dihedral = ("
		4 2 3 6
	")
}

ee = energy('scf')
oeprop('DIPOLE', 'QUADRUPOLE', 'MULLIKEN_CHARGES')
f=open( 'psi4out.xyz', 'w' )
f.write( "14  " )
f.write( str(ee) + "\n" )
f.write( MOL.save_string_xyz() )
f.close()
--------------------------------------------------------------------------

    Molecular point group: c1

    Geometry (in Angstrom), charge = 0, multiplicity = 1:

       Center              X                  Y                   Z               Mass
    ------------   -----------------  -----------------  -----------------  -----------------
           O          0.336302479265     1.630695357592    -0.000101743636    15.994914619560
           C          0.290724479265     0.442969357592    -0.000293743636    12.000000000000
           C         -0.971527520735    -0.384890642408     0.000311256364    12.000000000000
           O          1.371236479265    -0.326702642408    -0.000314743636    15.994914619560
           C         -2.239455520735     0.459797357592     0.000109256364    12.000000000000
           H         -0.931732520735    -1.038724642408    -0.865801743636     1.007825032070
           H         -0.931441520735    -1.037862642408     0.866998256364     1.007825032070
           H         -2.283046520735     1.097244357592    -0.874529743636     1.007825032070
           H         -3.115092520735    -0.180580642408     0.000544256364     1.007825032070
           H         -2.282743520735     1.098051357592     0.874241256364     1.007825032070
           C          1.162445479265    -1.727414642408     0.000210256364    12.000000000000
           H          0.613953479265    -2.029250642408     0.880815256364     1.007825032070
           H          2.145321479265    -2.172181642408     0.000994256364     1.007825032070
           H          0.614878479265    -2.030237642408    -0.880664743636     1.007825032070

  Charge       = 0
  Multiplicity = 1
  Basis Set: 6-31G*
  Basis Set:

    Orbital Energies (a.u.)
    -----------------------

    Doubly Occupied:

       1A    -20.610065     2A    -20.543495     3A    -11.375541
       4A    -11.298578     5A    -11.245887     6A    -11.220674
       7A     -1.470081     8A     -1.369893     9A     -1.066756
      10A     -0.990607    11A     -0.909169    12A     -0.764606
      13A     -0.710549    14A     -0.703267    15A     -0.676410
      16A     -0.618274    17A     -0.607187    18A     -0.562345
      19A     -0.560913    20A     -0.524328    21A     -0.513819
      22A     -0.511165    23A     -0.449742    24A     -0.431046

  @DF-RHF Final Energy:  -305.84403239917594

   => Energetics <=

    Nuclear Repulsion Energy =            250.6000726880964464
    One-Electron Energy =                -913.4194698227051958
    Two-Electron Energy =                 356.9753647354322084
    DFT Exchange-Correlation Energy =       0.0000000000000000
    Empirical Dispersion Energy =           0.0000000000000000
    PCM Polarization Energy =               0.0000000000000000
    EFP Energy =                            0.0000000000000000
    Total Energy =                       -305.8440323991765126

  Mulliken Charges: (a.u.)
   Center  Symbol    Alpha    Beta     Spin     Total
       1     O     4.27337  4.27337  0.00000 -0.54674
       2     C     2.59150  2.59150  0.00000  0.81699
       3     C     3.24236  3.24236  0.00000 -0.48472
       4     O     4.29907  4.29907  0.00000 -0.59813
       5     C     3.23301  3.23301  0.00000 -0.46603
       6     H     0.40222  0.40222  0.00000  0.19556
       7     H     0.40219  0.40219  0.00000  0.19563
       8     H     0.40787  0.40787  0.00000  0.18425
       9     H     0.41935  0.41935  0.00000  0.16130
      10     H     0.40786  0.40786  0.00000  0.18427
      11     C     3.10002  3.10002  0.00000 -0.20004
      12     H     0.41368  0.41368  0.00000  0.17264
      13     H     0.39383  0.39383  0.00000  0.21235
      14     H     0.41366  0.41366  0.00000  0.17267

   Total alpha = 24.00000, Total beta = 24.00000, Total charge = -0.00000
