  ==> Input File <==

--------------------------------------------------------------------------
set {
	reference rhf
	basis 6-31G*
}

set_num_threads( 4 )
memory 2 gb

molecule MOL {
0 1

H	 -2.646374	 -0.642757	 1.268656
C	 -2.083525	 -0.384536	 0.393091
O	 -0.807605	 -0.127164	 0.768327
F	 -2.118945	 -1.383102	 -0.486752
F	 -2.621877	 0.670592	 -0.209486
C	 -0.436650	 -0.454322	 2.059856
C	 0.315763	 0.744141	 2.623522
Cl	 0.588860	 -1.898379	 2.075485
H	 -1.284789	 -0.649412	 2.692606
F	 0.691282	 0.509532	 3.862910
F	 -0.490961	 1.786534	 2.630713
F	 1.374430	 1.043398	 1.911030

	symmetry c1
}
set optking {
	frozen_dihedral = ("
		6 3 2 4
	")
}

ee = optimize('scf')
oeprop('DIPOLE', 'QUADRUPOLE', 'MULLIKEN_CHARGES')
f=open( 'psi4out.xyz', 'w' )
f.write( "12  " )
f.write( str(ee) + "\n" )
f.write( MOL.save_string_xyz() )
f.close()
--------------------------------------------------------------------------

    Molecular point group: c1
  Charge       = 0
  Multiplicity = 1
  Basis Set: 6-31G*
  Basis Set:
  @DF-RHF Final Energy: -1146.30547307364714
    Total Energy =                      -1146.3054730736469082
    Molecular point group: c1
  Basis Set: 6-31G*
  Basis Set:
  Basis Set: 6-31G*
  Basis Set:
  @DF-RHF Final Energy: -1146.30696959964575
    Total Energy =                      -1146.3069695996455266
  Basis Set: 6-31G*
  Basis Set:
  Basis Set: 6-31G*
  Basis Set:
  @DF-RHF Final Energy: -1146.30769073454894
    Total Energy =                      -1146.3076907345489417
  Basis Set: 6-31G*
  Basis Set:
  Basis Set: 6-31G*
  Basis Set:
  @DF-RHF Final Energy: -1146.30804770070245
    Total Energy =                      -1146.3080477007029003
  Basis Set: 6-31G*
  Basis Set:
  @DF-RHF Final Energy: -1146.30844285090939
    Total Energy =                      -1146.3084428509091595
  @DF-RHF Final Energy: -1146.30850467031155
    Total Energy =                      -1146.3085046703124590
  Basis Set: 6-31G*
  Basis Set:
  @DF-RHF Final Energy: -1146.30850818663725
    Total Energy =                      -1146.3085081866368000
  Basis Set: 6-31G*
  Basis Set:
  Basis Set: 6-31G*
  Basis Set:
  @DF-RHF Final Energy: -1146.30852637562111
    Total Energy =                      -1146.3085263756215681
  Basis Set: 6-31G*
  Basis Set:
  Basis Set: 6-31G*
  Basis Set:
  @DF-RHF Final Energy: -1146.30852780768373
    Total Energy =                      -1146.3085278076841860
  Basis Set: 6-31G*
  Basis Set:
  Charge       = 0
  Multiplicity = 1
  Basis Set: 6-31G*
  Basis Set:

    Orbital Energies (a.u.)
    -----------------------

    Doubly Occupied:

       1A   -104.851152     2A    -26.364919     3A    -26.363025
       4A    -26.361921     5A    -26.341318     6A    -26.338766
       7A    -20.650972     8A    -11.533884     9A    -11.490532
      10A    -11.410978    11A    -10.585984    12A     -8.055291
      13A     -8.051824    14A     -8.051695    15A     -1.766149
      16A     -1.713530    17A     -1.662457    18A     -1.660985
      19A     -1.634661    20A     -1.490686    21A     -1.182694
      22A     -1.059567    23A     -0.983483    24A     -0.931666
      25A     -0.861934    26A     -0.858484    27A     -0.849740
      28A     -0.818691    29A     -0.807875    30A     -0.794787
      31A     -0.732538    32A     -0.728326    33A     -0.700167
      34A     -0.689998    35A     -0.682848    36A     -0.677342
      37A     -0.662266    38A     -0.660608    39A     -0.651718
      40A     -0.644833    41A     -0.608083    42A     -0.563544
      43A     -0.524520    44A     -0.484943    45A     -0.477474

  @DF-RHF Final Energy: -1146.30852792072278

   => Energetics <=

    Nuclear Repulsion Energy =            726.1997879343191471
    One-Electron Energy =               -3034.9789184392266179
    Two-Electron Energy =                1162.4706025841855990
    DFT Exchange-Correlation Energy =       0.0000000000000000
    Empirical Dispersion Energy =           0.0000000000000000
    PCM Polarization Energy =               0.0000000000000000
    EFP Energy =                            0.0000000000000000
    Total Energy =                      -1146.3085279207220992
    Molecular point group: c1
  Basis Set: 6-31G*
  Basis Set:

  -Total Gradient:
     Atom            X                  Y                   Z
    ------   -----------------  -----------------  -----------------
       1        0.000010789210    -0.000010960387     0.000002990655
       2       -0.000078733443    -0.000248781340     0.000378492082
       3        0.000327052543    -0.000329827412    -0.000325840581
       4       -0.000032347520     0.000296784398    -0.000219551049
       5       -0.000010205640     0.000016363125    -0.000014234697
       6       -0.000239014693     0.000283426129     0.000172881785
       7       -0.000002672559    -0.000038627335    -0.000000065893
       8        0.000012050338    -0.000004840776    -0.000000572238
       9        0.000001377811     0.000000539931     0.000008323086
      10       -0.000000919740     0.000018402003    -0.000015127544
      11        0.000008543631     0.000004343304     0.000004080266
      12        0.000004080012     0.000013178386     0.000008624131

  **** Optimization is complete! (in 10 steps) ****
    Final optimized geometry and variables:
    Molecular point group: c1

    Geometry (in Angstrom), charge = 0, multiplicity = 1:

    H           -2.178455354358    -0.948054488544    -0.528220110140
    C           -1.626091903288    -0.371186812449    -1.252157867143
    O           -0.501292233848     0.191806607783    -0.728209380622
    F           -1.297265265543    -1.147589408364    -2.270519364596
    F           -2.388688884487     0.602506183396    -1.717481409484
    C           -0.074665142087    -0.215527429649     0.508298233189
    C            0.874409665669     0.862763898696     1.019145680043
    CL           0.740482754689    -1.796258177314     0.453912923171
    H           -0.887382614618    -0.306431966130     1.212943803664
    F            1.305141095889     0.551903649760     2.223345162298
    F            0.219130305487     2.001912143316     1.102016500589
    F            1.905360729421     1.028199723430     0.230040570821

  Mulliken Charges: (a.u.)
   Center  Symbol    Alpha    Beta     Spin     Total
       1     H     0.42297  0.42297  0.00000  0.15407
       2     C     2.56476  2.56476  0.00000  0.87047
       3     O     4.29691  4.29691  0.00000 -0.59383
       4     F     4.67336  4.67336  0.00000 -0.34673
       5     F     4.67350  4.67350  0.00000 -0.34700
       6     C     3.04025  3.04025  0.00000 -0.08050
       7     C     2.43001  2.43001  0.00000  1.13998
       8    CL     8.50514  8.50514  0.00000 -0.01028
       9     H     0.37791  0.37791  0.00000  0.24418
      10     F     4.67465  4.67465  0.00000 -0.34931
      11     F     4.67470  4.67470  0.00000 -0.34940
      12     F     4.66583  4.66583  0.00000 -0.33166

   Total alpha = 45.00000, Total beta = 45.00000, Total charge =  0.00000
