  ==> Input File <==

--------------------------------------------------------------------------
set {
	reference rhf
	basis cc-pvtz
}

set_num_threads( 4 )
memory 2 gb

molecule MOL {
0 1

H	 -2.626237	 1.996872	 1.565766
C	 -2.073006	 1.211653	 2.075913
O	 -0.783153	 1.091830	 1.576450
H	 -1.999767	 1.462773	 3.123989
H	 -2.628145	 0.280496	 1.977674
C	 -0.718530	 0.758693	 0.228682
C	 0.718529	 0.758687	 -0.228709
H	 -1.141212	 -0.232408	 0.064275
H	 -1.284564	 1.468360	 -0.370825
O	 1.401606	 -0.295166	 0.366636
H	 0.748705	 0.673477	 -1.312803
H	 1.176496	 1.708671	 0.046552
C	 2.714315	 -0.441627	 -0.061017
H	 2.765292	 -0.641548	 -1.128869
H	 3.305661	 0.447341	 0.150952
H	 3.143725	 -1.278506	 0.470147

	symmetry c1
}
set optking {
	frozen_dihedral = ("
		3 6 7 11
	")
}

ee = optimize('scf')
oeprop('DIPOLE', 'QUADRUPOLE', 'MULLIKEN_CHARGES')
f=open( 'psi4out.xyz', 'w' )
f.write( "16  " )
f.write( str(ee) + "\n" )
f.write( MOL.save_string_xyz() )
f.close()
--------------------------------------------------------------------------

    Molecular point group: c1
  Charge       = 0
  Multiplicity = 1
  Basis Set: CC-PVTZ
  Basis Set:
  @DF-RHF Final Energy:  -307.09750290132439
    Total Energy =                       -307.0975029013241056
    Molecular point group: c1
  Basis Set: CC-PVTZ
  Basis Set:
  Basis Set: CC-PVTZ
  Basis Set:
  @DF-RHF Final Energy:  -307.09786201046290
    Total Energy =                       -307.0978620104632455
  Basis Set: CC-PVTZ
  Basis Set:
  Basis Set: CC-PVTZ
  Basis Set:
  @DF-RHF Final Energy:  -307.09789931577313
    Total Energy =                       -307.0978993157730201
  Basis Set: CC-PVTZ
  Basis Set:
  Charge       = 0
  Multiplicity = 1
  Basis Set: CC-PVTZ
  Basis Set:

    Orbital Energies (a.u.)
    -----------------------

    Doubly Occupied:

       1A    -20.547674     2A    -20.547546     3A    -11.267728
       4A    -11.267048     5A    -11.261560     6A    -11.261514
       7A     -1.391950     8A     -1.374352     9A     -1.032153
      10A     -0.936986    11A     -0.892638    12A     -0.823889
      13A     -0.686980    14A     -0.682486    15A     -0.659611
      16A     -0.638807    17A     -0.631296    18A     -0.598345
      19A     -0.552548    20A     -0.534834    21A     -0.509877
      22A     -0.479444    23A     -0.464903    24A     -0.422664
      25A     -0.414055

  @DF-RHF Final Energy:  -307.09790245772155

   => Energetics <=

    Nuclear Repulsion Energy =            259.1123375110592519
    One-Electron Energy =                -932.6587000167791075
    Two-Electron Energy =                 366.4484600479984238
    DFT Exchange-Correlation Energy =       0.0000000000000000
    Empirical Dispersion Energy =           0.0000000000000000
    PCM Polarization Energy =               0.0000000000000000
    EFP Energy =                            0.0000000000000000
    Total Energy =                       -307.0979024577213750
    Molecular point group: c1
  Basis Set: CC-PVTZ
  Basis Set:

  -Total Gradient:
     Atom            X                  Y                   Z
    ------   -----------------  -----------------  -----------------
       1       -0.000011357782    -0.000003752940     0.000009507119
       2        0.000000847970     0.000023668886    -0.000030873095
       3        0.000045321316    -0.000730810829     0.000196728915
       4        0.000005752308    -0.000005722923    -0.000004099607
       5       -0.000000785089    -0.000008850704     0.000002350933
       6       -0.000031364985     0.000686306873    -0.000237180777
       7        0.000051793223     0.000901546325     0.000015449119
       8       -0.000011134890     0.000009543331     0.000030633893
       9        0.000013974968     0.000006536114    -0.000029443986
      10       -0.000028771498     0.000030234263     0.000003616445
      11       -0.000034267444    -0.000914167098     0.000083836543
      12        0.000007892888     0.000001650721    -0.000009447400
      13       -0.000017063622    -0.000011476392    -0.000049259760
      14        0.000022806304    -0.000000750252     0.000003767043
      15       -0.000005456178     0.000008100438     0.000009212268
      16       -0.000008187493     0.000007944185     0.000005202349

  **** Optimization is complete! (in 4 steps) ****
    Final optimized geometry and variables:
    Molecular point group: c1

    Geometry (in Angstrom), charge = 0, multiplicity = 1:

    H           -2.892941193929     1.364543653604     0.943532175254
    C           -2.233075839299     0.663431234595     1.451380702883
    O           -0.964049326608     0.657188287576     0.888398217270
    H           -2.135143637288     0.965110093325     2.483969543964
    H           -2.688666063394    -0.323599246728     1.416959227343
    C           -0.933167298108     0.291780658609    -0.451582959448
    C            0.494837626167     0.224248975041    -0.931044281655
    H           -1.404395305127    -0.678424815175    -0.594728559847
    H           -1.473313209130     1.019839952533    -1.056878079260
    O            1.137241722008    -0.858111870066    -0.341927734340
    H            0.494400601818     0.113465561797    -2.015480996331
    H            1.003114684367     1.154096262160    -0.685177239509
    C            2.485893368090    -0.962916377051    -0.654113113598
    H            2.641083549818    -1.079354656741    -1.725242818016
    H            3.041074059553    -0.089499978332    -0.319607338369
    H            2.874958822907    -1.835731924723    -0.150451950647

  Mulliken Charges: (a.u.)
   Center  Symbol    Alpha    Beta     Spin     Total
       1     H     0.47367  0.47367  0.00000  0.05266
       2     C     3.03206  3.03206  0.00000 -0.06412
       3     O     4.16981  4.16981  0.00000 -0.33962
       4     H     0.44628  0.44628  0.00000  0.10745
       5     H     0.47035  0.47035  0.00000  0.05930
       6     C     2.96083  2.96083  0.00000  0.07833
       7     C     2.96109  2.96109  0.00000  0.07781
       8     H     0.47099  0.47099  0.00000  0.05802
       9     H     0.47597  0.47597  0.00000  0.04805
      10     O     4.16984  4.16984  0.00000 -0.33968
      11     H     0.47598  0.47598  0.00000  0.04805
      12     H     0.47069  0.47069  0.00000  0.05861
      13     C     3.03199  3.03199  0.00000 -0.06398
      14     H     0.47378  0.47378  0.00000  0.05245
      15     H     0.47036  0.47036  0.00000  0.05927
      16     H     0.44630  0.44630  0.00000  0.10741

   Total alpha = 25.00000, Total beta = 25.00000, Total charge = -0.00000
