  ==> Input File <==

--------------------------------------------------------------------------
set {
	reference rhf
	basis 6-31G*
}

set_num_threads( 4 )
memory 2 gb

molecule MOL {
0 1

H	 -3.562532	 2.353888	 1.145474
C	 -3.683891	 1.336173	 0.754129
C	 -2.660244	 0.921717	 -0.272021
O	 -4.573046	 0.649591	 1.141115
C	 -1.220012	 1.144545	 0.209990
H	 -2.837434	 -0.115330	 -0.532492
H	 -2.837313	 1.524453	 -1.161972
C	 -0.252658	 0.041456	 -0.226725
H	 -0.873521	 2.100229	 -0.171974
H	 -1.211708	 1.231594	 1.295398
C	 1.180775	 0.282413	 0.250794
H	 -0.266029	 -0.034465	 -1.312038
H	 -0.597733	 -0.921000	 0.146291
C	 2.148627	 -0.814315	 -0.201312
H	 1.516199	 1.249228	 -0.115937
H	 1.192670	 0.346017	 1.338083
C	 3.580890	 -0.659131	 0.322722
H	 2.166869	 -0.852443	 -1.289387
H	 1.762857	 -1.776509	 0.128956
C	 4.324889	 0.564933	 -0.213704
H	 4.142010	 -1.551473	 0.056605
H	 3.564836	 -0.624694	 1.410140
H	 4.342616	 0.565491	 -1.300421
H	 3.866655	 1.493402	 0.110242
H	 5.353900	 0.572371	 0.132816

	symmetry c1
}
set optking {
	frozen_dihedral = ("
		6 3 5 8
	")
}

ee = optimize('scf')
oeprop('DIPOLE', 'QUADRUPOLE', 'MULLIKEN_CHARGES')
f=open( 'psi4out.xyz', 'w' )
f.write( "25  " )
f.write( str(ee) + "\n" )
f.write( MOL.save_string_xyz() )
f.close()
--------------------------------------------------------------------------

    Molecular point group: c1
  Charge       = 0
  Multiplicity = 1
  Basis Set: 6-31G*
  Basis Set:
  @DF-RHF Final Energy:  -387.11835060346931
    Total Energy =                       -387.1183506034693664
    Molecular point group: c1
  Basis Set: 6-31G*
  Basis Set:
  Basis Set: 6-31G*
  Basis Set:
  @DF-RHF Final Energy:  -387.11859922811846
    Total Energy =                       -387.1185992281177732
  Basis Set: 6-31G*
  Basis Set:
  Basis Set: 6-31G*
  Basis Set:
  @DF-RHF Final Energy:  -387.11856781228647
    Total Energy =                       -387.1185678122870968
  Basis Set: 6-31G*
  Basis Set:
  Basis Set: 6-31G*
  Basis Set:
  @DF-RHF Final Energy:  -387.11874925178108
    Total Energy =                       -387.1187492517815372
  Basis Set: 6-31G*
  Basis Set:
  @DF-RHF Final Energy:  -387.11875740408652
    Total Energy =                       -387.1187574040868640
  @DF-RHF Final Energy:  -387.11875940255891
    Total Energy =                       -387.1187594025589078
  @DF-RHF Final Energy:  -387.11876249304157
    Total Energy =                       -387.1187624930410038
  Basis Set: 6-31G*
  Basis Set:
  @DF-RHF Final Energy:  -387.11876040395788
    Total Energy =                       -387.1187604039579355
  Basis Set: 6-31G*
  Basis Set:
  Basis Set: 6-31G*
  Basis Set:
  @DF-RHF Final Energy:  -387.11876320874188
    Total Energy =                       -387.1187632087421662
  Basis Set: 6-31G*
  Basis Set:
  Basis Set: 6-31G*
  Basis Set:
  @DF-RHF Final Energy:  -387.11876427854378
    Total Energy =                       -387.1187642785431535
  Basis Set: 6-31G*
  Basis Set:
  Charge       = 0
  Multiplicity = 1
  Basis Set: 6-31G*
  Basis Set:

    Orbital Energies (a.u.)
    -----------------------

    Doubly Occupied:

       1A    -20.561434     2A    -11.326451     3A    -11.235585
       4A    -11.234381     5A    -11.225863     6A    -11.220500
       7A    -11.219069     8A    -11.218288     9A    -11.211605
      10A     -1.401592    11A     -1.103605    12A     -1.069485
      13A     -1.014508    14A     -0.944739    15A     -0.875169
      16A     -0.813166    17A     -0.796207    18A     -0.781144
      19A     -0.674057    20A     -0.655385    21A     -0.633410
      22A     -0.624326    23A     -0.614026    24A     -0.587776
      25A     -0.564913    26A     -0.561194    27A     -0.527873
      28A     -0.521180    29A     -0.517596    30A     -0.492244
      31A     -0.489023    32A     -0.479371    33A     -0.465691
      34A     -0.459913    35A     -0.447614    36A     -0.408166

  @DF-RHF Final Energy:  -387.11876436025818

   => Energetics <=

    Nuclear Repulsion Energy =            432.0538790559548943
    One-Electron Energy =               -1380.3921949344967288
    Two-Electron Energy =                 561.2195515182837653
    DFT Exchange-Correlation Energy =       0.0000000000000000
    Empirical Dispersion Energy =           0.0000000000000000
    PCM Polarization Energy =               0.0000000000000000
    EFP Energy =                            0.0000000000000000
    Total Energy =                       -387.1187643602580692
    Molecular point group: c1
  Basis Set: 6-31G*
  Basis Set:

  -Total Gradient:
     Atom            X                  Y                   Z
    ------   -----------------  -----------------  -----------------
       1        0.000000604199    -0.000003613651    -0.000013080453
       2        0.000028893573    -0.000012420016     0.000013628553
       3       -0.001463112253    -0.001327118401     0.004872438263
       4       -0.000009880680    -0.000001349994    -0.000001432125
       5        0.000930781965     0.001938101226    -0.003660849530
       6        0.001009872272     0.000689955213    -0.003228824406
       7        0.000009957534     0.000005581884    -0.000016204252
       8       -0.000494526071    -0.001280898119     0.002033885584
       9       -0.000019752459    -0.000005163074    -0.000005541591
      10       -0.000004866963    -0.000000892177     0.000004423239
      11        0.000002731064     0.000001995139     0.000003890191
      12       -0.000001614123     0.000000625993    -0.000002606820
      13        0.000003852308     0.000004375417    -0.000002122720
      14        0.000009441372    -0.000004205973     0.000001988220
      15        0.000010446956    -0.000001055856     0.000000262344
      16       -0.000009518937     0.000004456424     0.000002119286
      17        0.000001908662     0.000002405134    -0.000008339783
      18       -0.000005904081    -0.000001707461     0.000002138782
      19        0.000009995862    -0.000005129921     0.000003947571
      20       -0.000001398576    -0.000005104217    -0.000000390859
      21        0.000004360772    -0.000000424715     0.000001265673
      22       -0.000006578832     0.000003296229    -0.000002474520
      23       -0.000004719936     0.000001305016     0.000000111176
      24       -0.000002746129     0.000000170135     0.000004236582
      25        0.000001772503    -0.000003184233    -0.000002468406

  **** Optimization is complete! (in 11 steps) ****
    Final optimized geometry and variables:
    Molecular point group: c1

    Geometry (in Angstrom), charge = 0, multiplicity = 1:

    H           -3.413439772901     1.923344107106     1.002245083676
    C           -3.568193926485     0.937475140589     0.547609735324
    C           -2.523651698396     0.521488028697    -0.454244699955
    O           -4.510400004614     0.280727172410     0.852344021886
    C           -1.081688678508     0.759670920984     0.042480486185
    H           -2.690944470669    -0.514278356026    -0.725036529381
    H           -2.697455529269     1.103924737322    -1.358130983018
    C           -0.114082367547    -0.337790268920    -0.405710044395
    H           -0.727169783438     1.729045802015    -0.295111229973
    H           -1.069801320820     0.798105416826     1.130512779271
    C            1.323203438568    -0.096726497493     0.058915186128
    H           -0.134173234111    -0.416894922265    -1.491395652189
    H           -0.464882818939    -1.293638324846    -0.023228026696
    C            2.282948548075    -1.204549304888    -0.383761885571
    H            1.661636635241     0.863427961323    -0.322078006000
    H            1.341440976692    -0.019502012735     1.145071174048
    C            3.718226065055    -1.051781641039     0.132590207705
    H            2.297246176480    -1.255096669620    -1.471395104043
    H            1.892938659457    -2.160660040518    -0.040983920253
    C            4.466308754566     0.163417780390    -0.418662031744
    H            4.273594042885    -1.949745908549    -0.126445346561
    H            3.706108282139    -1.006410595934     1.219668913720
    H            4.482454285740     0.151817189513    -1.505252525879
    H            4.012699949547     1.097533600189    -0.104252968497
    H            5.495784459808     0.170463256489    -0.074172976302

  Mulliken Charges: (a.u.)
   Center  Symbol    Alpha    Beta     Spin     Total
       1     H     0.43151  0.43151  0.00000  0.13697
       2     C     2.83083  2.83083  0.00000  0.33834
       3     C     3.21102  3.21102  0.00000 -0.42204
       4     O     4.23854  4.23854  0.00000 -0.47708
       5     C     3.16584  3.16584  0.00000 -0.33168
       6     H     0.39761  0.39761  0.00000  0.20479
       7     H     0.40569  0.40569  0.00000  0.18861
       8     C     3.15319  3.15319  0.00000 -0.30639
       9     H     0.41563  0.41563  0.00000  0.16874
      10     H     0.41670  0.41670  0.00000  0.16659
      11     C     3.15509  3.15509  0.00000 -0.31017
      12     H     0.42072  0.42072  0.00000  0.15856
      13     H     0.41804  0.41804  0.00000  0.16392
      14     C     3.15306  3.15306  0.00000 -0.30611
      15     H     0.42093  0.42093  0.00000  0.15813
      16     H     0.42277  0.42277  0.00000  0.15446
      17     C     3.15269  3.15269  0.00000 -0.30538
      18     H     0.42367  0.42367  0.00000  0.15265
      19     H     0.42114  0.42114  0.00000  0.15772
      20     C     3.24140  3.24140  0.00000 -0.48280
      21     H     0.42006  0.42006  0.00000  0.15988
      22     H     0.42280  0.42280  0.00000  0.15440
      23     H     0.42210  0.42210  0.00000  0.15579
      24     H     0.42051  0.42051  0.00000  0.15898
      25     H     0.41844  0.41844  0.00000  0.16311

   Total alpha = 36.00000, Total beta = 36.00000, Total charge = -0.00000
