                              Psi4 1.0.54 Driver

  ==> Input File <==

--------------------------------------------------------------------------
set {
	reference rhf
	basis cc-pvtz
}

set_num_threads( 4 )
memory 2 gb

molecule MOL {
0 1

H	 -3.144994	 -1.202467	 -0.018751
O	 -2.321472	 -0.864941	 -0.318626
C	 -2.021813	 0.336996	 0.342658
C	 -0.669613	 0.837286	 -0.127252
H	 -2.780861	 1.084746	 0.127159
H	 -2.006390	 0.184138	 1.420053
C	 0.490865	 -0.082543	 0.241244
H	 -0.708709	 0.967192	 -1.204587
H	 -0.507562	 1.822272	 0.303070
C	 1.839800	 0.429565	 -0.255472
H	 0.305636	 -1.070211	 -0.165276
H	 0.527397	 -0.195943	 1.322876
C	 2.236585	 -0.148276	 -1.609889
H	 1.808153	 1.513616	 -0.322812
H	 2.608592	 0.192728	 0.475663
H	 1.504541	 0.101870	 -2.370451
H	 3.196692	 0.235633	 -1.935640
H	 2.310327	 -1.230042	 -1.567570

	symmetry c1
}
set optking {
	frozen_dihedral = ("
		14 10 7 11
	")
}

ee,wfn = optimize('scf', return_wfn=True)
oeprop( wfn, 'DIPOLE', 'QUADRUPOLE', 'MULLIKEN_CHARGES')
f=open( 'psi4out.xyz', 'w' )
f.write( "18  " )
f.write( str(ee) + "\n" )
f.write( MOL.save_string_xyz() )
f.close()
--------------------------------------------------------------------------

    Molecular point group: c1
  Charge       = 0
  Multiplicity = 1
  Basis Set: CC-PVTZ
  Basis Set:
  @DF-RHF Final Energy:  -271.28298493470044
    Total Energy =                       -271.2829849347004370
    Molecular point group: c1
  Basis Set: CC-PVTZ
  Basis Set:
  Basis Set: CC-PVTZ
  Basis Set:
  @DF-RHF Final Energy:  -271.28324991971976
    Total Energy =                       -271.2832499197197080
  Basis Set: CC-PVTZ
  Basis Set:
  Basis Set: CC-PVTZ
  Basis Set:
  @DF-RHF Final Energy:  -271.28330770012440
    Total Energy =                       -271.2833077001245101
  Basis Set: CC-PVTZ
  Basis Set:
  Charge       = 0
  Multiplicity = 1
  Basis Set: CC-PVTZ
  Basis Set:

    Orbital Energies (a.u.)
    -----------------------

    Doubly Occupied:

       1A    -20.546434     2A    -11.265876     3A    -11.210535
       4A    -11.208982     5A    -11.204923     6A    -11.201435
       7A     -1.364276     8A     -1.075436     9A     -1.007754
      10A     -0.913708    11A     -0.824343    12A     -0.779281
      13A     -0.707813    14A     -0.641650    15A     -0.617545
      16A     -0.599656    17A     -0.569067    18A     -0.558793
      19A     -0.514515    20A     -0.501695    21A     -0.499598
      22A     -0.464926    23A     -0.454977    24A     -0.449293
      25A     -0.430378

  @DF-RHF Final Energy:  -271.28330836288035

   => Energetics <=

    Nuclear Repulsion Energy =            251.7976588284967931
    One-Electron Energy =                -866.9361526204459096
    Two-Electron Energy =                 343.8551854290689676
    DFT Exchange-Correlation Energy =       0.0000000000000000
    Empirical Dispersion Energy =           0.0000000000000000
    PCM Polarization Energy =               0.0000000000000000
    EFP Energy =                            0.0000000000000000
    Total Energy =                       -271.2833083628801774
    Molecular point group: c1
  Basis Set: CC-PVTZ
  Basis Set:

  -Total Gradient:
     Atom            X                  Y                   Z
    ------   -----------------  -----------------  -----------------
       1       -0.000002106975     0.000004804816     0.000002890988
       2        0.000029999510    -0.000004899806     0.000040971031
       3       -0.000047994071     0.000040940419    -0.000076164444
       4        0.000032044258    -0.000056715075     0.000049838291
       5       -0.000018041872     0.000009474997     0.000012631283
       6        0.000008748123    -0.000023419627    -0.000011412673
       7        0.001500305333    -0.001615936524     0.002547060036
       8       -0.000007921590    -0.000000410730     0.000008646393
       9       -0.000000435085     0.000012406903    -0.000003038739
      10        0.001008596652     0.000637043542     0.003129640425
      11       -0.001437540897     0.001254566757    -0.002626962855
      12       -0.000017226625     0.000003486573    -0.000014563714
      13        0.000004680231     0.000032236380     0.000033446043
      14       -0.001057016111    -0.000296961748    -0.003049528389
      15        0.000003731753     0.000009411255    -0.000017914729
      16       -0.000010530723     0.000001434411    -0.000011751792
      17        0.000029651688    -0.000002117579    -0.000015775859
      18       -0.000018943607    -0.000005344963     0.000001988704

  **** Optimization is complete! (in 4 steps) ****
    Final optimized geometry and variables:
    Molecular point group: c1

    Geometry (in Angstrom), charge = 0, multiplicity = 1:

    H           -3.000326085457    -1.271502016113     0.174407799222
    O           -2.169302636010    -0.925516615309    -0.093138412533
    C           -1.905295319284     0.276458228712     0.583187015896
    C           -0.539978159667     0.789370586891     0.167966376775
    H           -2.661767124037     1.018735893177     0.341239693731
    H           -1.930112434674     0.119545811643     1.659882858940
    C            0.615524329868    -0.116070943393     0.594972932022
    H           -0.537341544462     0.913478350410    -0.910547049533
    H           -0.406211628802     1.777990623521     0.599033529660
    C            1.978929624513     0.369582924788     0.079721484292
    H            0.417877275165    -1.112006126561     0.217162520424
    H            0.626914252596    -0.179080460522     1.678838598095
    C            2.356969145646    -0.228393115700    -1.274420235782
    H            1.963767364486     1.451307866982    -0.019427375237
    H            2.754423687871     0.130111639460     0.798864977060
    H            1.604591903669    -0.013969473095    -2.025742232826
    H            3.300499791687     0.170756981963    -1.629909888938
    H            2.455797405720    -1.306475919138    -1.208651406928

  Mulliken Charges: (a.u.)
   Center  Symbol    Alpha    Beta     Spin     Total
       1     H     0.39569  0.39569  0.00000  0.20862
       2     O     4.19845  4.19845  0.00000 -0.39689
       3     C     2.97370  2.97370  0.00000  0.05260
       4     C     3.09177  3.09177  0.00000 -0.18355
       5     H     0.46506  0.46506  0.00000  0.06988
       6     H     0.47340  0.47340  0.00000  0.05320
       7     C     3.09444  3.09444  0.00000 -0.18889
       8     H     0.45195  0.45195  0.00000  0.09610
       9     H     0.45371  0.45371  0.00000  0.09259
      10     C     3.08991  3.08991  0.00000 -0.17981
      11     H     0.44657  0.44657  0.00000  0.10687
      12     H     0.45269  0.45269  0.00000  0.09461
      13     C     3.14720  3.14720  0.00000 -0.29440
      14     H     0.45757  0.45757  0.00000  0.08486
      15     H     0.44873  0.44873  0.00000  0.10254
      16     H     0.45403  0.45403  0.00000  0.09194
      17     H     0.45026  0.45026  0.00000  0.09947
      18     H     0.45487  0.45487  0.00000  0.09026

   Total alpha = 25.00000, Total beta = 25.00000, Total charge = -0.00000

*** Psi4 exiting successfully. Buy a developer a beer!
