  ==> Input File <==

--------------------------------------------------------------------------
set {
	reference rhf
	basis 6-31G*
}

set_num_threads( 1 )
memory 2 gb

molecule MOL {
0 1

H	 -1.465381	 -1.538504	 1.269563
C	 -2.114582	 -1.083215	 0.524317
O	 -1.392607	 -0.295399	 -0.366433
H	 -2.594067	 -1.865878	 -0.047236
H	 -2.880257	 -0.505524	 1.040498
C	 -0.719715	 0.768384	 0.229244
C	 0.719720	 0.768376	 -0.229267
H	 -1.185038	 1.714362	 -0.050570
H	 -0.750528	 0.687237	 1.313896
O	 1.392611	 -0.295398	 0.366430
H	 0.750534	 0.687200	 -1.313918
H	 1.185043	 1.714359	 0.050526
C	 2.706965	 -0.449871	 -0.062409
H	 2.756559	 -0.644779	 -1.131878
H	 3.305899	 0.433456	 0.155466
H	 3.125548	 -1.294566	 0.467107

	symmetry c1
}
set optking {
	frozen_dihedral = ("
		3 6 7 11,
		7 10 13 14
	")
}

ee = energy('scf')
oeprop('DIPOLE', 'QUADRUPOLE', 'MULLIKEN_CHARGES')
f=open( 'psi4out.xyz', 'w' )
f.write( "16  " )
f.write( str(ee) + "\n" )
f.write( MOL.save_string_xyz() )
f.close()
--------------------------------------------------------------------------

    Molecular point group: c1

    Geometry (in Angstrom), charge = 0, multiplicity = 1:

       Center              X                  Y                   Z               Mass
    ------------   -----------------  -----------------  -----------------  -----------------
           H         -1.569464767956    -1.427220507273     1.188404981701     1.007825032070
           C         -2.218665767956    -0.971931507273     0.443158981701    12.000000000000
           O         -1.496690767956    -0.184115507273    -0.447591018299    15.994914619560
           H         -2.698150767956    -1.754594507273    -0.128394018299     1.007825032070
           H         -2.984340767956    -0.394240507273     0.959339981701     1.007825032070
           C         -0.823798767956     0.879667492727     0.148085981701    12.000000000000
           C          0.615636232044     0.879659492727    -0.310425018299    12.000000000000
           H         -1.289121767956     1.825645492727    -0.131728018299     1.007825032070
           H         -0.854611767956     0.798520492727     1.232737981701     1.007825032070
           O          1.288527232044    -0.184114507273     0.285271981701    15.994914619560
           H          0.646450232044     0.798483492727    -1.395076018299     1.007825032070
           H          1.080959232044     1.825642492727    -0.030632018299     1.007825032070
           C          2.602881232044    -0.338587507273    -0.143567018299    12.000000000000
           H          2.652475232044    -0.533495507273    -1.213036018299     1.007825032070
           H          3.201815232044     0.544739492727     0.074307981701     1.007825032070
           H          3.021464232044    -1.183282507273     0.385948981701     1.007825032070

  Charge       = 0
  Multiplicity = 1
  Basis Set: 6-31G*
  Basis Set:

    Orbital Energies (a.u.)
    -----------------------

    Doubly Occupied:

       1A    -20.555615     2A    -20.550637     3A    -11.267737
       4A    -11.266665     5A    -11.265113     6A    -11.260556
       7A     -1.388882     8A     -1.369971     9A     -1.029245
      10A     -0.937700    11A     -0.890434    12A     -0.824016
      13A     -0.682636    14A     -0.680424    15A     -0.657698
      16A     -0.632444    17A     -0.628084    18A     -0.601438
      19A     -0.544248    20A     -0.536369    21A     -0.512161
      22A     -0.477192    23A     -0.467087    24A     -0.416799
      25A     -0.407469

  @DF-RHF Final Energy:  -306.97557144916584

   => Energetics <=

    Nuclear Repulsion Energy =            261.4322215319956513
    One-Electron Energy =                -937.1142653362562669
    Two-Electron Energy =                 368.7064723550942631
    DFT Exchange-Correlation Energy =       0.0000000000000000
    Empirical Dispersion Energy =           0.0000000000000000
    PCM Polarization Energy =               0.0000000000000000
    EFP Energy =                            0.0000000000000000
    Total Energy =                       -306.9755714491663525

  Mulliken Charges: (a.u.)
   Center  Symbol    Alpha    Beta     Spin     Total
       1     H     0.42206  0.42206  0.00000  0.15589
       2     C     3.08211  3.08211  0.00000 -0.16421
       3     O     4.30229  4.30229  0.00000 -0.60457
       4     H     0.41390  0.41390  0.00000  0.17220
       5     H     0.43177  0.43177  0.00000  0.13647
       6     C     2.99828  2.99828  0.00000  0.00345
       7     C     2.99170  2.99170  0.00000  0.01661
       8     H     0.42498  0.42498  0.00000  0.15003
       9     H     0.42189  0.42189  0.00000  0.15622
      10     O     4.30372  4.30372  0.00000 -0.60743
      11     H     0.42283  0.42283  0.00000  0.15433
      12     H     0.43440  0.43440  0.00000  0.13119
      13     C     3.07945  3.07945  0.00000 -0.15889
      14     H     0.42764  0.42764  0.00000  0.14471
      15     H     0.43104  0.43104  0.00000  0.13791
      16     H     0.41195  0.41195  0.00000  0.17611

   Total alpha = 25.00000, Total beta = 25.00000, Total charge = -0.00000
