  ==> Input File <==

--------------------------------------------------------------------------
set {
	reference rhf
	basis 6-31G*
}

set_num_threads( 4 )
memory 2 gb

molecule MOL {
0 1

H	 -2.698709	 -0.000305	 0.034435
C	 -1.693833	 0.000034	 0.434417
O	 -0.828952	 -0.000968	 -0.659236
H	 -1.574200	 0.882896	 1.055746
H	 -1.574147	 -0.881698	 1.057355
C	 -0.579245	 -1.219689	 -1.320197
C	 0.127011	 -2.236568	 -0.425727
C	 -1.831334	 -1.796116	 -1.978197
H	 0.108832	 -0.936256	 -2.107754
H	 0.980343	 -1.778943	 0.063102
H	 0.483051	 -3.070940	 -1.021791
H	 -0.530861	 -2.638901	 0.338143
H	 -2.333855	 -1.033489	 -2.563286
H	 -1.559940	 -2.610931	 -2.642189
H	 -2.534244	 -2.188953	 -1.250572

	symmetry c1
}
set optking {
	frozen_dihedral = ("
		6 3 2 1
	")
}

ee = optimize('scf')
oeprop('DIPOLE', 'QUADRUPOLE', 'MULLIKEN_CHARGES')
f=open( 'psi4out.xyz', 'w' )
f.write( "15  " )
f.write( str(ee) + "\n" )
f.write( MOL.save_string_xyz() )
f.close()
--------------------------------------------------------------------------

    Molecular point group: c1
  Charge       = 0
  Multiplicity = 1
  Basis Set: 6-31G*
  Basis Set:
  @DF-RHF Final Energy:  -232.13499259637265
    Total Energy =                       -232.1349925963727401
    Molecular point group: c1
  Basis Set: 6-31G*
  Basis Set:
  Basis Set: 6-31G*
  Basis Set:
  @DF-RHF Final Energy:  -232.13690948767919
    Total Energy =                       -232.1369094876792474
  Basis Set: 6-31G*
  Basis Set:
  Basis Set: 6-31G*
  Basis Set:
  @DF-RHF Final Energy:  -232.13737579213125
    Total Energy =                       -232.1373757921313086
  Basis Set: 6-31G*
  Basis Set:
  Basis Set: 6-31G*
  Basis Set:
  @DF-RHF Final Energy:  -232.13738351405243
    Total Energy =                       -232.1373835140524307
  Basis Set: 6-31G*
  Basis Set:
  Basis Set: 6-31G*
  Basis Set:
  @DF-RHF Final Energy:  -232.13739584720958
    Total Energy =                       -232.1373958472094046
  Basis Set: 6-31G*
  Basis Set:
  Basis Set: 6-31G*
  Basis Set:
  @DF-RHF Final Energy:  -232.13739717900455
    Total Energy =                       -232.1373971790044379
  Basis Set: 6-31G*
  Basis Set:
  Charge       = 0
  Multiplicity = 1
  Basis Set: 6-31G*
  Basis Set:

    Orbital Energies (a.u.)
    -----------------------

    Doubly Occupied:

       1A    -20.547890     2A    -11.274395     3A    -11.261276
       4A    -11.211413     5A    -11.209653     6A     -1.370064
       7A     -1.050289     8A     -0.940169     9A     -0.930798
      10A     -0.781301    11A     -0.674906    12A     -0.640232
      13A     -0.632821    14A     -0.571811    15A     -0.564179
      16A     -0.552808    17A     -0.535213    18A     -0.499265
      19A     -0.496694    20A     -0.443070    21A     -0.405585

  @DF-RHF Final Energy:  -232.13739807765711

   => Energetics <=

    Nuclear Repulsion Energy =            198.8236163324827430
    One-Electron Energy =                -708.7343669086800446
    Two-Electron Energy =                 277.7733524985403619
    DFT Exchange-Correlation Energy =       0.0000000000000000
    Empirical Dispersion Energy =           0.0000000000000000
    PCM Polarization Energy =               0.0000000000000000
    EFP Energy =                            0.0000000000000000
    Total Energy =                       -232.1373980776569397
    Molecular point group: c1
  Basis Set: 6-31G*
  Basis Set:

  -Total Gradient:
     Atom            X                  Y                   Z
    ------   -----------------  -----------------  -----------------
       1        0.000078370321     0.001355560130     0.000072757219
       2        0.000275791140    -0.001919618698     0.000273459463
       3       -0.001125299041     0.000764421491    -0.001061156066
       4        0.000009387406    -0.000006321779    -0.000013903373
       5       -0.000022683092    -0.000006304660     0.000026557339
       6        0.000852538726    -0.000220801236     0.000617711027
       7       -0.000056239117     0.000042191309     0.000036978964
       8        0.000000037070     0.000005212884     0.000044547728
       9        0.000011185305    -0.000038568614    -0.000030740106
      10       -0.000002938136     0.000004585152     0.000010043671
      11       -0.000013533183     0.000034027304    -0.000010020691
      12       -0.000007565125    -0.000012082677     0.000018842681
      13        0.000000619210     0.000003024373     0.000016710845
      14        0.000007737790     0.000001695109    -0.000003749562
      15       -0.000007409277    -0.000007020091     0.000001960863

  **** Optimization is complete! (in 7 steps) ****
    Final optimized geometry and variables:
    Molecular point group: c1

    Geometry (in Angstrom), charge = 0, multiplicity = 1:

    H           -1.789744206688     1.122198297115     0.765622444268
    C           -0.782341545562     1.040633643614     1.164655399221
    O            0.176416495043     1.031960075880     0.151011905036
    H           -0.589702419793     1.915775425420     1.771315470731
    H           -0.728346513421     0.165591860635     1.804351283426
    C            0.407691415575    -0.171071243438    -0.544488799961
    C            1.132588665943    -1.201879314361     0.318715950468
    C           -0.859535095678    -0.732831616669    -1.184850333836
    H            1.080670046120     0.125546136865    -1.340217968784
    H            2.004483984442    -0.753242345690     0.781687683485
    H            1.461791121591    -2.035706460273    -0.293763808963
    H            0.498072475864    -1.603775115939     1.102030678555
    H           -1.361367654502     0.033666058460    -1.765693316891
    H           -0.609437857559    -1.553688960510    -1.849575677361
    H           -1.556583943223    -1.111779095697    -0.443729040957

  Mulliken Charges: (a.u.)
   Center  Symbol    Alpha    Beta     Spin     Total
       1     H     0.42737  0.42737  0.00000  0.14527
       2     C     3.08132  3.08132  0.00000 -0.16264
       3     O     4.31241  4.31241  0.00000 -0.62483
       4     H     0.41333  0.41333  0.00000  0.17334
       5     H     0.43044  0.43044  0.00000  0.13912
       6     C     2.90968  2.90968  0.00000  0.18064
       7     C     3.25023  3.25023  0.00000 -0.50046
       8     C     3.25462  3.25462  0.00000 -0.50924
       9     H     0.41541  0.41541  0.00000  0.16918
      10     H     0.41129  0.41129  0.00000  0.17743
      11     H     0.42056  0.42056  0.00000  0.15887
      12     H     0.42192  0.42192  0.00000  0.15615
      13     H     0.41175  0.41175  0.00000  0.17650
      14     H     0.41858  0.41858  0.00000  0.16285
      15     H     0.42109  0.42109  0.00000  0.15782

   Total alpha = 21.00000, Total beta = 21.00000, Total charge =  0.00000
