  ==> Input File <==

--------------------------------------------------------------------------
set {
	reference rhf
	basis 6-31G*
}

set_num_threads( 4 )
memory 2 gb

molecule MOL {
0 1

O	 -1.412542	 -4.077664	 -0.157306
C	 -0.746484	 -3.793651	 -1.106062
C	 -0.185788	 -2.392100	 -1.272141
C	 -0.401131	 -4.813921	 -2.167737
C	 1.059305	 -2.192157	 -0.392989
H	 -0.957251	 -1.691521	 -0.971581
H	 0.059509	 -2.199340	 -2.312670
C	 1.631333	 -0.777471	 -0.511575
H	 0.786643	 -2.408923	 0.633681
H	 1.825630	 -2.913067	 -0.673669
C	 2.915987	 -0.544314	 0.291766
H	 0.876400	 -0.058698	 -0.198257
H	 1.835205	 -0.568316	 -1.559687
C	 3.373361	 0.914346	 0.347591
H	 3.708709	 -1.142521	 -0.150311
H	 2.780642	 -0.921148	 1.303579
H	 3.506512	 1.320010	 -0.651625
H	 4.322697	 0.999599	 0.867103
H	 2.660624	 1.545032	 0.868198
H	 -0.873938	 -4.538302	 -3.106754
H	 -0.745804	 -5.793233	 -1.866189
H	 0.670415	 -4.837810	 -2.343873

	symmetry c1
}
set optking {
	frozen_dihedral = ("
		12 8 11 15
	")
}

ee = optimize('scf')
oeprop('DIPOLE', 'QUADRUPOLE', 'MULLIKEN_CHARGES')
f=open( 'psi4out.xyz', 'w' )
f.write( "22  " )
f.write( str(ee) + "\n" )
f.write( MOL.save_string_xyz() )
f.close()
--------------------------------------------------------------------------

    Molecular point group: c1
  Charge       = 0
  Multiplicity = 1
  Basis Set: 6-31G*
  Basis Set:
  @DF-RHF Final Energy:  -348.09920666678443
    Total Energy =                       -348.0992066667845961
    Molecular point group: c1
  Basis Set: 6-31G*
  Basis Set:
  Basis Set: 6-31G*
  Basis Set:
  @DF-RHF Final Energy:  -348.09939380947094
    Total Energy =                       -348.0993938094707119
  Basis Set: 6-31G*
  Basis Set:
  Basis Set: 6-31G*
  Basis Set:
  @DF-RHF Final Energy:  -348.09720657372679
    Total Energy =                       -348.0972065737268508
  Basis Set: 6-31G*
  Basis Set:
  Basis Set: 6-31G*
  Basis Set:
  @DF-RHF Final Energy:  -348.09950923827387
    Total Energy =                       -348.0995092382740381
  Basis Set: 6-31G*
  Basis Set:
  @DF-RHF Final Energy:  -348.09949474757980
    Total Energy =                       -348.0994947475795698
  @DF-RHF Final Energy:  -348.09928689970690
    Total Energy =                       -348.0992868997072947
  @DF-RHF Final Energy:  -348.09947934329585
    Total Energy =                       -348.0994793432953998
  @DF-RHF Final Energy:  -348.09954219818394
    Total Energy =                       -348.0995421981837126
  Basis Set: 6-31G*
  Basis Set:
  @DF-RHF Final Energy:  -348.09954434487230
    Total Energy =                       -348.0995443448722426
  Basis Set: 6-31G*
  Basis Set:
  Basis Set: 6-31G*
  Basis Set:
  @DF-RHF Final Energy:  -348.09954974172592
    Total Energy =                       -348.0995497417257525
  Basis Set: 6-31G*
  Basis Set:
  Basis Set: 6-31G*
  Basis Set:
  @DF-RHF Final Energy:  -348.09955095232698
    Total Energy =                       -348.0995509523269789
  Basis Set: 6-31G*
  Basis Set:
  Charge       = 0
  Multiplicity = 1
  Basis Set: 6-31G*
  Basis Set:

    Orbital Energies (a.u.)
    -----------------------

    Doubly Occupied:

       1A    -20.547377     2A    -11.324483     3A    -11.230185
       4A    -11.229200     5A    -11.228200     6A    -11.222255
       7A    -11.220532     8A    -11.212504     9A     -1.393132
      10A     -1.095952    11A     -1.045789    12A     -1.000880
      13A     -0.938812    14A     -0.845499    15A     -0.798831
      16A     -0.732472    17A     -0.665892    18A     -0.646658
      19A     -0.631535    20A     -0.608226    21A     -0.592794
      22A     -0.583843    23A     -0.562275    24A     -0.552663
      25A     -0.529393    26A     -0.515927    27A     -0.497195
      28A     -0.484752    29A     -0.475445    30A     -0.469404
      31A     -0.459690    32A     -0.396134

  @DF-RHF Final Energy:  -348.09955118174901

   => Energetics <=

    Nuclear Repulsion Energy =            368.5152047846146388
    One-Electron Energy =               -1201.7536545740927068
    Two-Electron Energy =                 485.1388986077295158
    DFT Exchange-Correlation Energy =       0.0000000000000000
    Empirical Dispersion Energy =           0.0000000000000000
    PCM Polarization Energy =               0.0000000000000000
    EFP Energy =                            0.0000000000000000
    Total Energy =                       -348.0995511817485522
    Molecular point group: c1
  Basis Set: 6-31G*
  Basis Set:

  -Total Gradient:
     Atom            X                  Y                   Z
    ------   -----------------  -----------------  -----------------
       1        0.000021059161    -0.000003626071     0.000019219921
       2       -0.000021507764    -0.000006116790    -0.000018474064
       3        0.000009182150     0.000001871963     0.000026043311
       4       -0.000020387519     0.000004979512     0.000001803931
       5        0.000007245210    -0.000020204959    -0.000024179062
       6       -0.000026654400     0.000003958369    -0.000016049638
       7        0.000009049447     0.000007725680     0.000012247637
       8       -0.000687916739    -0.001186343269     0.001365207482
       9       -0.000021934326    -0.000003274727    -0.000034910219
      10        0.000024494430    -0.000010313584     0.000023200836
      11       -0.000384852283    -0.001491625989     0.000965062695
      12        0.000629066727     0.001228485165    -0.001279264648
      13        0.000009236647    -0.000000283772     0.000018189994
      14       -0.000026130858     0.000021151597     0.000054476980
      15        0.000483073592     0.001412568399    -0.001102695010
      16       -0.000019296449     0.000026908068    -0.000015856142
      17       -0.000008566969    -0.000019683433     0.000002073497
      18       -0.000002070757     0.000002669208     0.000001922932
      19        0.000014420406     0.000022918599    -0.000000085722
      20        0.000007381567    -0.000001334494    -0.000012179059
      21        0.000003327921     0.000003905305     0.000004404178
      22        0.000001780814     0.000005665218     0.000009840173

  **** Optimization is complete! (in 12 steps) ****
    Final optimized geometry and variables:
    Molecular point group: c1

    Geometry (in Angstrom), charge = 0, multiplicity = 1:

    O           -2.197348502412    -1.869245709278     0.468778308569
    C           -1.532294756748    -1.581492688049    -0.479427578063
    C           -0.980328259575    -0.176631286549    -0.646570264768
    C           -1.184925122360    -2.598502481348    -1.543847663776
    C            0.283558593739     0.021307167522     0.205097275722
    H           -1.747462022239     0.518747318827    -0.323962160480
    H           -0.758327339140     0.024351433868    -1.690829604046
    C            0.851894513697     1.436020739954     0.094500845599
    H            0.040087345753    -0.198113656312     1.240048466099
    H            1.045135324390    -0.696392706019    -0.095180920394
    C            2.128119332441     1.640899394418     0.914262496326
    H            0.100102100278     2.158757872495     0.405949019402
    H            1.063283393348     1.660222176260    -0.949930835629
    C            2.572865078318     3.102976908523     0.960058778272
    H            2.929189511201     1.043376429066     0.484728332933
    H            1.974498272009     1.278293211419     1.927755135007
    H            2.750108479338     3.490323718587    -0.039446619289
    H            3.492348541931     3.216102664537     1.525782600257
    H            1.817660801734     3.728460774550     1.427181259891
    H           -1.665557141828    -2.326039731298    -2.479790945527
    H           -1.520550393317    -3.580457829036    -1.240771193041
    H           -0.114390978877    -2.614417108767    -1.726477236465

  Mulliken Charges: (a.u.)
   Center  Symbol    Alpha    Beta     Spin     Total
       1     O     4.26217  4.26217  0.00000 -0.52434
       2     C     2.73724  2.73724  0.00000  0.52553
       3     C     3.20004  3.20004  0.00000 -0.40007
       4     C     3.28957  3.28957  0.00000 -0.57914
       5     C     3.16216  3.16216  0.00000 -0.32431
       6     H     0.40107  0.40107  0.00000  0.19787
       7     H     0.41685  0.41685  0.00000  0.16630
       8     C     3.15125  3.15125  0.00000 -0.30249
       9     H     0.40590  0.40590  0.00000  0.18820
      10     H     0.42072  0.42072  0.00000  0.15856
      11     C     3.15250  3.15250  0.00000 -0.30501
      12     H     0.42029  0.42029  0.00000  0.15943
      13     H     0.42338  0.42338  0.00000  0.15324
      14     C     3.24008  3.24008  0.00000 -0.48016
      15     H     0.42237  0.42237  0.00000  0.15526
      16     H     0.42029  0.42029  0.00000  0.15942
      17     H     0.42178  0.42178  0.00000  0.15643
      18     H     0.41814  0.41814  0.00000  0.16372
      19     H     0.42055  0.42055  0.00000  0.15891
      20     H     0.40683  0.40683  0.00000  0.18635
      21     H     0.39705  0.39705  0.00000  0.20589
      22     H     0.40980  0.40980  0.00000  0.18041

   Total alpha = 32.00000, Total beta = 32.00000, Total charge = -0.00000
