  ==> Input File <==

--------------------------------------------------------------------------
set {
	reference rhf
	basis 6-31G*
}

set_num_threads( 4 )
memory 2 gb

molecule MOL {
0 1

O	 0.749854	 1.307668	 -0.000040
C	 0.576249	 0.131685	 -0.000108
C	 -0.766779	 -0.556801	 -0.000461
O	 1.568443	 -0.749345	 -0.000005
C	 -1.945214	 0.412366	 0.000161
H	 -0.796911	 -1.211249	 -0.867467
H	 -0.796854	 -1.212390	 0.865687
C	 -1.666755	 1.653461	 0.846749
H	 -2.828055	 -0.097736	 0.370282
H	 -2.169889	 0.703339	 -1.020344
H	 -1.469386	 1.390130	 1.882198
H	 -2.516005	 2.328759	 0.834537
H	 -0.804659	 2.200677	 0.475507
C	 2.886820	 -0.232538	 0.000322
H	 3.059106	 0.369571	 -0.880203
H	 3.540187	 -1.091012	 0.000050
H	 3.059019	 0.368956	 0.881266

	symmetry c1
}
set optking {
	frozen_dihedral = ("
		9 5 3 6
	")
}

ee = optimize('scf')
oeprop('DIPOLE', 'QUADRUPOLE', 'MULLIKEN_CHARGES')
f=open( 'psi4out.xyz', 'w' )
f.write( "17  " )
f.write( str(ee) + "\n" )
f.write( MOL.save_string_xyz() )
f.close()
--------------------------------------------------------------------------

    Molecular point group: c1
  Charge       = 0
  Multiplicity = 1
  Basis Set: 6-31G*
  Basis Set:
  @DF-RHF Final Energy:  -344.88814670555638
    Total Energy =                       -344.8881467055564372
    Molecular point group: c1
  Basis Set: 6-31G*
  Basis Set:
  Basis Set: 6-31G*
  Basis Set:
  @DF-RHF Final Energy:  -344.89854508352119
    Total Energy =                       -344.8985450835213555
  Basis Set: 6-31G*
  Basis Set:
  Basis Set: 6-31G*
  Basis Set:
  @DF-RHF Final Energy:  -344.90015947845734
    Total Energy =                       -344.9001594784576810
  Basis Set: 6-31G*
  Basis Set:
  Basis Set: 6-31G*
  Basis Set:
  @DF-RHF Final Energy:  -344.89834795604281
    Total Energy =                       -344.8983479560431533
  Basis Set: 6-31G*
  Basis Set:
  @DF-RHF Final Energy:  -344.90147809966521
    Total Energy =                       -344.9014780996655531
  @DF-RHF Final Energy:  -344.90220064544371
    Total Energy =                       -344.9022006454437701
  @DF-RHF Final Energy:  -344.90256137600289
    Total Energy =                       -344.9025613760029501
  @DF-RHF Final Energy:  -344.90265362138507
    Total Energy =                       -344.9026536213850704
  Basis Set: 6-31G*
  Basis Set:
  @DF-RHF Final Energy:  -344.90270846984333
    Total Energy =                       -344.9027084698432759
  Basis Set: 6-31G*
  Basis Set:
  Basis Set: 6-31G*
  Basis Set:
  @DF-RHF Final Energy:  -344.90271793473391
    Total Energy =                       -344.9027179347337437
  Basis Set: 6-31G*
  Basis Set:
  Basis Set: 6-31G*
  Basis Set:
  @DF-RHF Final Energy:  -344.90272058166687
    Total Energy =                       -344.9027205816672677
  Basis Set: 6-31G*
  Basis Set:
  Charge       = 0
  Multiplicity = 1
  Basis Set: 6-31G*
  Basis Set:

    Orbital Energies (a.u.)
    -----------------------

    Doubly Occupied:

       1A    -20.606126     2A    -20.542876     3A    -11.372363
       4A    -11.281293     5A    -11.235847     6A    -11.226910
       7A    -11.208893     8A     -1.470219     9A     -1.362100
      10A     -1.078486    11A     -0.998668    12A     -0.940502
      13A     -0.831238    14A     -0.766647    15A     -0.694911
      16A     -0.681549    17A     -0.670657    18A     -0.630469
      19A     -0.610668    20A     -0.572343    21A     -0.559362
      22A     -0.533948    23A     -0.524546    24A     -0.493383
      25A     -0.483742    26A     -0.481330    27A     -0.455336
      28A     -0.432917

  @DF-RHF Final Energy:  -344.90272107969793

   => Energetics <=

    Nuclear Repulsion Energy =            319.8702795447904919
    One-Electron Energy =               -1104.0513487637069829
    Two-Electron Energy =                 439.2783481392186218
    DFT Exchange-Correlation Energy =       0.0000000000000000
    Empirical Dispersion Energy =           0.0000000000000000
    PCM Polarization Energy =               0.0000000000000000
    EFP Energy =                            0.0000000000000000
    Total Energy =                       -344.9027210796978693
    Molecular point group: c1
  Basis Set: 6-31G*
  Basis Set:

  -Total Gradient:
     Atom            X                  Y                   Z
    ------   -----------------  -----------------  -----------------
       1       -0.000045225703     0.000059733990    -0.000024354851
       2        0.000066015803    -0.000056708438     0.000043036866
       3       -0.003995929230    -0.005222078985     0.004818564674
       4       -0.000044983750     0.000003138949     0.000013037662
       5       -0.001363033071    -0.000109175742    -0.007784229352
       6        0.003534372021     0.004379529324    -0.002940401172
       7        0.000009959337     0.000005566518     0.000013436671
       8        0.000000253810     0.000008017819    -0.000003478571
       9        0.001817070057     0.000927486172     0.005879980638
      10       -0.000013138381    -0.000011044644    -0.000009897792
      11       -0.000005988909     0.000000398799     0.000015233537
      12       -0.000000382602     0.000006695511     0.000006974588
      13        0.000032227595     0.000013519641    -0.000012519493
      14        0.000029602807    -0.000005547253    -0.000024659735
      15        0.000000192159     0.000002810988     0.000005811140
      16       -0.000006389292     0.000000072194     0.000002936151
      17       -0.000014622651    -0.000002414843     0.000000529044

  **** Optimization is complete! (in 12 steps) ****
    Final optimized geometry and variables:
    Molecular point group: c1

    Geometry (in Angstrom), charge = 0, multiplicity = 1:

    O            0.579113261534     0.782999040958    -0.969143328951
    C            0.338517909663    -0.196446335838    -0.337230626541
    C           -1.035848033105    -0.811913224781    -0.197706184463
    O            1.269891153233    -0.902328970804     0.287057469453
    C           -2.162109548794     0.217700111151    -0.012990212664
    H           -1.175483313936    -1.332175856903    -1.142707763666
    H           -1.022923072518    -1.542837508972     0.599269891342
    C           -1.860056461806     1.302026829286     1.026353891031
    H           -3.035037531643    -0.323819632648     0.339834966500
    H           -2.406443306667     0.676132642990    -0.963267323122
    H           -1.591482374868     0.860973690409     1.983339593500
    H           -2.736074723940     1.922252525480     1.187320850909
    H           -1.050099161072     1.946621166518     0.709909218591
    C            2.606847304382    -0.449898684755     0.166390530945
    H            2.913938335072    -0.445141679100    -0.869472784943
    H            3.205892519874    -1.146585674199     0.731704231401
    H            2.707618461462     0.546535687166     0.571536393308

  Mulliken Charges: (a.u.)
   Center  Symbol    Alpha    Beta     Spin     Total
       1     O     4.28851  4.28851  0.00000 -0.57703
       2     C     2.60810  2.60810  0.00000  0.78379
       3     C     3.20786  3.20786  0.00000 -0.41572
       4     O     4.30419  4.30419  0.00000 -0.60838
       5     C     3.15015  3.15015  0.00000 -0.30030
       6     H     0.39879  0.39879  0.00000  0.20242
       7     H     0.39996  0.39996  0.00000  0.20008
       8     C     3.25303  3.25303  0.00000 -0.50605
       9     H     0.41739  0.41739  0.00000  0.16523
      10     H     0.40914  0.40914  0.00000  0.18173
      11     H     0.42317  0.42317  0.00000  0.15367
      12     H     0.41757  0.41757  0.00000  0.16486
      13     H     0.40345  0.40345  0.00000  0.19310
      14     C     3.09320  3.09320  0.00000 -0.18640
      15     H     0.40876  0.40876  0.00000  0.18247
      16     H     0.40830  0.40830  0.00000  0.18341
      17     H     0.40844  0.40844  0.00000  0.18312

   Total alpha = 28.00000, Total beta = 28.00000, Total charge = -0.00000
