  ==> Input File <==

--------------------------------------------------------------------------
set {
	reference rhf
	basis 6-31G*
}

set_num_threads( 4 )
memory 2 gb

molecule MOL {
0 1

H	 3.089270	 -1.380733	 0.000000
O	 2.178328	 -1.639175	 0.000000
C	 1.368216	 -0.558384	 0.000000
C	 1.084841	 0.159234	 1.155001
C	 0.813111	 -0.172871	 -1.207754
H	 1.517871	 -0.142461	 2.093884
C	 0.247382	 1.260816	 1.101623
H	 1.031174	 -0.726294	 -2.100641
C	 -0.024269	 0.931144	 -1.252501
H	 0.035451	 1.808273	 2.002043
C	 -0.311765	 1.653203	 -0.101090
C	 -0.624010	 1.350775	 -2.546754
H	 -0.962528	 2.508538	 -0.144847
O	 -0.440299	 0.800451	 -3.584993
H	 -1.271487	 2.231052	 -2.490765

	symmetry c1
}
set optking {
	frozen_dihedral = ("
		4 3 2 1
	")
}

ee = optimize('scf')
oeprop('DIPOLE', 'QUADRUPOLE', 'MULLIKEN_CHARGES')
f=open( 'psi4out.xyz', 'w' )
f.write( "15  " )
f.write( str(ee) + "\n" )
f.write( MOL.save_string_xyz() )
f.close()
--------------------------------------------------------------------------

    Molecular point group: c1
  Charge       = 0
  Multiplicity = 1
  Basis Set: 6-31G*
  Basis Set:
  @DF-RHF Final Energy:  -418.28198687150592
    Total Energy =                       -418.2819868715059783
    Molecular point group: c1
  Basis Set: 6-31G*
  Basis Set:
  Basis Set: 6-31G*
  Basis Set:
  @DF-RHF Final Energy:  -418.28269121662305
    Total Energy =                       -418.2826912166226521
  Basis Set: 6-31G*
  Basis Set:
  Basis Set: 6-31G*
  Basis Set:
  @DF-RHF Final Energy:  -418.28234538240980
    Total Energy =                       -418.2823453824098578
  Basis Set: 6-31G*
  Basis Set:
  Basis Set: 6-31G*
  Basis Set:
  @DF-RHF Final Energy:  -418.28279635746395
    Total Energy =                       -418.2827963574641217
  Basis Set: 6-31G*
  Basis Set:
  Basis Set: 6-31G*
  Basis Set:
  @DF-RHF Final Energy:  -418.28280971511606
    Total Energy =                       -418.2828097151159454
  Basis Set: 6-31G*
  Basis Set:
  Charge       = 0
  Multiplicity = 1
  Basis Set: 6-31G*
  Basis Set:

    Orbital Energies (a.u.)
    -----------------------

    Doubly Occupied:

       1A    -20.587586     2A    -20.564855     3A    -11.333629
       4A    -11.303396     5A    -11.253568     6A    -11.251345
       7A    -11.251014     8A    -11.249484     9A    -11.243986
      10A     -1.405679    11A     -1.403492    12A     -1.170227
      13A     -1.048876    14A     -1.026287    15A     -0.897490
      16A     -0.845364    17A     -0.802509    18A     -0.740053
      19A     -0.698130    20A     -0.681277    21A     -0.649658
      22A     -0.634610    23A     -0.618100    24A     -0.605783
      25A     -0.555737    26A     -0.545296    27A     -0.532402
      28A     -0.497414    29A     -0.486263    30A     -0.423835
      31A     -0.352138    32A     -0.341672

  @DF-RHF Final Energy:  -418.28281080754590

   => Energetics <=

    Nuclear Repulsion Energy =            402.5760257536630320
    One-Electron Energy =               -1367.7153597567457837
    Two-Electron Energy =                 546.8565231955371928
    DFT Exchange-Correlation Energy =       0.0000000000000000
    Empirical Dispersion Energy =           0.0000000000000000
    PCM Polarization Energy =               0.0000000000000000
    EFP Energy =                            0.0000000000000000
    Total Energy =                       -418.2828108075455020
    Molecular point group: c1
  Basis Set: 6-31G*
  Basis Set:

  -Total Gradient:
     Atom            X                  Y                   Z
    ------   -----------------  -----------------  -----------------
       1        0.000030751097    -0.000020909959    -0.000431913621
       2       -0.000133741593    -0.000123624857     0.000531464622
       3        0.000441447412     0.000370509180     0.000116941218
       4       -0.000182118853    -0.000368972075    -0.000037142376
       5       -0.000110612352     0.000081761125    -0.000143798941
       6       -0.000007233827    -0.000006745385     0.000011373091
       7       -0.000060589131     0.000149543304    -0.000139630266
       8       -0.000012287876     0.000000003040     0.000027616226
       9        0.000101487092    -0.000083905235    -0.000072749312
      10        0.000009061986    -0.000014916020     0.000000358032
      11       -0.000041402067    -0.000014278354     0.000172878478
      12       -0.000042333811     0.000025232655     0.000022405414
      13       -0.000004056315    -0.000002504180    -0.000032079399
      14        0.000008753705    -0.000000865319    -0.000010879112
      15        0.000002874530     0.000009672083    -0.000014844045

  **** Optimization is complete! (in 6 steps) ****
    Final optimized geometry and variables:
    Molecular point group: c1

    Geometry (in Angstrom), charge = 0, multiplicity = 1:

    H            2.584952434674    -1.787261287278     0.824409995927
    O            1.671166889861    -2.037928365832     0.791446007284
    C            0.872386182042    -0.928454987106     0.739440852732
    C            0.586836155456    -0.221063375426     1.900760543832
    C            0.309725871138    -0.548143197029    -0.461135410358
    H            1.020036731653    -0.546183260066     2.829402387337
    C           -0.252496755589     0.877609112840     1.856300263332
    H            0.519626545862    -1.102249102246    -1.355882119605
    C           -0.538301662237     0.553985233493    -0.503537063031
    H           -0.469469497031     1.421786355081     2.757318005408
    C           -0.817933746729     1.267372484959     0.652319332526
    C           -1.146477476543     0.973198246467    -1.791577529969
    H           -1.474540144661     2.119092206163     0.614627484596
    O           -0.954737764912     0.433831346747    -2.834741104333
    H           -1.807610269593     1.842923719199    -1.729232661141

  Mulliken Charges: (a.u.)
   Center  Symbol    Alpha    Beta     Spin     Total
       1     H     0.26975  0.26975  0.00000  0.46050
       2     O     4.38591  4.38591  0.00000 -0.77183
       3     C     2.82017  2.82017  0.00000  0.35966
       4     C     3.11010  3.11010  0.00000 -0.22020
       5     C     3.10690  3.10690  0.00000 -0.21380
       6     H     0.38972  0.38972  0.00000  0.22056
       7     C     3.10153  3.10153  0.00000 -0.20307
       8     H     0.37172  0.37172  0.00000  0.25656
       9     C     3.05164  3.05164  0.00000 -0.10329
      10     H     0.39267  0.39267  0.00000  0.21465
      11     C     3.10748  3.10748  0.00000 -0.21497
      12     C     2.83197  2.83197  0.00000  0.33607
      13     H     0.39201  0.39201  0.00000  0.21599
      14     O     4.24649  4.24649  0.00000 -0.49298
      15     H     0.42194  0.42194  0.00000  0.15612

   Total alpha = 32.00000, Total beta = 32.00000, Total charge =  0.00000
