  ==> Input File <==

--------------------------------------------------------------------------
set {
	reference rhf
	basis 6-31G*
}

set_num_threads( 4 )
memory 2 gb

molecule MOL {
0 1

O	 -2.439739	 -0.935931	 -0.423848
C	 -1.921153	 0.064240	 -0.045697
C	 -2.624470	 1.379923	 0.150949
O	 -0.632575	 0.154573	 0.251549
H	 -2.168117	 2.136577	 -0.476876
H	 -3.669540	 1.273223	 -0.098610
H	 -2.519365	 1.700893	 1.180846
C	 0.160891	 -1.019931	 0.106212
C	 1.589627	 -0.672828	 0.480843
H	 0.089836	 -1.367806	 -0.916050
H	 -0.238459	 -1.792301	 0.749618
C	 2.246377	 0.346236	 -0.452210
H	 2.163194	 -1.597435	 0.473358
H	 1.604769	 -0.303424	 1.502885
C	 3.770360	 0.346285	 -0.340521
H	 1.959020	 0.129196	 -1.479060
H	 1.865184	 1.336868	 -0.227046
H	 4.211889	 1.077164	 -1.010523
H	 4.183970	 -0.626074	 -0.592955
H	 4.089272	 0.588633	 0.669252

	symmetry c1
}
set optking {
	frozen_dihedral = ("
		16 12 9 8
	")
}

ee = optimize('scf')
oeprop('DIPOLE', 'QUADRUPOLE', 'MULLIKEN_CHARGES')
f=open( 'psi4out.xyz', 'w' )
f.write( "20  " )
f.write( str(ee) + "\n" )
f.write( MOL.save_string_xyz() )
f.close()
--------------------------------------------------------------------------

    Molecular point group: c1
  Charge       = 0
  Multiplicity = 1
  Basis Set: 6-31G*
  Basis Set:
  @DF-RHF Final Energy:  -383.94464843868258
    Total Energy =                       -383.9446484386822931
    Molecular point group: c1
  Basis Set: 6-31G*
  Basis Set:
  Basis Set: 6-31G*
  Basis Set:
  @DF-RHF Final Energy:  -383.94466132005164
    Total Energy =                       -383.9446613200515230
  Basis Set: 6-31G*
  Basis Set:
  Basis Set: 6-31G*
  Basis Set:
  @DF-RHF Final Energy:  -383.94410033297675
    Total Energy =                       -383.9441003329769728
  Basis Set: 6-31G*
  Basis Set:
  Basis Set: 6-31G*
  Basis Set:
  @DF-RHF Final Energy:  -383.94478224367072
    Total Energy =                       -383.9447822436713977
  Basis Set: 6-31G*
  Basis Set:
  Basis Set: 6-31G*
  Basis Set:
  @DF-RHF Final Energy:  -383.94479333777184
    Total Energy =                       -383.9447933377716708
  Basis Set: 6-31G*
  Basis Set:
  Basis Set: 6-31G*
  Basis Set:
  @DF-RHF Final Energy:  -383.94479722044821
    Total Energy =                       -383.9447972204480948
  Basis Set: 6-31G*
  Basis Set:
  Charge       = 0
  Multiplicity = 1
  Basis Set: 6-31G*
  Basis Set:

    Orbital Energies (a.u.)
    -----------------------

    Doubly Occupied:

       1A    -20.601549     2A    -20.543948     3A    -11.374350
       4A    -11.282397     5A    -11.233287     6A    -11.225550
       7A    -11.220862     8A    -11.213838     9A     -1.467775
      10A     -1.361981    11A     -1.085860    12A     -1.028103
      13A     -0.981649    14A     -0.880304    15A     -0.812448
      16A     -0.773964    17A     -0.689232    18A     -0.684785
      19A     -0.666894    20A     -0.630705    21A     -0.598808
      22A     -0.593258    23A     -0.572113    24A     -0.550132
      25A     -0.547852    26A     -0.530813    27A     -0.510387
      28A     -0.484812    29A     -0.474048    30A     -0.471771
      31A     -0.449178    32A     -0.438496

  @DF-RHF Final Energy:  -383.94479766558806

   => Energetics <=

    Nuclear Repulsion Energy =            385.0675752269381178
    One-Electron Energy =               -1286.0624474884343726
    Two-Electron Energy =                 517.0500745959083133
    DFT Exchange-Correlation Energy =       0.0000000000000000
    Empirical Dispersion Energy =           0.0000000000000000
    PCM Polarization Energy =               0.0000000000000000
    EFP Energy =                            0.0000000000000000
    Total Energy =                       -383.9447976655879984
    Molecular point group: c1
  Basis Set: 6-31G*
  Basis Set:

  -Total Gradient:
     Atom            X                  Y                   Z
    ------   -----------------  -----------------  -----------------
       1        0.000012585897     0.000002515629    -0.000019432430
       2       -0.000008124954    -0.000002232172     0.000022575214
       3       -0.000003798820     0.000002652014    -0.000000709965
       4        0.000001943335     0.000004204883    -0.000039264542
       5       -0.000001552783     0.000000571019    -0.000000554512
       6       -0.000000720466     0.000002269731     0.000000038271
       7        0.000001092828     0.000000654851    -0.000001214022
       8        0.000674793007    -0.001589109299    -0.001168508895
       9       -0.001500647064     0.002613373876     0.001803384193
      10       -0.000007028227     0.000006657028    -0.000019305246
      11        0.000016434068     0.000004467169    -0.000015760643
      12        0.003127536893    -0.002778358605    -0.000891730684
      13        0.000019968860    -0.000005753833     0.000004239017
      14       -0.000015975092     0.000008896464    -0.000014966182
      15       -0.000004546870    -0.000012555030    -0.000009505929
      16       -0.002300351074     0.001725160654     0.000342249208
      17       -0.000007184199     0.000019322639     0.000010994736
      18       -0.000002341746    -0.000002134535    -0.000000440734
      19        0.000005296969    -0.000001095751     0.000001272058
      20       -0.000007380555     0.000000493267    -0.000003358912

  **** Optimization is complete! (in 7 steps) ****
    Final optimized geometry and variables:
    Molecular point group: c1

    Geometry (in Angstrom), charge = 0, multiplicity = 1:

    O           -2.453888443420    -0.893907565811    -0.371314252313
    C           -1.924999585123     0.107824000762    -0.011700302389
    C           -2.616393092526     1.432423960461     0.167085953118
    O           -0.635762707050     0.190244089487     0.284079629721
    H           -2.154211201411     2.175698371252    -0.472301694259
    H           -3.662753256321     1.331350987261    -0.079440258301
    H           -2.506776091999     1.767182036631     1.192145363987
    C            0.146622108604    -0.994097446969     0.156899118132
    C            1.580455389541    -0.653560380364     0.514109249964
    H            0.068961598684    -1.358796776302    -0.858770064205
    H           -0.256119849253    -1.751569468235     0.815855533672
    C            2.224903961139     0.379615716441    -0.415897017883
    H            2.143677902771    -1.584160809689     0.471198933503
    H            1.626167763102    -0.309804159811     1.543579993937
    C            3.747892592716     0.408511742875    -0.307163655535
    H            1.924760811450     0.181712930764    -1.442655922731
    H            1.826440686990     1.361986368462    -0.181304304848
    H            4.172299483606     1.173200654715    -0.949891050787
    H            4.181631260811    -0.544956740216    -0.594947076653
    H            4.063430129084     0.620618846153     0.710634870745

  Mulliken Charges: (a.u.)
   Center  Symbol    Alpha    Beta     Spin     Total
       1     O     4.28346  4.28346  0.00000 -0.56692
       2     C     2.61930  2.61930  0.00000  0.76141
       3     C     3.28164  3.28164  0.00000 -0.56328
       4     O     4.30862  4.30862  0.00000 -0.61724
       5     H     0.40068  0.40068  0.00000  0.19863
       6     H     0.39692  0.39692  0.00000  0.20615
       7     H     0.40063  0.40063  0.00000  0.19873
       8     C     3.00325  3.00325  0.00000 -0.00649
       9     C     3.16523  3.16523  0.00000 -0.33047
      10     H     0.41025  0.41025  0.00000  0.17951
      11     H     0.40852  0.40852  0.00000  0.18295
      12     C     3.15361  3.15361  0.00000 -0.30723
      13     H     0.41864  0.41864  0.00000  0.16272
      14     H     0.41363  0.41363  0.00000  0.17275
      15     C     3.24065  3.24065  0.00000 -0.48130
      16     H     0.42200  0.42200  0.00000  0.15601
      17     H     0.41331  0.41331  0.00000  0.17337
      18     H     0.41758  0.41758  0.00000  0.16484
      19     H     0.42134  0.42134  0.00000  0.15732
      20     H     0.42073  0.42073  0.00000  0.15854

   Total alpha = 32.00000, Total beta = 32.00000, Total charge =  0.00000
