  ==> Input File <==

--------------------------------------------------------------------------
set {
	reference rhf
	basis 6-31G*
}

set_num_threads( 1 )
memory 2 gb

molecule MOL {
0 1

O	 -0.682937	 1.318834	 -0.186099
C	 -0.860635	 0.152188	 -0.042321
C	 -2.173363	 -0.477127	 0.338347
O	 0.083258	 -0.765189	 -0.202595
H	 -2.477673	 -1.180929	 -0.427595
H	 -2.923125	 0.290956	 0.455536
H	 -2.058825	 -1.029004	 1.264191
C	 -0.199168	 -1.891437	 -1.029999
C	 0.038840	 -1.578773	 -2.495687
H	 -1.215069	 -2.212782	 -0.857307
H	 0.477405	 -2.659095	 -0.682939
H	 -0.110655	 -2.474225	 -3.091124
H	 -0.649472	 -0.819428	 -2.844958
H	 1.054494	 -1.231566	 -2.651604

	symmetry c1
}
set optking {
	frozen_dihedral = ("
		10 8 4 2
	")
}

ee = energy('scf')
oeprop('DIPOLE', 'QUADRUPOLE', 'MULLIKEN_CHARGES')
f=open( 'psi4out.xyz', 'w' )
f.write( "14  " )
f.write( str(ee) + "\n" )
f.write( MOL.save_string_xyz() )
f.close()
--------------------------------------------------------------------------

    Molecular point group: c1

    Geometry (in Angstrom), charge = 0, multiplicity = 1:

       Center              X                  Y                   Z               Mass
    ------------   -----------------  -----------------  -----------------  -----------------
           O         -0.048218715375     1.864996160488     0.425786305949    15.994914619560
           C         -0.225916715375     0.698350160488     0.569564305949    12.000000000000
           C         -1.538644715375     0.069035160488     0.950232305949    12.000000000000
           O          0.717976284625    -0.219026839512     0.409290305949    15.994914619560
           H         -1.842954715375    -0.634766839512     0.184290305949     1.007825032070
           H         -2.288406715375     0.837118160488     1.067421305949     1.007825032070
           H         -1.424106715375    -0.482841839512     1.876076305949     1.007825032070
           C          0.435550284625    -1.345274839512    -0.418113694051    12.000000000000
           C          0.673558284625    -1.032610839512    -1.883801694051    12.000000000000
           H         -0.580350715375    -1.666619839512    -0.245421694051     1.007825032070
           H          1.112123284625    -2.112932839512    -0.071053694051     1.007825032070
           H          0.524063284625    -1.928062839512    -2.479238694051     1.007825032070
           H         -0.014753715375    -0.273265839512    -2.233072694051     1.007825032070
           H          1.689212284625    -0.685403839512    -2.039718694051     1.007825032070

  Charge       = 0
  Multiplicity = 1
  Basis Set: 6-31G*
  Basis Set:

    Orbital Energies (a.u.)
    -----------------------

    Doubly Occupied:

       1A    -20.594693     2A    -20.549795     3A    -11.377040
       4A    -11.300669     5A    -11.236459     6A    -11.230516
       7A     -1.463816     8A     -1.368736     9A     -1.051060
      10A     -1.018185    11A     -0.896630    12A     -0.772845
      13A     -0.698954    14A     -0.689899    15A     -0.670972
      16A     -0.613597    17A     -0.597302    18A     -0.587234
      19A     -0.552311    20A     -0.544579    21A     -0.527499
      22A     -0.489036    23A     -0.452696    24A     -0.435188

  @DF-RHF Final Energy:  -305.84793616818519

   => Energetics <=

    Nuclear Repulsion Energy =            249.8945198030785946
    One-Electron Energy =                -912.0454042221159625
    Two-Electron Energy =                 356.3029482508515571
    DFT Exchange-Correlation Energy =       0.0000000000000000
    Empirical Dispersion Energy =           0.0000000000000000
    PCM Polarization Energy =               0.0000000000000000
    EFP Energy =                            0.0000000000000000
    Total Energy =                       -305.8479361681857540

  Mulliken Charges: (a.u.)
   Center  Symbol    Alpha    Beta     Spin     Total
       1     O     4.26103  4.26103  0.00000 -0.52206
       2     C     2.61921  2.61921  0.00000  0.76157
       3     C     3.30471  3.30471  0.00000 -0.60943
       4     O     4.30242  4.30242  0.00000 -0.60484
       5     H     0.40552  0.40552  0.00000  0.18896
       6     H     0.39352  0.39352  0.00000  0.21296
       7     H     0.39814  0.39814  0.00000  0.20372
       8     C     3.01332  3.01332  0.00000 -0.02664
       9     C     3.24789  3.24789  0.00000 -0.49578
      10     H     0.41871  0.41871  0.00000  0.16257
      11     H     0.40365  0.40365  0.00000  0.19270
      12     H     0.41655  0.41655  0.00000  0.16690
      13     H     0.41253  0.41253  0.00000  0.17494
      14     H     0.40278  0.40278  0.00000  0.19443

   Total alpha = 24.00000, Total beta = 24.00000, Total charge = -0.00000
