  ==> Input File <==

--------------------------------------------------------------------------
set {
	reference rhf
	basis cc-pvtz
}

set_num_threads( 4 )
memory 2 gb

molecule MOL {
0 1

H	 -2.362939	 -1.309000	 -0.383250
C	 -1.359344	 -1.272457	 0.020748
C	 -0.684082	 0.000127	 -0.464918
H	 -0.825835	 -2.151141	 -0.318537
H	 -1.416276	 -1.292399	 1.099455
C	 -1.359089	 1.272668	 0.021259
N	 0.742439	 -0.000109	 0.007333
H	 -0.596914	 0.000345	 -1.538146
H	 -2.362696	 1.309620	 -0.382686
H	 -0.825392	 2.151374	 -0.317674
H	 -1.415983	 1.292181	 1.099973
O	 1.569961	 0.359891	 -0.760295
O	 0.950604	 -0.360125	 1.117894

	symmetry c1
}
set optking {
	frozen_dihedral = ("
		12 7 3 8
	")
}

ee = optimize('scf')
oeprop('DIPOLE', 'QUADRUPOLE', 'MULLIKEN_CHARGES')
f=open( 'psi4out.xyz', 'w' )
f.write( "13  " )
f.write( str(ee) + "\n" )
f.write( MOL.save_string_xyz() )
f.close()
--------------------------------------------------------------------------

    Molecular point group: c1
  Charge       = 0
  Multiplicity = 1
  Basis Set: CC-PVTZ
  Basis Set:
  @DF-RHF Final Energy:  -321.86416886423797
    Total Energy =                       -321.8641688642375129
    Molecular point group: c1
  Basis Set: CC-PVTZ
  Basis Set:
  Basis Set: CC-PVTZ
  Basis Set:
  @DF-RHF Final Energy:  -321.85899777618442
    Total Energy =                       -321.8589977761844239
  Basis Set: CC-PVTZ
  Basis Set:
  Basis Set: CC-PVTZ
  Basis Set:
  @DF-RHF Final Energy:  -321.86424360296871
    Total Energy =                       -321.8642436029689406
  Basis Set: CC-PVTZ
  Basis Set:
  Basis Set: CC-PVTZ
  Basis Set:
  @DF-RHF Final Energy:  -321.86444634576435
    Total Energy =                       -321.8644463457642928
  Basis Set: CC-PVTZ
  Basis Set:
  Basis Set: CC-PVTZ
  Basis Set:
  @DF-RHF Final Energy:  -321.86444942950305
    Total Energy =                       -321.8644494295033383
  Basis Set: CC-PVTZ
  Basis Set:
  Charge       = 0
  Multiplicity = 1
  Basis Set: CC-PVTZ
  Basis Set:

    Orbital Energies (a.u.)
    -----------------------

    Doubly Occupied:

       1A    -20.589337     2A    -20.588558     3A    -15.832670
       4A    -11.304399     5A    -11.245217     6A    -11.240526
       7A     -1.633910     8A     -1.418177     9A     -1.142535
      10A     -0.973863    11A     -0.957252    12A     -0.816475
      13A     -0.752992    14A     -0.732474    15A     -0.726471
      16A     -0.649751    17A     -0.594942    18A     -0.588099
      19A     -0.571161    20A     -0.529956    21A     -0.522420
      22A     -0.485368    23A     -0.470039    24A     -0.452153

  @DF-RHF Final Energy:  -321.86445059657785

   => Energetics <=

    Nuclear Repulsion Energy =            257.3651581247728473
    One-Electron Energy =                -948.8217324930369614
    Two-Electron Energy =                 369.5921237716861469
    DFT Exchange-Correlation Energy =       0.0000000000000000
    Empirical Dispersion Energy =           0.0000000000000000
    PCM Polarization Energy =               0.0000000000000000
    EFP Energy =                            0.0000000000000000
    Total Energy =                       -321.8644505965779672
    Molecular point group: c1
  Basis Set: CC-PVTZ
  Basis Set:

  -Total Gradient:
     Atom            X                  Y                   Z
    ------   -----------------  -----------------  -----------------
       1       -0.000002426001     0.000003306262    -0.000002997339
       2        0.000003328245    -0.000030332232    -0.000006437883
       3       -0.000069475328     0.000827529171     0.000077855774
       4       -0.000000735668     0.000001121936     0.000001425149
       5        0.000009272759     0.000013281748    -0.000008747082
       6        0.000019861781    -0.000034239496    -0.000002748452
       7        0.000147633816    -0.000734382666    -0.000268249203
       8        0.000019200340    -0.000545263689     0.000002928339
       9       -0.000003990240     0.000007888321     0.000003389581
      10       -0.000005250845     0.000010514824     0.000002790388
      11       -0.000005669913     0.000010414234     0.000006425280
      12       -0.000083904084     0.000478459731     0.000169657674
      13       -0.000027844857    -0.000008298142     0.000024707777

  **** Optimization is complete! (in 6 steps) ****
    Final optimized geometry and variables:
    Molecular point group: c1

    Geometry (in Angstrom), charge = 0, multiplicity = 1:

    H           -2.367692384032    -1.320163482116    -0.411732988309
    C           -1.372891492347    -1.289654983207     0.014944221071
    C           -0.683723043101    -0.025284548227    -0.463756453086
    H           -0.838686226434    -2.173659935334    -0.308115090881
    H           -1.453365327271    -1.308766912821     1.091407247216
    C           -1.347269031202     1.255491930846     0.024202980075
    N            0.743684459252    -0.000486526860     0.007270387581
    H           -0.596113371864    -0.017735085117    -1.537334923923
    H           -2.357667342028     1.295746512132    -0.361243678760
    H           -0.812996070647     2.127872740475    -0.327649282732
    H           -1.388368703571     1.278128648157     1.104854681932
    O            1.557477772488     0.380801266176    -0.765423098745
    O            0.963600113214    -0.328303989002     1.124861378911

  Mulliken Charges: (a.u.)
   Center  Symbol    Alpha    Beta     Spin     Total
       1     H     0.44991  0.44991  0.00000  0.10019
       2     C     3.14459  3.14459  0.00000 -0.28917
       3     C     3.00774  3.00774  0.00000 -0.01548
       4     H     0.44129  0.44129  0.00000  0.11742
       5     H     0.43818  0.43818  0.00000  0.12363
       6     C     3.14305  3.14305  0.00000 -0.28610
       7     N     3.27459  3.27459  0.00000  0.45082
       8     H     0.42520  0.42520  0.00000  0.14961
       9     H     0.44848  0.44848  0.00000  0.10305
      10     H     0.43823  0.43823  0.00000  0.12354
      11     H     0.44120  0.44120  0.00000  0.11761
      12     O     4.17121  4.17121  0.00000 -0.34243
      13     O     4.17634  4.17634  0.00000 -0.35268

   Total alpha = 24.00000, Total beta = 24.00000, Total charge =  0.00000
