                              Psi4 1.0.54 Driver

  ==> Input File <==

--------------------------------------------------------------------------
set {
	reference rhf
	basis cc-pvtz
}

set_num_threads( 4 )
memory 2 gb

molecule MOL {
0 1

H	 1.112461	 -1.207323	 -0.410489
O	 1.279539	 -0.368948	 -0.802488
C	 0.706474	 0.636793	 -0.025501
C	 -0.793473	 0.591216	 0.050087
H	 1.012832	 1.577723	 -0.467200
H	 1.109845	 0.623278	 0.985345
C	 -1.534243	 -0.493009	 -0.013340
H	 -1.266611	 1.552628	 0.164437
H	 -1.101195	 -1.466332	 -0.144046
H	 -2.604242	 -0.437780	 0.050785

	symmetry c1
}
set optking {
	frozen_dihedral = ("
		5 3 4 7
	")
}

ee,wfn = optimize('scf', return_wfn=True)
oeprop( wfn, 'DIPOLE', 'QUADRUPOLE', 'MULLIKEN_CHARGES')
f=open( 'psi4out.xyz', 'w' )
f.write( "10  " )
f.write( str(ee) + "\n" )
f.write( MOL.save_string_xyz() )
f.close()
--------------------------------------------------------------------------

    Molecular point group: c1
  Charge       = 0
  Multiplicity = 1
  Basis Set: CC-PVTZ
  Basis Set:
  @DF-RHF Final Energy:  -191.99458119277335
    Total Energy =                       -191.9945811927733530
    Molecular point group: c1
  Basis Set: CC-PVTZ
  Basis Set:
  Basis Set: CC-PVTZ
  Basis Set:
  @DF-RHF Final Energy:  -191.99512790303203
    Total Energy =                       -191.9951279030320848
  Basis Set: CC-PVTZ
  Basis Set:
  Basis Set: CC-PVTZ
  Basis Set:
  @DF-RHF Final Energy:  -191.99526040312668
    Total Energy =                       -191.9952604031267072
  Basis Set: CC-PVTZ
  Basis Set:
  Basis Set: CC-PVTZ
  Basis Set:
  @DF-RHF Final Energy:  -191.99527818058766
    Total Energy =                       -191.9952781805875759
  Basis Set: CC-PVTZ
  Basis Set:
  Basis Set: CC-PVTZ
  Basis Set:
  @DF-RHF Final Energy:  -191.99528355574034
    Total Energy =                       -191.9952835557402295
  Basis Set: CC-PVTZ
  Basis Set:
  Charge       = 0
  Multiplicity = 1
  Basis Set: CC-PVTZ
  Basis Set:

    Orbital Energies (a.u.)
    -----------------------

    Doubly Occupied:

       1A    -20.555034     2A    -11.278480     3A    -11.230237
       4A    -11.217730     5A     -1.375072     6A     -1.062679
       7A     -0.932623     8A     -0.769367     9A     -0.700291
      10A     -0.663833    11A     -0.623103    12A     -0.573629
      13A     -0.528711    14A     -0.509205    15A     -0.448403
      16A     -0.368981

  @DF-RHF Final Energy:  -191.99528449779649

   => Energetics <=

    Nuclear Repulsion Energy =            119.0945126835178627
    One-Electron Energy =                -496.5048351146638765
    Two-Electron Energy =                 185.4150379333495380
    DFT Exchange-Correlation Energy =       0.0000000000000000
    Empirical Dispersion Energy =           0.0000000000000000
    PCM Polarization Energy =               0.0000000000000000
    EFP Energy =                            0.0000000000000000
    Total Energy =                       -191.9952844977964901
    Molecular point group: c1
  Basis Set: CC-PVTZ
  Basis Set:

  -Total Gradient:
     Atom            X                  Y                   Z
    ------   -----------------  -----------------  -----------------
       1       -0.000009661855    -0.000050392428     0.000025583304
       2       -0.000056213076     0.000191260841     0.000046325175
       3       -0.000098478736    -0.002957985193    -0.003363441709
       4       -0.000291495505     0.001289483241    -0.006179130928
       5        0.000183710716     0.002018786007     0.004593752533
       6        0.000035472586     0.000026815241     0.000061449348
       7        0.000235230802    -0.000543303363     0.004774890734
       8       -0.000004253357     0.000024388497     0.000024227264
       9        0.000018943001    -0.000004845342     0.000009481749
      10       -0.000013254575     0.000005792498     0.000006862531

  **** Optimization is complete! (in 6 steps) ****
    Final optimized geometry and variables:
    Molecular point group: c1

    Geometry (in Angstrom), charge = 0, multiplicity = 1:

    H            1.268259298401    -1.258432353836    -0.082815970486
    O            1.305263808366    -0.448996988535    -0.557873015984
    C            0.717289500408     0.572996481367     0.184800118248
    C           -0.786711113681     0.536507448902     0.255055845675
    H            1.037261872096     1.516794170538    -0.236992076819
    H            1.099256226818     0.573753019229     1.205336861983
    C           -1.537924864240    -0.538357425426     0.169379354719
    H           -1.249313616164     1.482252481567     0.483880524747
    H           -1.129392703542    -1.505697328395    -0.057734751678
    H           -2.603155779907    -0.483305538441     0.288114447269

  Mulliken Charges: (a.u.)
   Center  Symbol    Alpha    Beta     Spin     Total
       1     H     0.39094  0.39094  0.00000  0.21813
       2     O     4.19728  4.19728  0.00000 -0.39457
       3     C     2.95386  2.95386  0.00000  0.09228
       4     C     3.07144  3.07144  0.00000 -0.14289
       5     H     0.45369  0.45369  0.00000  0.09261
       6     H     0.47044  0.47044  0.00000  0.05912
       7     C     3.17776  3.17776  0.00000 -0.35553
       8     H     0.42211  0.42211  0.00000  0.15577
       9     H     0.43522  0.43522  0.00000  0.12957
      10     H     0.42725  0.42725  0.00000  0.14550

   Total alpha = 16.00000, Total beta = 16.00000, Total charge =  0.00000

*** Psi4 exiting successfully. Buy a developer a beer!
