                              Psi4 1.0.54 Driver

  ==> Input File <==

--------------------------------------------------------------------------
set {
	reference rhf
	basis cc-pvtz
}

set_num_threads( 4 )
memory 2 gb

molecule MOL {
0 1

O	 2.868453	 1.353349	 -0.000734
C	 2.841259	 0.166180	 -0.000295
C	 1.542794	 -0.614730	 -0.000853
C	 4.113372	 -0.651103	 0.000743
C	 0.288398	 0.247429	 0.000314
H	 1.557171	 -1.273139	 -0.866508
H	 1.557484	 -1.274998	 0.863344
C	 -0.251550	 0.499433	 -1.404699
H	 0.506485	 1.191661	 0.486090
H	 -0.471729	 -0.231768	 0.606706
C	 -1.509410	 1.363120	 -1.417533
H	 0.516905	 0.977953	 -2.007833
H	 -0.466153	 -0.451920	 -1.886502
C	 -2.055388	 1.620038	 -2.819188
H	 -1.295824	 2.314411	 -0.936347
H	 -2.278413	 0.885236	 -0.815544
C	 -3.312231	 2.483818	 -2.823855
H	 -1.287778	 2.098780	 -3.421286
H	 -2.270368	 0.669732	 -3.300457
H	 -3.121027	 3.455113	 -2.379933
H	 -3.673384	 2.647005	 -3.832794
H	 -4.110943	 2.015399	 -2.258446
H	 4.145311	 -1.294584	 -0.871587
H	 4.970080	 0.004978	 -0.000091
H	 4.145223	 -1.291980	 0.874988

	symmetry c1
}
set optking {
	frozen_dihedral = ("
		9 5 3 6
	")
}

ee,wfn = optimize('scf', return_wfn=True)
oeprop( wfn, 'DIPOLE', 'QUADRUPOLE', 'MULLIKEN_CHARGES')
f=open( 'psi4out.xyz', 'w' )
f.write( "25  " )
f.write( str(ee) + "\n" )
f.write( MOL.save_string_xyz() )
f.close()
--------------------------------------------------------------------------

    Molecular point group: c1
  Charge       = 0
  Multiplicity = 1
  Basis Set: CC-PVTZ
  Basis Set:
  @DF-RHF Final Energy:  -387.27209970288806
    Total Energy =                       -387.2720997028884540
    Molecular point group: c1
  Basis Set: CC-PVTZ
  Basis Set:
  Basis Set: CC-PVTZ
  Basis Set:
  @DF-RHF Final Energy:  -387.27243324758433
    Total Energy =                       -387.2724332475845586
  Basis Set: CC-PVTZ
  Basis Set:
  Basis Set: CC-PVTZ
  Basis Set:
  @DF-RHF Final Energy:  -387.27237614326850
    Total Energy =                       -387.2723761432683887
  Basis Set: CC-PVTZ
  Basis Set:
  Basis Set: CC-PVTZ
  Basis Set:
  @DF-RHF Final Energy:  -387.27246941948738
    Total Energy =                       -387.2724694194876065
  Basis Set: CC-PVTZ
  Basis Set:
  @DF-RHF Final Energy:  -387.27250613396393
    Total Energy =                       -387.2725061339637023
  @DF-RHF Final Energy:  -387.27250764994079
    Total Energy =                       -387.2725076499413035
  @DF-RHF Final Energy:  -387.27250921019731
    Total Energy =                       -387.2725092101967448
  @DF-RHF Final Energy:  -387.27001809821320
    Total Energy =                       -387.2700180982131997
  @DF-RHF Final Energy:  -387.22688004813199
    Total Energy =                       -387.2268800481318749
  @DF-RHF Final Energy:  -387.27036750836879
    Total Energy =                       -387.2703675083689632
  @DF-RHF Final Energy:  -387.27212508829496
    Total Energy =                       -387.2721250882948425
  Basis Set: CC-PVTZ
  Basis Set:
  @DF-RHF Final Energy:  -387.27245808931281
    Total Energy =                       -387.2724580893124084
  Basis Set: CC-PVTZ
  Basis Set:
  Basis Set: CC-PVTZ
  Basis Set:
  @DF-RHF Final Energy:  -387.27250804563516
    Total Energy =                       -387.2725080456349360
  Basis Set: CC-PVTZ
  Basis Set:
  Basis Set: CC-PVTZ
  Basis Set:
  @DF-RHF Final Energy:  -387.27251087757332
    Total Energy =                       -387.2725108775730405
  Basis Set: CC-PVTZ
  Basis Set:
  Charge       = 0
  Multiplicity = 1
  Basis Set: CC-PVTZ
  Basis Set:

    Orbital Energies (a.u.)
    -----------------------

    Doubly Occupied:

       1A    -20.539992     2A    -11.321674     3A    -11.230527
       4A    -11.227156     5A    -11.214080     6A    -11.210318
       7A    -11.210148     8A    -11.208038     9A    -11.203937
      10A     -1.400224    11A     -1.092216    12A     -1.055774
      13A     -1.014874    14A     -0.967978    15A     -0.889766
      16A     -0.814815    17A     -0.788238    18A     -0.729601
      19A     -0.670530    20A     -0.639138    21A     -0.635702
      22A     -0.624380    23A     -0.592640    24A     -0.584898
      25A     -0.575066    26A     -0.557308    27A     -0.533678
      28A     -0.526089    29A     -0.516839    30A     -0.500442
      31A     -0.482587    32A     -0.474310    33A     -0.460762
      34A     -0.459362    35A     -0.442051    36A     -0.403511

  @DF-RHF Final Energy:  -387.27251133769585

   => Energetics <=

    Nuclear Repulsion Energy =            446.3566077551764693
    One-Electron Energy =               -1409.6609382109186299
    Two-Electron Energy =                 576.0318191180463145
    DFT Exchange-Correlation Energy =       0.0000000000000000
    Empirical Dispersion Energy =           0.0000000000000000
    PCM Polarization Energy =               0.0000000000000000
    EFP Energy =                            0.0000000000000000
    Total Energy =                       -387.2725113376958461
    Molecular point group: c1
  Basis Set: CC-PVTZ
  Basis Set:

  -Total Gradient:
     Atom            X                  Y                   Z
    ------   -----------------  -----------------  -----------------
       1       -0.000004012044    -0.000033798965    -0.000029885584
       2        0.000005379227     0.000027000045     0.000006035986
       3       -0.001552581754    -0.002657036355     0.001611589594
       4        0.000010495119     0.000027186537     0.000108870072
       5       -0.000392458703    -0.000989184477     0.003061507014
       6        0.001346110137     0.002343223169    -0.001785713361
       7       -0.000007680283     0.000014445441    -0.000024156731
       8        0.000000135732    -0.000004624868    -0.000001947472
       9        0.000622535515     0.001290678994    -0.002862531615
      10       -0.000006590468     0.000001085431     0.000008744641
      11       -0.000006374772    -0.000000658059    -0.000003156025
      12        0.000000940854    -0.000000854060     0.000000638296
      13       -0.000005377832     0.000000720981    -0.000003214382
      14        0.000005388841    -0.000003487073    -0.000000899757
      15        0.000001805485     0.000004887488     0.000001503266
      16        0.000002294907    -0.000002201143    -0.000001211658
      17        0.000001440290    -0.000001993251     0.000003000534
      18       -0.000001213445    -0.000000237750    -0.000000020510
      19       -0.000001908813    -0.000003666558    -0.000000806280
      20       -0.000000378122     0.000002994457     0.000002708010
      21        0.000003388973     0.000000227278    -0.000000862586
      22        0.000000104451    -0.000000615501    -0.000000011148
      23       -0.000010064357     0.000007459767    -0.000041223301
      24       -0.000010277612    -0.000010538939    -0.000012274244
      25       -0.000001101323    -0.000011012588    -0.000036682755

  **** Optimization is complete! (in 15 steps) ****
    Final optimized geometry and variables:
    Molecular point group: c1

    Geometry (in Angstrom), charge = 0, multiplicity = 1:

    O            2.375183222216     0.674860390658     0.710412460875
    C            2.396452029321    -0.510937466806     0.767735229393
    C            1.136373635353    -1.349888465086     0.893452427710
    C            3.699214614320    -1.276736137805     0.712565682479
    C           -0.159717100978    -0.542869994129     0.975833032182
    H            1.129278048024    -2.006096526048     0.026257044759
    H            1.262692466656    -1.994172214465     1.757923196203
    C           -0.779848938214    -0.265938236962    -0.393195186853
    H            0.050020728938     0.406239458861     1.451119796984
    H           -0.875674055248    -1.073570472974     1.594105712150
    C           -2.042770686817     0.585942125364    -0.317005608281
    H           -0.047297003882     0.234861387347    -1.019569966610
    H           -1.012791635336    -1.210007123781    -0.881399737639
    C           -2.672496655055     0.860073420093    -1.679752156383
    H           -1.806888532675     1.531334151216     0.164814852306
    H           -2.772454609555     0.092377673866     0.321342421835
    C           -3.932346221999     1.715453797992    -1.596877369651
    H           -1.944260380115     1.353142753037    -2.317670766671
    H           -2.910144153104    -0.084227299133    -2.162445934698
    H           -3.720448691709     2.681145907170    -1.150178368329
    H           -4.353479673522     1.891586727564    -2.580126210223
    H           -4.693869366650     1.233408329552    -0.992633592299
    H            3.691201283379    -1.969932078407    -0.121324778109
    H            4.523982770472    -0.589178859529     0.605876897295
    H            3.826491897685    -1.861754715442     1.616702680622

  Mulliken Charges: (a.u.)
   Center  Symbol    Alpha    Beta     Spin     Total
       1     O     4.17276  4.17276  0.00000 -0.34551
       2     C     2.86045  2.86045  0.00000  0.27910
       3     C     3.12272  3.12272  0.00000 -0.24544
       4     C     3.15040  3.15040  0.00000 -0.30080
       5     C     3.09654  3.09654  0.00000 -0.19308
       6     H     0.44453  0.44453  0.00000  0.11095
       7     H     0.43433  0.43433  0.00000  0.13134
       8     C     3.08665  3.08665  0.00000 -0.17330
       9     H     0.44216  0.44216  0.00000  0.11568
      10     H     0.44608  0.44608  0.00000  0.10785
      11     C     3.08913  3.08913  0.00000 -0.17826
      12     H     0.44918  0.44918  0.00000  0.10163
      13     H     0.45816  0.45816  0.00000  0.08368
      14     C     3.08374  3.08374  0.00000 -0.16749
      15     H     0.45146  0.45146  0.00000  0.09708
      16     H     0.45671  0.45671  0.00000  0.08657
      17     C     3.15054  3.15054  0.00000 -0.30107
      18     H     0.45361  0.45361  0.00000  0.09278
      19     H     0.45616  0.45616  0.00000  0.08768
      20     H     0.45440  0.45440  0.00000  0.09121
      21     H     0.44886  0.44886  0.00000  0.10228
      22     H     0.45590  0.45590  0.00000  0.08820
      23     H     0.45010  0.45010  0.00000  0.09980
      24     H     0.43536  0.43536  0.00000  0.12929
      25     H     0.45007  0.45007  0.00000  0.09986

   Total alpha = 36.00000, Total beta = 36.00000, Total charge = -0.00000

*** Psi4 exiting successfully. Buy a developer a beer!
