                              Psi4 1.0.54 Driver

  ==> Input File <==

--------------------------------------------------------------------------
set {
	reference rhf
	basis cc-pvtz
}

set_num_threads( 4 )
memory 2 gb

molecule MOL {
0 1

O	 -2.776383	 0.586249	 0.586889
C	 -1.922978	 0.063265	 -0.045005
C	 -2.156227	 -0.781677	 -1.265710
O	 -0.637375	 0.157174	 0.243149
H	 -1.762282	 -1.776202	 -1.100034
H	 -3.212471	 -0.831135	 -1.474372
H	 -1.628630	 -0.355584	 -2.109306
C	 0.162530	 -1.009518	 0.097799
C	 1.587210	 -0.664190	 0.477086
H	 0.096803	 -1.356267	 -0.924704
H	 -0.233803	 -1.785900	 0.736810
C	 2.256770	 0.342732	 -0.454344
H	 2.154716	 -1.590834	 0.479041
H	 1.598751	 -0.289614	 1.496104
C	 3.698146	 0.643205	 -0.057145
H	 2.235038	 -0.042575	 -1.470299
H	 1.683491	 1.262594	 -0.461300
H	 4.150202	 1.356548	 -0.736242
H	 4.305463	 -0.255904	 -0.069842
H	 3.749130	 1.061068	 0.942759

	symmetry c1
}
set optking {
	frozen_dihedral = ("
		1 2 4 8
	")
}

ee,wfn = optimize('scf', return_wfn=True)
oeprop( wfn, 'DIPOLE', 'QUADRUPOLE', 'MULLIKEN_CHARGES')
f=open( 'psi4out.xyz', 'w' )
f.write( "20  " )
f.write( str(ee) + "\n" )
f.write( MOL.save_string_xyz() )
f.close()
--------------------------------------------------------------------------

    Molecular point group: c1
  Charge       = 0
  Multiplicity = 1
  Basis Set: CC-PVTZ
  Basis Set:
  @DF-RHF Final Energy:  -384.06493084887745
    Total Energy =                       -384.0649308488774523
    Molecular point group: c1
  Basis Set: CC-PVTZ
  Basis Set:
  Basis Set: CC-PVTZ
  Basis Set:
  @DF-RHF Final Energy:  -384.04573694486038
    Total Energy =                       -384.0457369448605505
  Basis Set: CC-PVTZ
  Basis Set:
  Basis Set: CC-PVTZ
  Basis Set:
  @DF-RHF Final Energy:  -384.06927359807338
    Total Energy =                       -384.0692735980737780
  Basis Set: CC-PVTZ
  Basis Set:
  Basis Set: CC-PVTZ
  Basis Set:
  @DF-RHF Final Energy:  -384.07001635468635
    Total Energy =                       -384.0700163546864587
  Basis Set: CC-PVTZ
  Basis Set:
  @DF-RHF Final Energy:  -384.07115698514178
    Total Energy =                       -384.0711569851412150
  @DF-RHF Final Energy:  -384.07149994051548
    Total Energy =                       -384.0714999405153094
  Basis Set: CC-PVTZ
  Basis Set:
  @DF-RHF Final Energy:  -384.07154732578493
    Total Energy =                       -384.0715473257849908
  Basis Set: CC-PVTZ
  Basis Set:
  Basis Set: CC-PVTZ
  Basis Set:
  @DF-RHF Final Energy:  -384.07155698740729
    Total Energy =                       -384.0715569874072344
  Basis Set: CC-PVTZ
  Basis Set:
  Basis Set: CC-PVTZ
  Basis Set:
  @DF-RHF Final Energy:  -384.07156099890375
    Total Energy =                       -384.0715609989034647
  Basis Set: CC-PVTZ
  Basis Set:
  Charge       = 0
  Multiplicity = 1
  Basis Set: CC-PVTZ
  Basis Set:

    Orbital Energies (a.u.)
    -----------------------

    Doubly Occupied:

       1A    -20.586392     2A    -20.533988     3A    -11.368761
       4A    -11.294427     5A    -11.239065     6A    -11.227879
       7A    -11.220708     8A    -11.212515     9A     -1.463290
      10A     -1.368909    11A     -1.087655    12A     -1.020069
      13A     -0.998988    14A     -0.888598    15A     -0.815309
      16A     -0.780170    17A     -0.698282    18A     -0.690145
      19A     -0.664036    20A     -0.634010    21A     -0.613754
      22A     -0.593516    23A     -0.581567    24A     -0.556349
      25A     -0.551944    26A     -0.538096    27A     -0.505192
      28A     -0.489191    29A     -0.479340    30A     -0.476994
      31A     -0.449465    32A     -0.436821

  @DF-RHF Final Energy:  -384.07156174201833

   => Energetics <=

    Nuclear Repulsion Energy =            385.0668409077692900
    One-Electron Energy =               -1286.1459466852147671
    Two-Electron Energy =                 517.0075440354269176
    DFT Exchange-Correlation Energy =       0.0000000000000000
    Empirical Dispersion Energy =           0.0000000000000000
    PCM Polarization Energy =               0.0000000000000000
    EFP Energy =                            0.0000000000000000
    Total Energy =                       -384.0715617420185026
    Molecular point group: c1
  Basis Set: CC-PVTZ
  Basis Set:

  -Total Gradient:
     Atom            X                  Y                   Z
    ------   -----------------  -----------------  -----------------
       1       -0.000838750002    -0.003187890532     0.001905969616
       2        0.000640478131     0.004099986779    -0.001193967102
       3       -0.000029710713    -0.000009206407     0.000021347968
       4        0.001062454591    -0.000114721627    -0.003667010327
       5        0.000008432506     0.000015972140    -0.000002295962
       6       -0.000011947326     0.000000576340    -0.000012410215
       7        0.000016750462     0.000007623119     0.000002260965
       8       -0.000841457347    -0.000817203810     0.002900250806
       9       -0.000027656566     0.000006596475     0.000017218592
      10       -0.000002332831    -0.000023686202    -0.000000016594
      11       -0.000005637029     0.000026848500     0.000006003582
      12       -0.000009315065     0.000004010520     0.000009007612
      13        0.000003166359     0.000000010220     0.000008649942
      14        0.000023026028     0.000001713299     0.000011340312
      15        0.000008782013    -0.000000527043    -0.000006276444
      16       -0.000003697547     0.000000788666    -0.000003298647
      17        0.000005042570    -0.000006454913     0.000001649188
      18        0.000002032510    -0.000003032296    -0.000000313294
      19        0.000002256253    -0.000000535680     0.000003584558
      20       -0.000001916997    -0.000000867550    -0.000001694556

  **** Optimization is complete! (in 10 steps) ****
    Final optimized geometry and variables:
    Molecular point group: c1

    Geometry (in Angstrom), charge = 0, multiplicity = 1:

    O           -2.590903022061     1.097472879475     0.509709709191
    C           -1.889877229032     0.447656009447    -0.177928954691
    C           -2.362654749003    -0.199465873344    -1.455870416041
    O           -0.606568365018     0.274475568419     0.148258735919
    H           -2.408564666332    -1.275516174158    -1.341209549884
    H           -3.347963606227     0.171494298886    -1.684697388276
    H           -1.683109834357     0.021107620246    -2.269058915203
    C            0.031474922240    -0.977278759227    -0.021798760230
    C            1.414122759951    -0.896338886420     0.592062461588
    H            0.100796971811    -1.225630355890    -1.075105105820
    H           -0.551410213593    -1.745659011079     0.473258208140
    C            2.344208205265     0.092348878319    -0.105279310623
    H            1.845736219449    -1.893099345036     0.556471685167
    H            1.311767698956    -0.632940705987     1.639310594807
    C            3.728939309425     0.142463428510     0.531254056977
    H            2.438511629359    -0.183002622611    -1.152810493881
    H            1.898082591735     1.079179801876    -0.082868734298
    H            4.369401198200     0.848550046451     0.016146964650
    H            4.213162716500    -0.828112348768     0.499082235031
    H            3.669539314026     0.447628313194     1.570372485563

  Mulliken Charges: (a.u.)
   Center  Symbol    Alpha    Beta     Spin     Total
       1     O     4.17543  4.17543  0.00000 -0.35085
       2     C     2.81705  2.81705  0.00000  0.36590
       3     C     3.16584  3.16584  0.00000 -0.33169
       4     O     4.14169  4.14169  0.00000 -0.28337
       5     H     0.44699  0.44699  0.00000  0.10601
       6     H     0.42798  0.42798  0.00000  0.14404
       7     H     0.44357  0.44357  0.00000  0.11285
       8     C     2.99774  2.99774  0.00000  0.00453
       9     C     3.08306  3.08306  0.00000 -0.16611
      10     H     0.45903  0.45903  0.00000  0.08194
      11     H     0.44840  0.44840  0.00000  0.10320
      12     C     3.08678  3.08678  0.00000 -0.17356
      13     H     0.45344  0.45344  0.00000  0.09312
      14     H     0.44697  0.44697  0.00000  0.10607
      15     C     3.15035  3.15035  0.00000 -0.30070
      16     H     0.45788  0.45788  0.00000  0.08425
      17     H     0.44199  0.44199  0.00000  0.11602
      18     H     0.44690  0.44690  0.00000  0.10619
      19     H     0.45649  0.45649  0.00000  0.08702
      20     H     0.45242  0.45242  0.00000  0.09516

   Total alpha = 32.00000, Total beta = 32.00000, Total charge =  0.00000

*** Psi4 exiting successfully. Buy a developer a beer!
