  ==> Input File <==

--------------------------------------------------------------------------
set {
	reference rhf
	basis 6-31G*
}

set_num_threads( 1 )
memory 2 gb

molecule MOL {
0 1

H	 -2.324536	 1.113979	 1.822212
C	 -1.658479	 1.212835	 2.677044
O	 -0.372610	 0.777349	 2.373352
H	 -1.593044	 2.256798	 2.950907
H	 -2.083331	 0.656514	 3.511572
C	 -0.296709	 -0.563617	 2.005524
C	 1.120400	 -0.889705	 1.596044
H	 -0.584025	 -1.201966	 2.841979
H	 -0.967619	 -0.775920	 1.175577
O	 1.392611	 -0.295398	 0.366430
H	 1.806290	 -0.529750	 2.360240
H	 1.233147	 -1.972327	 1.525948
C	 2.706965	 -0.449871	 -0.062409
H	 2.756559	 -0.644779	 -1.131878
H	 3.305899	 0.433456	 0.155466
H	 3.125548	 -1.294566	 0.467107

	symmetry c1
}
set optking {
	frozen_dihedral = ("
		3 6 7 11,
		2 3 6 7
	")
}

ee = energy('scf')
oeprop('DIPOLE', 'QUADRUPOLE', 'MULLIKEN_CHARGES')
f=open( 'psi4out.xyz', 'w' )
f.write( "16  " )
f.write( str(ee) + "\n" )
f.write( MOL.save_string_xyz() )
f.close()
--------------------------------------------------------------------------

    Molecular point group: c1

    Geometry (in Angstrom), charge = 0, multiplicity = 1:

       Center              X                  Y                   Z               Mass
    ------------   -----------------  -----------------  -----------------  -----------------
           H         -2.807419861496     1.142284452046     0.332018853691     1.007825032070
           C         -2.141362861496     1.241140452046     1.186850853691    12.000000000000
           O         -0.855493861496     0.805654452046     0.883158853691    15.994914619560
           H         -2.075927861496     2.285103452046     1.460713853691     1.007825032070
           H         -2.566214861496     0.684819452046     2.021378853691     1.007825032070
           C         -0.779592861496    -0.535311547954     0.515330853691    12.000000000000
           C          0.637516138504    -0.861399547954     0.105850853691    12.000000000000
           H         -1.066908861496    -1.173660547954     1.351785853691     1.007825032070
           H         -1.450502861496    -0.747614547954    -0.314616146309     1.007825032070
           O          0.909727138504    -0.267092547954    -1.123763146309    15.994914619560
           H          1.323406138504    -0.501444547954     0.870046853691     1.007825032070
           H          0.750263138504    -1.944021547954     0.035754853691     1.007825032070
           C          2.224081138504    -0.421565547954    -1.552602146309    12.000000000000
           H          2.273675138504    -0.616473547954    -2.622071146309     1.007825032070
           H          2.823015138504     0.461761452046    -1.334727146309     1.007825032070
           H          2.642664138504    -1.266260547954    -1.023086146309     1.007825032070

  Charge       = 0
  Multiplicity = 1
  Basis Set: 6-31G*
  Basis Set:

    Orbital Energies (a.u.)
    -----------------------

    Doubly Occupied:

       1A    -20.553528     2A    -20.550520     3A    -11.269786
       4A    -11.268603     5A    -11.263454     6A    -11.263210
       7A     -1.387791     8A     -1.370131     9A     -1.030394
      10A     -0.935163    11A     -0.892572    12A     -0.825376
      13A     -0.683177    14A     -0.679851    15A     -0.658373
      16A     -0.633788    17A     -0.628131    18A     -0.598670
      19A     -0.552362    20A     -0.537721    21A     -0.507581
      22A     -0.476826    23A     -0.462890    24A     -0.417907
      25A     -0.408244

  @DF-RHF Final Energy:  -306.97357143854850

   => Energetics <=

    Nuclear Repulsion Energy =            258.9173957549440388
    One-Electron Energy =                -932.0699716431174693
    Two-Electron Energy =                 366.1790044496243581
    DFT Exchange-Correlation Energy =       0.0000000000000000
    Empirical Dispersion Energy =           0.0000000000000000
    PCM Polarization Energy =               0.0000000000000000
    EFP Energy =                            0.0000000000000000
    Total Energy =                       -306.9735714385491292

  Mulliken Charges: (a.u.)
   Center  Symbol    Alpha    Beta     Spin     Total
       1     H     0.42803  0.42803  0.00000  0.14395
       2     C     3.07951  3.07951  0.00000 -0.15903
       3     O     4.30083  4.30083  0.00000 -0.60166
       4     H     0.41129  0.41129  0.00000  0.17741
       5     H     0.43193  0.43193  0.00000  0.13613
       6     C     2.99306  2.99306  0.00000  0.01388
       7     C     2.99584  2.99584  0.00000  0.00831
       8     H     0.43235  0.43235  0.00000  0.13529
       9     H     0.42263  0.42263  0.00000  0.15475
      10     O     4.30294  4.30294  0.00000 -0.60587
      11     H     0.42212  0.42212  0.00000  0.15576
      12     H     0.43142  0.43142  0.00000  0.13716
      13     C     3.07548  3.07548  0.00000 -0.15096
      14     H     0.41740  0.41740  0.00000  0.16520
      15     H     0.42291  0.42291  0.00000  0.15419
      16     H     0.43226  0.43226  0.00000  0.13548

   Total alpha = 25.00000, Total beta = 25.00000, Total charge = -0.00000
