  ==> Input File <==

--------------------------------------------------------------------------
set {
	reference rhf
	basis 6-31G*
}

set_num_threads( 4 )
memory 2 gb

molecule MOL {
0 1

O	 1.846825	 1.296220	 0.000415
C	 1.705091	 0.115954	 0.001797
C	 0.381791	 -0.609817	 0.001258
O	 2.721346	 -0.737485	 -0.000216
C	 -0.823008	 0.326187	 0.001381
H	 0.371250	 -1.265087	 -0.865474
H	 0.370908	 -1.265746	 0.867490
C	 -2.149452	 -0.435131	 -0.000098
H	 -0.770201	 0.977095	 -0.865636
H	 -0.771220	 0.975655	 0.869608
C	 -3.368779	 0.488503	 -0.000883
H	 -2.193746	 -1.087250	 -0.871175
H	 -2.195311	 -1.087803	 0.870418
C	 -3.252978	 1.630221	 1.008236
H	 -4.261371	 -0.094742	 0.214166
H	 -3.506805	 0.900243	 -0.998158
H	 -3.148467	 1.250072	 2.020550
H	 -4.131771	 2.267063	 0.983618
H	 -2.387568	 2.252736	 0.798833
C	 4.024888	 -0.184556	 -0.001949
H	 4.179030	 0.422472	 -0.882452
H	 4.701782	 -1.024608	 -0.003642
H	 4.181981	 0.421185	 0.878906

	symmetry c1
}
set optking {
	frozen_dihedral = ("
		15 11 8 12
	")
}

ee = optimize('scf')
oeprop('DIPOLE', 'QUADRUPOLE', 'MULLIKEN_CHARGES')
f=open( 'psi4out.xyz', 'w' )
f.write( "23  " )
f.write( str(ee) + "\n" )
f.write( MOL.save_string_xyz() )
f.close()
--------------------------------------------------------------------------

    Molecular point group: c1
  Charge       = 0
  Multiplicity = 1
  Basis Set: 6-31G*
  Basis Set:
  @DF-RHF Final Energy:  -422.97180632626913
    Total Energy =                       -422.9718063262682790
    Molecular point group: c1
  Basis Set: 6-31G*
  Basis Set:
  Basis Set: 6-31G*
  Basis Set:
  @DF-RHF Final Energy:  -422.97243265188536
    Total Energy =                       -422.9724326518858106
  Basis Set: 6-31G*
  Basis Set:
  Basis Set: 6-31G*
  Basis Set:
  @DF-RHF Final Energy:  -422.97339322930844
    Total Energy =                       -422.9733932293084990
  Basis Set: 6-31G*
  Basis Set:
  Basis Set: 6-31G*
  Basis Set:
  @DF-RHF Final Energy:  -422.97259352993922
    Total Energy =                       -422.9725935299393313
  Basis Set: 6-31G*
  Basis Set:
  Basis Set: 6-31G*
  Basis Set:
  @DF-RHF Final Energy:  -422.97348432611557
    Total Energy =                       -422.9734843261160222
  Basis Set: 6-31G*
  Basis Set:
  Basis Set: 6-31G*
  Basis Set:
  @DF-RHF Final Energy:  -422.97351433677443
    Total Energy =                       -422.9735143367752244
  Basis Set: 6-31G*
  Basis Set:
  Basis Set: 6-31G*
  Basis Set:
  @DF-RHF Final Energy:  -422.97351622027423
    Total Energy =                       -422.9735162202744050
  Basis Set: 6-31G*
  Basis Set:
  Charge       = 0
  Multiplicity = 1
  Basis Set: 6-31G*
  Basis Set:

    Orbital Energies (a.u.)
    -----------------------

    Doubly Occupied:

       1A    -20.603578     2A    -20.545380     3A    -11.372176
       4A    -11.280817     5A    -11.235398     6A    -11.218700
       7A    -11.218104     8A    -11.216883     9A    -11.207399
      10A     -1.469260    11A     -1.362698    12A     -1.092840
      13A     -1.041488    14A     -0.984725    15A     -0.930860
      16A     -0.857331    17A     -0.780993    18A     -0.766361
      19A     -0.696615    20A     -0.683467    21A     -0.672141
      22A     -0.646457    23A     -0.612769    24A     -0.597744
      25A     -0.589803    26A     -0.560297    27A     -0.534240
      28A     -0.525152    29A     -0.518994    30A     -0.516271
      31A     -0.491048    32A     -0.464263    33A     -0.462105
      34A     -0.458827    35A     -0.454945    36A     -0.435437

  @DF-RHF Final Energy:  -422.97351662020475

   => Energetics <=

    Nuclear Repulsion Energy =            457.9665715106565926
    One-Electron Energy =               -1483.6690425562205746
    Two-Electron Energy =                 602.7289544253591203
    DFT Exchange-Correlation Energy =       0.0000000000000000
    Empirical Dispersion Energy =           0.0000000000000000
    PCM Polarization Energy =               0.0000000000000000
    EFP Energy =                            0.0000000000000000
    Total Energy =                       -422.9735166202048049
    Molecular point group: c1
  Basis Set: 6-31G*
  Basis Set:

  -Total Gradient:
     Atom            X                  Y                   Z
    ------   -----------------  -----------------  -----------------
       1        0.000002006321    -0.000000910472    -0.000009259911
       2       -0.000002181290    -0.000006943244     0.000016626304
       3        0.000005030373     0.000003066477     0.000037043094
       4        0.000008128273     0.000004296153     0.000002923262
       5        0.000024372109    -0.000000992896    -0.000036976236
       6       -0.000003365372     0.000002568261    -0.000008089132
       7        0.000005562261    -0.000001766469    -0.000010244722
       8       -0.002435989785    -0.003039502966     0.003372417720
       9        0.000002471565    -0.000011867790    -0.000001655252
      10       -0.000007081304    -0.000002472778    -0.000001863716
      11        0.000094195776    -0.000362661134    -0.005091743526
      12        0.002045458953     0.002647052707    -0.002065257941
      13       -0.000001056525    -0.000013523141    -0.000022209044
      14       -0.000003072111     0.000017207628    -0.000020957660
      15        0.000282767857     0.000786483327     0.003842976482
      16        0.000003363258    -0.000002609279     0.000017165165
      17        0.000006040220    -0.000021852623    -0.000012251476
      18       -0.000009138386     0.000004354069    -0.000000470647
      19       -0.000020127362     0.000001437595    -0.000005928620
      20        0.000002010661    -0.000001424210    -0.000002268371
      21        0.000000616050     0.000000009391    -0.000000081670
      22        0.000000170991     0.000000273320    -0.000000031506
      23       -0.000000182534    -0.000000221923     0.000000137402

  **** Optimization is complete! (in 8 steps) ****
    Final optimized geometry and variables:
    Molecular point group: c1

    Geometry (in Angstrom), charge = 0, multiplicity = 1:

    O            1.721953841324     1.062401321072    -0.058757186092
    C            1.562104882192    -0.114364775261    -0.112052805054
    C            0.227992305348    -0.820162858331    -0.121908833874
    O            2.565031354265    -0.981433327129    -0.171339145280
    C           -0.962174874732     0.132966829250    -0.061988933351
    H            0.194596984670    -1.438884555959    -1.014429481848
    H            0.220597551155    -1.511353414437     0.716706009599
    C           -2.295511766535    -0.621782406385    -0.055771240521
    H           -0.922817112405     0.807255335818    -0.912651837635
    H           -0.869514133085     0.753756897821     0.821215352822
    C           -3.538098360236     0.276306420180    -0.140236237331
    H           -2.301514828466    -1.289656495011    -0.914979536963
    H           -2.354366451816    -1.244458578327     0.834572959824
    C           -3.561764654283     1.435391223669     0.860115492675
    H           -4.413350055739    -0.339155877102     0.051928407018
    H           -3.636815592801     0.669045952204    -1.148866230915
    H           -3.427120124499     1.077946102953     1.877793401928
    H           -4.514540551645     1.954084823335     0.817831738292
    H           -2.784823439563     2.164745217442     0.659452091488
    C            3.876721009323    -0.448085967236    -0.169042383051
    H            4.026087421767     0.197273722220    -1.022692997364
    H            4.540549033756    -1.296949228094    -0.221341050310
    H            4.057201138794     0.113225288317     0.736428027996

  Mulliken Charges: (a.u.)
   Center  Symbol    Alpha    Beta     Spin     Total
       1     O     4.28623  4.28623  0.00000 -0.57245
       2     C     2.60511  2.60511  0.00000  0.78978
       3     C     3.20770  3.20770  0.00000 -0.41541
       4     O     4.30722  4.30722  0.00000 -0.61443
       5     C     3.15557  3.15557  0.00000 -0.31114
       6     H     0.40087  0.40087  0.00000  0.19826
       7     H     0.40077  0.40077  0.00000  0.19846
       8     C     3.15477  3.15477  0.00000 -0.30955
       9     H     0.41288  0.41288  0.00000  0.17425
      10     H     0.40867  0.40867  0.00000  0.18265
      11     C     3.15133  3.15133  0.00000 -0.30266
      12     H     0.42282  0.42282  0.00000  0.15436
      13     H     0.42319  0.42319  0.00000  0.15361
      14     C     3.24412  3.24412  0.00000 -0.48824
      15     H     0.42077  0.42077  0.00000  0.15845
      16     H     0.42134  0.42134  0.00000  0.15731
      17     H     0.42263  0.42263  0.00000  0.15473
      18     H     0.41899  0.41899  0.00000  0.16201
      19     H     0.41596  0.41596  0.00000  0.16808
      20     C     3.09242  3.09242  0.00000 -0.18485
      21     H     0.40909  0.40909  0.00000  0.18182
      22     H     0.40843  0.40843  0.00000  0.18314
      23     H     0.40909  0.40909  0.00000  0.18181

   Total alpha = 36.00000, Total beta = 36.00000, Total charge = -0.00000
