  ==> Input File <==

--------------------------------------------------------------------------
set {
	reference rhf
	basis 6-31G*
}

set_num_threads( 4 )
memory 2 gb

molecule MOL {
0 1

H	 -1.007527	 2.152369	 -1.124807
C	 -0.843041	 1.206732	 -0.647187
C	 -1.916003	 0.472756	 -0.040923
C	 0.382407	 0.668925	 -0.597599
H	 -2.912012	 0.878305	 -0.064186
C	 -1.685747	 -0.708140	 0.550625
H	 1.238220	 1.154177	 -1.027156
N	 0.640212	 -0.532897	 -0.000111
H	 -2.462618	 -1.284568	 1.013828
C	 -0.352169	 -1.293168	 0.604409
C	 2.010177	 -1.032049	 0.000042
O	 -0.103899	 -2.351584	 1.126255
H	 2.187698	 -1.635381	 -0.882279
H	 2.677579	 -0.189247	 -0.001871
H	 2.188882	 -1.632203	 0.884288

	symmetry c1
}
set optking {
	frozen_dihedral = ("
		10 8 11 13
	")
}

ee = optimize('scf')
oeprop('DIPOLE', 'QUADRUPOLE', 'MULLIKEN_CHARGES')
f=open( 'psi4out.xyz', 'w' )
f.write( "15  " )
f.write( str(ee) + "\n" )
f.write( MOL.save_string_xyz() )
f.close()
--------------------------------------------------------------------------

    Molecular point group: c1
  Charge       = 0
  Multiplicity = 1
  Basis Set: 6-31G*
  Basis Set:
  @DF-RHF Final Energy:  -360.59582467413571
    Total Energy =                       -360.5958246741356561
    Molecular point group: c1
  Basis Set: 6-31G*
  Basis Set:
  Basis Set: 6-31G*
  Basis Set:
  @DF-RHF Final Energy:  -360.59612670874498
    Total Energy =                       -360.5961267087449187
  Basis Set: 6-31G*
  Basis Set:
  Basis Set: 6-31G*
  Basis Set:
  @DF-RHF Final Energy:  -360.59616095311117
    Total Energy =                       -360.5961609531111662
  Basis Set: 6-31G*
  Basis Set:
  Basis Set: 6-31G*
  Basis Set:
  @DF-RHF Final Energy:  -360.59615145016198
    Total Energy =                       -360.5961514501620968
  Basis Set: 6-31G*
  Basis Set:
  Charge       = 0
  Multiplicity = 1
  Basis Set: 6-31G*
  Basis Set:

    Orbital Energies (a.u.)
    -----------------------

    Doubly Occupied:

       1A    -20.508727     2A    -15.621851     3A    -11.342510
       4A    -11.297286     5A    -11.265524     6A    -11.260382
       7A    -11.233297     8A    -11.228993     9A     -1.384642
      10A     -1.281011    11A     -1.114839    12A     -1.025993
      13A     -0.970176    14A     -0.872476    15A     -0.835522
      16A     -0.715709    17A     -0.697964    18A     -0.661044
      19A     -0.648260    20A     -0.622241    21A     -0.606556
      22A     -0.572860    23A     -0.550836    24A     -0.547270
      25A     -0.526945    26A     -0.476957    27A     -0.414093
      28A     -0.405570    29A     -0.304845

  @DF-RHF Final Energy:  -360.59617616328046

   => Energetics <=

    Nuclear Repulsion Energy =            357.7571199645542492
    One-Electron Energy =               -1198.7178346037362644
    Two-Electron Energy =                 480.3645384759015542
    DFT Exchange-Correlation Energy =       0.0000000000000000
    Empirical Dispersion Energy =           0.0000000000000000
    PCM Polarization Energy =               0.0000000000000000
    EFP Energy =                            0.0000000000000000
    Total Energy =                       -360.5961761632804610
    Molecular point group: c1
  Basis Set: 6-31G*
  Basis Set:

  -Total Gradient:
     Atom            X                  Y                   Z
    ------   -----------------  -----------------  -----------------
       1       -0.000004519027     0.000002247076     0.000001065716
       2        0.000079079563    -0.000029975225    -0.000015346905
       3       -0.000049612165    -0.000048006456     0.000042974324
       4       -0.000069372280     0.000133881038    -0.000018120024
       5        0.000002207590     0.000002127302    -0.000004164678
       6       -0.000060671038     0.000051769475    -0.000020764759
       7       -0.000001498171    -0.000022637284    -0.000003834467
       8       -0.000106971960    -0.000338069537    -0.000849331771
       9        0.000002882903    -0.000007304984     0.000001293713
      10        0.000251289127     0.000350562432     0.000493379192
      11       -0.000273117128    -0.000722529585     0.000733983677
      12       -0.000038155526    -0.000035050314     0.000021945003
      13        0.000239103487     0.000623020160    -0.000360122493
      14        0.000018546091     0.000034602006    -0.000004820144
      15        0.000010808534     0.000005363899    -0.000018136384

  **** Optimization is complete! (in 5 steps) ****
    Final optimized geometry and variables:
    Molecular point group: c1

    Geometry (in Angstrom), charge = 0, multiplicity = 1:

    H           -0.846361930418     2.637843507955    -1.274785596196
    C           -0.674517739156     1.696183282534    -0.792052065327
    C           -1.740810647322     0.961344691189    -0.176151193279
    C            0.556069257771     1.168811242708    -0.740872030001
    H           -2.738465960215     1.362882161259    -0.197238822905
    C           -1.502844806616    -0.215109772661     0.422033287466
    H            1.406171579831     1.658912620852    -1.174913632006
    N            0.822143061521    -0.024540793430    -0.131550563090
    H           -2.274867800445    -0.793363681421     0.891274839605
    C           -0.167312821280    -0.794589550877     0.463286530468
    C            2.182855248717    -0.547932763126    -0.130552692497
    O            0.094209795332    -1.859225447665     0.965902691752
    H            2.366800012135    -1.144810155481    -1.016184109736
    H            2.881547436050     0.277540563686    -0.108252930707
    H            2.320132363783    -1.163876703567     0.741117007434

  Mulliken Charges: (a.u.)
   Center  Symbol    Alpha    Beta     Spin     Total
       1     H     0.39297  0.39297  0.00000  0.21406
       2     C     3.16196  3.16196  0.00000 -0.32392
       3     C     3.05827  3.05827  0.00000 -0.11654
       4     C     2.92129  2.92129  0.00000  0.15742
       5     H     0.39087  0.39087  0.00000  0.21825
       6     C     3.16967  3.16967  0.00000 -0.33933
       7     H     0.38784  0.38784  0.00000  0.22431
       8     N     3.86473  3.86473  0.00000 -0.72946
       9     H     0.38641  0.38641  0.00000  0.22718
      10     C     2.59532  2.59532  0.00000  0.80937
      11     C     3.14679  3.14679  0.00000 -0.29358
      12     O     4.32180  4.32180  0.00000 -0.64360
      13     H     0.40597  0.40597  0.00000  0.18806
      14     H     0.41436  0.41436  0.00000  0.17129
      15     H     0.38175  0.38175  0.00000  0.23651

   Total alpha = 29.00000, Total beta = 29.00000, Total charge = -0.00000
