  ==> Input File <==

--------------------------------------------------------------------------
set {
	reference rhf
	basis 6-31G*
}

set_num_threads( 1 )
memory 2 gb

molecule MOL {
0 1

H	 -2.243329	 -0.112287	 1.026291
O	 -2.035884	 -0.060112	 0.102722
C	 -0.955155	 0.788182	 -0.092531
C	 0.353668	 0.040312	 -0.004810
H	 -0.985057	 1.290372	 -1.054184
H	 -0.974469	 1.533190	 0.688632
F	 0.394464	 -0.937475	 -0.903053
F	 1.368604	 0.853376	 -0.249821
F	 0.546173	 -0.502608	 1.179981

	symmetry c1
}
set optking {
	frozen_dihedral = ("
		7 4 3 5
	")
}

ee = energy('scf')
oeprop('DIPOLE', 'QUADRUPOLE', 'MULLIKEN_CHARGES')
f=open( 'psi4out.xyz', 'w' )
f.write( "9  " )
f.write( str(ee) + "\n" )
f.write( MOL.save_string_xyz() )
f.close()
--------------------------------------------------------------------------

    Molecular point group: c1

    Geometry (in Angstrom), charge = 0, multiplicity = 1:

       Center              X                  Y                   Z               Mass
    ------------   -----------------  -----------------  -----------------  -----------------
           H         -2.241874342114    -0.117950593245     1.009734885134     1.007825032070
           O         -2.034429342114    -0.065775593245     0.086165885134    15.994914619560
           C         -0.953700342114     0.782518406755    -0.109087114866    12.000000000000
           C          0.355122657886     0.034648406755    -0.021366114866    12.000000000000
           H         -0.983602342114     1.284708406755    -1.070740114866     1.007825032070
           H         -0.973014342114     1.527526406755     0.672075885134     1.007825032070
           F          0.395918657886    -0.943138593245    -0.919609114866    18.998403224000
           F          1.370058657886     0.847712406755    -0.266377114866    18.998403224000
           F          0.547627657886    -0.508271593245     1.163424885134    18.998403224000

  Charge       = 0
  Multiplicity = 1
  Basis Set: 6-31G*
  Basis Set:

    Orbital Energies (a.u.)
    -----------------------

    Doubly Occupied:

       1A    -26.342518     2A    -26.341062     3A    -26.330592
       4A    -20.589779     5A    -11.496859     6A    -11.310582
       7A     -1.736569     8A     -1.638440     9A     -1.628740
      10A     -1.402616    11A     -1.047060    12A     -0.920624
      13A     -0.826708    14A     -0.825292    15A     -0.796794
      16A     -0.733154    17A     -0.709019    18A     -0.695980
      19A     -0.664852    20A     -0.652629    21A     -0.638125
      22A     -0.633675    23A     -0.605815    24A     -0.528993
      25A     -0.479639

  @DF-RHF Final Energy:  -450.65996794185946

   => Energetics <=

    Nuclear Repulsion Energy =            276.7283532521383904
    One-Electron Energy =               -1175.6244190680772590
    Two-Electron Energy =                 448.2360978740794053
    DFT Exchange-Correlation Energy =       0.0000000000000000
    Empirical Dispersion Energy =           0.0000000000000000
    PCM Polarization Energy =               0.0000000000000000
    EFP Energy =                            0.0000000000000000
    Total Energy =                       -450.6599679418594633

  Mulliken Charges: (a.u.)
   Center  Symbol    Alpha    Beta     Spin     Total
       1     H     0.27109  0.27109  0.00000  0.45782
       2     O     4.36096  4.36096  0.00000 -0.72192
       3     C     3.05796  3.05796  0.00000 -0.11591
       4     C     2.45897  2.45897  0.00000  1.08205
       5     H     0.39626  0.39626  0.00000  0.20749
       6     H     0.41161  0.41161  0.00000  0.17678
       7     F     4.68078  4.68078  0.00000 -0.36155
       8     F     4.68231  4.68231  0.00000 -0.36462
       9     F     4.68006  4.68006  0.00000 -0.36013

   Total alpha = 25.00000, Total beta = 25.00000, Total charge =  0.00000
