  ==> Input File <==

--------------------------------------------------------------------------
set {
	reference rhf
	basis 6-31G*
}

set_num_threads( 4 )
memory 2 gb

molecule MOL {
0 1

O	 -0.682937	 1.318834	 -0.186099
C	 -0.860635	 0.152188	 -0.042321
C	 -2.173363	 -0.477127	 0.338347
O	 0.083258	 -0.765189	 -0.202595
H	 -2.477673	 -1.180929	 -0.427595
H	 -2.923125	 0.290956	 0.455536
H	 -2.058825	 -1.029004	 1.264191
C	 1.391937	 -0.334737	 -0.569838
C	 2.456622	 -1.004113	 0.279296
H	 1.446707	 0.740481	 -0.492071
H	 1.489270	 -0.618701	 -1.607812
H	 3.442236	 -0.715610	 -0.072925
H	 2.365933	 -0.707217	 1.316598
H	 2.373875	 -2.083591	 0.213750

	symmetry c1
}
set optking {
	frozen_dihedral = ("
		10 8 4 2
	")
}

ee = optimize('scf')
oeprop('DIPOLE', 'QUADRUPOLE', 'MULLIKEN_CHARGES')
f=open( 'psi4out.xyz', 'w' )
f.write( "14  " )
f.write( str(ee) + "\n" )
f.write( MOL.save_string_xyz() )
f.close()
--------------------------------------------------------------------------

    Molecular point group: c1
  Charge       = 0
  Multiplicity = 1
  Basis Set: 6-31G*
  Basis Set:
  @DF-RHF Final Energy:  -305.87350247385621
    Total Energy =                       -305.8735024738563766
    Molecular point group: c1
  Basis Set: 6-31G*
  Basis Set:
  Basis Set: 6-31G*
  Basis Set:
  @DF-RHF Final Energy:  -305.87409586431329
    Total Energy =                       -305.8740958643128351
  Basis Set: 6-31G*
  Basis Set:
  Basis Set: 6-31G*
  Basis Set:
  @DF-RHF Final Energy:  -305.87429939204765
    Total Energy =                       -305.8742993920476465
  Basis Set: 6-31G*
  Basis Set:
  Basis Set: 6-31G*
  Basis Set:
  @DF-RHF Final Energy:  -305.87424901544284
    Total Energy =                       -305.8742490154427855
  Basis Set: 6-31G*
  Basis Set:
  Basis Set: 6-31G*
  Basis Set:
  @DF-RHF Final Energy:  -305.87430226858214
    Total Energy =                       -305.8743022685819710
  Basis Set: 6-31G*
  Basis Set:
  Charge       = 0
  Multiplicity = 1
  Basis Set: 6-31G*
  Basis Set:

    Orbital Energies (a.u.)
    -----------------------

    Doubly Occupied:

       1A    -20.601344     2A    -20.543887     3A    -11.376221
       4A    -11.284015     5A    -11.232887     6A    -11.222632
       7A     -1.466004     8A     -1.363128     9A     -1.057507
      10A     -0.999737    11A     -0.875703    12A     -0.776043
      13A     -0.696374    14A     -0.682669    15A     -0.660720
      16A     -0.611734    17A     -0.581630    18A     -0.563193
      19A     -0.561862    20A     -0.533713    21A     -0.515738
      22A     -0.497574    23A     -0.449188    24A     -0.438956

  @DF-RHF Final Energy:  -305.87430267170828

   => Energetics <=

    Nuclear Repulsion Energy =            245.8312876444379924
    One-Electron Energy =                -904.2262600977863940
    Two-Electron Energy =                 352.5206697816400947
    DFT Exchange-Correlation Energy =       0.0000000000000000
    Empirical Dispersion Energy =           0.0000000000000000
    PCM Polarization Energy =               0.0000000000000000
    EFP Energy =                            0.0000000000000000
    Total Energy =                       -305.8743026717082785
    Molecular point group: c1
  Basis Set: 6-31G*
  Basis Set:

  -Total Gradient:
     Atom            X                  Y                   Z
    ------   -----------------  -----------------  -----------------
       1        0.000017202110    -0.000005115771    -0.000008626729
       2        0.000171744724     0.000039188464     0.000613075239
       3       -0.000018543507    -0.000004420980    -0.000036667295
       4       -0.000252953208    -0.000040275786    -0.001005157901
       5        0.000000332447    -0.000004362381     0.000010036647
       6       -0.000002617124    -0.000000804780     0.000002058667
       7        0.000005814712     0.000008920454     0.000006886889
       8        0.000296991239    -0.000092068765     0.001054404578
       9        0.000004588828     0.000022524132    -0.000000659851
      10       -0.000208707362     0.000066906949    -0.000632186591
      11        0.000004863942     0.000010040234    -0.000004963289
      12       -0.000010619705    -0.000001537084     0.000005512840
      13        0.000001028598     0.000003282717     0.000005664780
      14       -0.000009125695    -0.000002277404    -0.000009377984

  **** Optimization is complete! (in 6 steps) ****
    Final optimized geometry and variables:
    Molecular point group: c1

    Geometry (in Angstrom), charge = 0, multiplicity = 1:

    O           -0.755312524554     1.513606017877    -0.134584544315
    C           -0.900023522881     0.344177639229     0.018083499708
    C           -2.189126867016    -0.312705968055     0.432613389946
    O            0.056941873548    -0.558264264143    -0.156073218840
    H           -2.497720522665    -1.022655866027    -0.325987135712
    H           -2.951829374393     0.439407368332     0.568329417344
    H           -2.039802160035    -0.862171873334     1.354844086529
    C            1.366246758376    -0.137442539417    -0.532588648551
    C            2.373596081358    -0.835466571457     0.358969040158
    H            1.433403065904     0.935213044972    -0.456721350771
    H            1.504091348188    -0.417890658374    -1.569270961271
    H            3.381892148455    -0.568879136116     0.058155611756
    H            2.237036670380    -0.543212618783     1.394302326844
    H            2.268894324756    -1.912242855942     0.290185911568

  Mulliken Charges: (a.u.)
   Center  Symbol    Alpha    Beta     Spin     Total
       1     O     4.28265  4.28265  0.00000 -0.56530
       2     C     2.62025  2.62025  0.00000  0.75949
       3     C     3.28229  3.28229  0.00000 -0.56457
       4     O     4.30782  4.30782  0.00000 -0.61564
       5     H     0.40038  0.40038  0.00000  0.19925
       6     H     0.39713  0.39713  0.00000  0.20574
       7     H     0.40080  0.40080  0.00000  0.19839
       8     C     3.01103  3.01103  0.00000 -0.02205
       9     C     3.24692  3.24692  0.00000 -0.49385
      10     H     0.39419  0.39419  0.00000  0.21163
      11     H     0.41450  0.41450  0.00000  0.17100
      12     H     0.41706  0.41706  0.00000  0.16588
      13     H     0.41319  0.41319  0.00000  0.17362
      14     H     0.41179  0.41179  0.00000  0.17642

   Total alpha = 24.00000, Total beta = 24.00000, Total charge = -0.00000
