  ==> Input File <==

--------------------------------------------------------------------------
set {
	reference rhf
	basis 6-31G*
}

set_num_threads( 4 )
memory 2 gb

molecule MOL {
0 1

H	 -1.142640	 0.023414	 -0.948585
C	 -0.790252	 0.431209	 0.000000
N	 0.538815	 0.649616	 0.000000
O	 -1.533642	 0.645243	 0.911466
C	 1.521968	 -0.411503	 0.000000
H	 0.852804	 1.592852	 0.000000
H	 2.150599	 -0.357004	 -0.881901
H	 0.999455	 -1.354525	 0.000000
H	 2.150599	 -0.357004	 0.881901

	symmetry c1
}
set optking {
	frozen_dihedral = ("
		1 2 3 6
	")
}

ee = optimize('scf')
oeprop('DIPOLE', 'QUADRUPOLE', 'MULLIKEN_CHARGES')
f=open( 'psi4out.xyz', 'w' )
f.write( "9  " )
f.write( str(ee) + "\n" )
f.write( MOL.save_string_xyz() )
f.close()
--------------------------------------------------------------------------

    Molecular point group: c1
  Charge       = 0
  Multiplicity = 1
  Basis Set: 6-31G*
  Basis Set:
  @DF-RHF Final Energy:  -207.92246671541290
    Total Energy =                       -207.9224667154128952
    Molecular point group: c1
  Basis Set: 6-31G*
  Basis Set:
  Basis Set: 6-31G*
  Basis Set:
  @DF-RHF Final Energy:  -207.92748040237893
    Total Energy =                       -207.9274804023789329
  Basis Set: 6-31G*
  Basis Set:
  Basis Set: 6-31G*
  Basis Set:
  @DF-RHF Final Energy:  -207.93177776792442
    Total Energy =                       -207.9317777679244443
  Basis Set: 6-31G*
  Basis Set:
  Basis Set: 6-31G*
  Basis Set:
  @DF-RHF Final Energy:  -207.93776186472206
    Total Energy =                       -207.9377618647220345
  Basis Set: 6-31G*
  Basis Set:
  @DF-RHF Final Energy:  -207.93905457759587
    Total Energy =                       -207.9390545775958969
  @DF-RHF Final Energy:  -207.93963816778762
    Total Energy =                       -207.9396381677876207
  @DF-RHF Final Energy:  -207.94024625701093
    Total Energy =                       -207.9402462570109265
  @DF-RHF Final Energy:  -207.94075012449292
    Total Energy =                       -207.9407501244928937
  Basis Set: 6-31G*
  Basis Set:
  @DF-RHF Final Energy:  -207.94104789802620
    Total Energy =                       -207.9410478980262553
  Basis Set: 6-31G*
  Basis Set:
  Basis Set: 6-31G*
  Basis Set:
  @DF-RHF Final Energy:  -207.94121689902724
    Total Energy =                       -207.9412168990272960
  Basis Set: 6-31G*
  Basis Set:
  Basis Set: 6-31G*
  Basis Set:
  @DF-RHF Final Energy:  -207.94124100591750
    Total Energy =                       -207.9412410059175613
  Basis Set: 6-31G*
  Basis Set:
  Charge       = 0
  Multiplicity = 1
  Basis Set: 6-31G*
  Basis Set:

    Orbital Energies (a.u.)
    -----------------------

    Doubly Occupied:

       1A    -20.554066     2A    -15.579946     3A    -11.352609
       4A    -11.267284     5A     -1.410201     6A     -1.234698
       7A     -0.950139     8A     -0.833487     9A     -0.703667
      10A     -0.674544    11A     -0.643456    12A     -0.582393
      13A     -0.564473    14A     -0.532947    15A     -0.440219
      16A     -0.403375

  @DF-RHF Final Energy:  -207.94124535681306

   => Energetics <=

    Nuclear Repulsion Energy =            120.1408187280374449
    One-Electron Energy =                -520.7091163201955624
    Two-Electron Energy =                 192.6270522353451042
    DFT Exchange-Correlation Energy =       0.0000000000000000
    Empirical Dispersion Energy =           0.0000000000000000
    PCM Polarization Energy =               0.0000000000000000
    EFP Energy =                            0.0000000000000000
    Total Energy =                       -207.9412453568129990
    Molecular point group: c1
  Basis Set: 6-31G*
  Basis Set:

  -Total Gradient:
     Atom            X                  Y                   Z
    ------   -----------------  -----------------  -----------------
       1        0.002001512707     0.010047843996    -0.006417146189
       2       -0.001306261406    -0.014101671522     0.005795605990
       3       -0.005820247835     0.007000310167     0.012111690606
       4        0.000032522839    -0.000006510775    -0.000042309146
       5        0.000076154351    -0.000139117988    -0.000035123320
       6        0.005033316279    -0.002910991536    -0.011395254297
       7        0.000017695180     0.000006539606    -0.000005982928
       8        0.000006025276     0.000063137971     0.000004880828
       9       -0.000040717385     0.000040460082    -0.000016361545

  **** Optimization is complete! (in 12 steps) ****
    Final optimized geometry and variables:
    Molecular point group: c1

    Geometry (in Angstrom), charge = 0, multiplicity = 1:

    H           -0.736466131649    -0.527757014755    -1.159682164110
    C           -0.662560206179     0.047398417188    -0.231531777320
    N            0.619655776685     0.132839834911     0.304243922647
    O           -1.597641238411     0.639332955308     0.192338516027
    C            1.584392972441    -0.826410799729    -0.216560570259
    H            0.974708070887     1.064524243322     0.215366127207
    H            1.736302810397    -0.756263195090    -1.293175828585
    H            1.260899930828    -1.832260106442     0.018618720756
    H            2.534461922839    -0.665078094722     0.274408507587

  Mulliken Charges: (a.u.)
   Center  Symbol    Alpha    Beta     Spin     Total
       1     H     0.43019  0.43019  0.00000  0.13962
       2     C     2.75808  2.75808  0.00000  0.48384
       3     N     3.85631  3.85631  0.00000 -0.71263
       4     O     4.24870  4.24870  0.00000 -0.49741
       5     C     3.16300  3.16300  0.00000 -0.32601
       6     H     0.31066  0.31066  0.00000  0.37867
       7     H     0.42221  0.42221  0.00000  0.15559
       8     H     0.40652  0.40652  0.00000  0.18696
       9     H     0.40432  0.40432  0.00000  0.19135

   Total alpha = 16.00000, Total beta = 16.00000, Total charge =  0.00000
