  ==> Input File <==

--------------------------------------------------------------------------
set {
	reference rhf
	basis 6-31G*
}

set_num_threads( 4 )
memory 2 gb

molecule MOL {
0 1

H	 3.300087	 -0.428459	 0.020682
C	 2.240138	 -0.247047	 0.016235
C	 1.529500	 -0.337906	 -1.174394
C	 1.592013	 0.075592	 1.196836
H	 2.039720	 -0.588831	 -2.086665
C	 0.168182	 -0.105551	 -1.183661
H	 2.145030	 0.144953	 2.115860
C	 0.226281	 0.308464	 1.186216
H	 -0.399151	 -0.170731	 -2.093076
C	 -0.488460	 0.219100	 0.000000
H	 -0.283174	 0.559657	 2.100713
C	 -1.949954	 0.470334	 0.000000
O	 -2.781584	 -0.381627	 0.000000
H	 -2.238022	 1.526388	 0.000000

	symmetry c1
}
set optking {
	frozen_dihedral = ("
		8 10 12 14
	")
}

ee = optimize('scf')
oeprop('DIPOLE', 'QUADRUPOLE', 'MULLIKEN_CHARGES')
f=open( 'psi4out.xyz', 'w' )
f.write( "14  " )
f.write( str(ee) + "\n" )
f.write( MOL.save_string_xyz() )
f.close()
--------------------------------------------------------------------------

    Molecular point group: c1
  Charge       = 0
  Multiplicity = 1
  Basis Set: 6-31G*
  Basis Set:
  @DF-RHF Final Energy:  -343.41886804359171
    Total Energy =                       -343.4188680435916012
    Molecular point group: c1
  Basis Set: 6-31G*
  Basis Set:
  Basis Set: 6-31G*
  Basis Set:
  @DF-RHF Final Energy:  -343.41847909620543
    Total Energy =                       -343.4184790962055445
  Basis Set: 6-31G*
  Basis Set:
  Basis Set: 6-31G*
  Basis Set:
  @DF-RHF Final Energy:  -343.41913229973193
    Total Energy =                       -343.4191322997320412
  Basis Set: 6-31G*
  Basis Set:
  Basis Set: 6-31G*
  Basis Set:
  @DF-RHF Final Energy:  -343.41935435759984
    Total Energy =                       -343.4193543576000138
  Basis Set: 6-31G*
  Basis Set:
  Charge       = 0
  Multiplicity = 1
  Basis Set: 6-31G*
  Basis Set:

    Orbital Energies (a.u.)
    -----------------------

    Doubly Occupied:

       1A    -20.572660     2A    -11.336079     3A    -11.251266
       4A    -11.247547     5A    -11.246499     6A    -11.243984
       7A    -11.243230     8A    -11.242125     9A     -1.411598
      10A     -1.168718    11A     -1.044376    12A     -1.028661
      13A     -0.886659    14A     -0.840453    15A     -0.794649
      16A     -0.720397    17A     -0.676679    18A     -0.651287
      19A     -0.639449    20A     -0.616293    21A     -0.600278
      22A     -0.533348    23A     -0.528189    24A     -0.511380
      25A     -0.501533    26A     -0.421917    27A     -0.346453
      28A     -0.345686

  @DF-RHF Final Energy:  -343.41935583584581

   => Energetics <=

    Nuclear Repulsion Energy =            322.4097683533225904
    One-Electron Energy =               -1104.3554639063033846
    Two-Electron Energy =                 438.5263397171351585
    DFT Exchange-Correlation Energy =       0.0000000000000000
    Empirical Dispersion Energy =           0.0000000000000000
    PCM Polarization Energy =               0.0000000000000000
    EFP Energy =                            0.0000000000000000
    Total Energy =                       -343.4193558358456926
    Molecular point group: c1
  Basis Set: 6-31G*
  Basis Set:

  -Total Gradient:
     Atom            X                  Y                   Z
    ------   -----------------  -----------------  -----------------
       1       -0.000004017308    -0.000024341404    -0.000017005697
       2        0.000020344304     0.000068453610     0.000171069831
       3       -0.000137703292     0.000099566445    -0.000086964371
       4        0.000155546254    -0.000109758349    -0.000087436646
       5        0.000014939841    -0.000025073882     0.000013765694
       6        0.000111543450    -0.000110291106    -0.000039734095
       7       -0.000006130943     0.000005525367     0.000004101780
       8       -0.000655038965    -0.002762862599     0.000381517052
       9       -0.000004680310     0.000017241602     0.000014306346
      10        0.000703861257     0.004195828292    -0.001745098548
      11        0.000001468015    -0.000010087450    -0.000001446564
      12       -0.000310165440    -0.001414984469     0.004920514152
      13        0.000049255783     0.000019171011     0.000017821817
      14        0.000060777350     0.000051612933    -0.003545410751

  **** Optimization is complete! (in 5 steps) ****
    Final optimized geometry and variables:
    Molecular point group: c1

    Geometry (in Angstrom), charge = 0, multiplicity = 1:

    H            3.302922640063    -0.441529636525     0.015688858830
    C            2.244875302230    -0.250494996685     0.013734128808
    C            1.527126124568    -0.335368942456    -1.168751452375
    C            1.596745938371     0.075375316330     1.193951978495
    H            2.026332927125    -0.595261773249    -2.084780804781
    C            0.162953506196    -0.097118340358    -1.172035068965
    H            2.148632561091     0.132637635101     2.114808821881
    C            0.234207922030     0.325748790327     1.190794238784
    H           -0.396130508192    -0.180339184860    -2.086933300716
    C           -0.485084832337     0.245518742128     0.006749080892
    H           -0.265598056480     0.578570736419     2.109732695700
    C           -1.968042339468     0.477914146866     0.004512085910
    O           -2.770486348451    -0.395371231270    -0.057203328453
    H           -2.291253956046     1.522996080950     0.018306791799

  Mulliken Charges: (a.u.)
   Center  Symbol    Alpha    Beta     Spin     Total
       1     H     0.39591  0.39591  0.00000  0.20819
       2     C     3.09813  3.09813  0.00000 -0.19625
       3     C     3.09847  3.09847  0.00000 -0.19694
       4     C     3.09818  3.09818  0.00000 -0.19635
       5     H     0.39522  0.39522  0.00000  0.20956
       6     C     3.10154  3.10154  0.00000 -0.20309
       7     H     0.39541  0.39541  0.00000  0.20919
       8     C     3.10480  3.10480  0.00000 -0.20960
       9     H     0.39039  0.39039  0.00000  0.21923
      10     C     3.03045  3.03045  0.00000 -0.06089
      11     H     0.39331  0.39331  0.00000  0.21337
      12     C     2.85393  2.85393  0.00000  0.29214
      13     O     4.22111  4.22111  0.00000 -0.44222
      14     H     0.42316  0.42316  0.00000  0.15367

   Total alpha = 28.00000, Total beta = 28.00000, Total charge = -0.00000
