                              Psi4 1.0.54 Driver

  ==> Input File <==

--------------------------------------------------------------------------
set {
	reference rhf
	basis cc-pvtz
}

set_num_threads( 4 )
memory 2 gb

molecule MOL {
0 1

H	 3.768929	 0.549656	 -0.702018
N	 2.986099	 -0.068792	 -0.684255
C	 1.860978	 0.530248	 0.016256
H	 3.283272	 -0.907032	 -0.229952
C	 0.644130	 -0.381765	 -0.031064
H	 1.624888	 1.467465	 -0.476485
H	 2.088168	 0.771721	 1.055501
C	 -0.678115	 0.376691	 0.025731
H	 0.693998	 -0.977147	 -0.936845
H	 0.693309	 -1.082142	 0.800523
C	 -1.900706	 -0.535531	 -0.022488
H	 -0.725296	 1.079516	 -0.802982
H	 -0.715474	 0.974884	 0.933278
C	 -3.220513	 0.226854	 0.028039
H	 -1.865036	 -1.134397	 -0.928236
H	 -1.857948	 -1.236381	 0.806820
H	 -3.309098	 0.911849	 -0.808725
H	 -4.066838	 -0.449485	 -0.008086
H	 -3.301685	 0.809374	 0.939860

	symmetry c1
}
set optking {
	frozen_dihedral = ("
		6 3 5 9
	")
}

ee,wfn = optimize('scf', return_wfn=True)
oeprop( wfn, 'DIPOLE', 'QUADRUPOLE', 'MULLIKEN_CHARGES')
f=open( 'psi4out.xyz', 'w' )
f.write( "19  " )
f.write( str(ee) + "\n" )
f.write( MOL.save_string_xyz() )
f.close()
--------------------------------------------------------------------------

    Molecular point group: c1
  Charge       = 0
  Multiplicity = 1
  Basis Set: CC-PVTZ
  Basis Set:
  @DF-RHF Final Energy:  -251.44546498022302
    Total Energy =                       -251.4454649802229937
    Molecular point group: c1
  Basis Set: CC-PVTZ
  Basis Set:
  Basis Set: CC-PVTZ
  Basis Set:
  @DF-RHF Final Energy:  -251.44573536405102
    Total Energy =                       -251.4457353640510746
  Basis Set: CC-PVTZ
  Basis Set:
  Basis Set: CC-PVTZ
  Basis Set:
  @DF-RHF Final Energy:  -251.44578107009249
    Total Energy =                       -251.4457810700922664
  Basis Set: CC-PVTZ
  Basis Set:
  Basis Set: CC-PVTZ
  Basis Set:
  @DF-RHF Final Energy:  -251.44578316551619
    Total Energy =                       -251.4457831655164455
  Basis Set: CC-PVTZ
  Basis Set:
  Charge       = 0
  Multiplicity = 1
  Basis Set: CC-PVTZ
  Basis Set:

    Orbital Energies (a.u.)
    -----------------------

    Doubly Occupied:

       1A    -15.527213     2A    -11.237830     3A    -11.211753
       4A    -11.210744     5A    -11.207585     6A    -11.205316
       7A     -1.178343     8A     -1.074136     9A     -0.999078
      10A     -0.900854    11A     -0.813975    12A     -0.790395
      13A     -0.657985    14A     -0.650612    15A     -0.615230
      16A     -0.593724    17A     -0.560023    18A     -0.548519
      19A     -0.537118    20A     -0.494094    21A     -0.481292
      22A     -0.464962    23A     -0.460023    24A     -0.452403
      25A     -0.383047

  @DF-RHF Final Energy:  -251.44578346099786

   => Energetics <=

    Nuclear Repulsion Energy =            245.9719605175958463
    One-Electron Energy =                -826.3229797444573705
    Two-Electron Energy =                 328.9052357658636652
    DFT Exchange-Correlation Energy =       0.0000000000000000
    Empirical Dispersion Energy =           0.0000000000000000
    PCM Polarization Energy =               0.0000000000000000
    EFP Energy =                            0.0000000000000000
    Total Energy =                       -251.4457834609979159
    Molecular point group: c1
  Basis Set: CC-PVTZ
  Basis Set:

  -Total Gradient:
     Atom            X                  Y                   Z
    ------   -----------------  -----------------  -----------------
       1        0.000056103642     0.000004559924    -0.000014978397
       2       -0.000074629783     0.000073478725     0.000028612144
       3        0.002159211501    -0.002721317815    -0.004452345029
       4        0.000012060966    -0.000026765537     0.000019169027
       5       -0.003085599390     0.004360485423    -0.001571572852
       6       -0.001344265979     0.001568751810     0.003893143451
       7        0.000024003125     0.000000561979     0.000040013417
       8        0.000044100901    -0.000054339443     0.000001469076
       9        0.002249322623    -0.003200396330     0.002018589431
      10       -0.000001950657    -0.000015287176     0.000018754867
      11       -0.000014796154     0.000030543102     0.000032834686
      12        0.000010451681    -0.000001496520     0.000007368369
      13        0.000000813471    -0.000012258873    -0.000001070389
      14       -0.000026720174    -0.000023153872    -0.000025388488
      15       -0.000000581648     0.000007269623     0.000004985502
      16        0.000003151505     0.000003707811     0.000001861472
      17       -0.000000168332     0.000008153735     0.000000437251
      18       -0.000018158507     0.000004048119    -0.000005301131
      19        0.000007651214    -0.000006544684     0.000003417593

  **** Optimization is complete! (in 5 steps) ****
    Final optimized geometry and variables:
    Molecular point group: c1

    Geometry (in Angstrom), charge = 0, multiplicity = 1:

    H            3.816360314941     0.512004462259    -0.567895542352
    N            3.016795469290    -0.082774638738    -0.624775735974
    C            1.879847421020     0.505662151781     0.063660148074
    H            3.271132296801    -0.953991244069    -0.207008486296
    C            0.652777210222    -0.401677628571    -0.001830705708
    H            1.650475818533     1.462658590350    -0.392716411663
    H            2.091959133220     0.728947235370     1.110709570436
    C           -0.667645816758     0.347614482548     0.131710405641
    H            0.688829479647    -0.966464940266    -0.927657754253
    H            0.721840245068    -1.143652730216     0.791712503256
    C           -1.886203084225    -0.570348170381     0.156816209534
    H           -0.764328632472     1.048976483184    -0.693204444158
    H           -0.653210775981     0.946556109775     1.040031580967
    C           -3.205246656562     0.186649017795     0.269920739130
    H           -1.894960982755    -1.176875339192    -0.744574539219
    H           -1.796459710498    -1.263384293666     0.988851599222
    H           -3.341146464361     0.863291426922    -0.567222786077
    H           -4.049021999236    -0.493718004545     0.284830845899
    H           -3.240845088740     0.777280148690     1.179467224576

  Mulliken Charges: (a.u.)
   Center  Symbol    Alpha    Beta     Spin     Total
       1     H     0.43082  0.43082  0.00000  0.13836
       2     N     3.68583  3.68583  0.00000 -0.37167
       3     C     3.02659  3.02659  0.00000 -0.05318
       4     H     0.43111  0.43111  0.00000  0.13778
       5     C     3.08756  3.08756  0.00000 -0.17512
       6     H     0.45950  0.45950  0.00000  0.08100
       7     H     0.46839  0.46839  0.00000  0.06322
       8     C     3.09036  3.09036  0.00000 -0.18073
       9     H     0.44936  0.44936  0.00000  0.10127
      10     H     0.45878  0.45878  0.00000  0.08244
      11     C     3.08394  3.08394  0.00000 -0.16787
      12     H     0.45329  0.45329  0.00000  0.09342
      13     H     0.45626  0.45626  0.00000  0.08748
      14     C     3.15007  3.15007  0.00000 -0.30014
      15     H     0.45375  0.45375  0.00000  0.09250
      16     H     0.45507  0.45507  0.00000  0.08986
      17     H     0.45498  0.45498  0.00000  0.09004
      18     H     0.44862  0.44862  0.00000  0.10277
      19     H     0.45571  0.45571  0.00000  0.08857

   Total alpha = 25.00000, Total beta = 25.00000, Total charge = -0.00000

*** Psi4 exiting successfully. Buy a developer a beer!
