                              Psi4 1.0.54 Driver

  ==> Input File <==

--------------------------------------------------------------------------
set {
	reference rhf
	basis cc-pvtz
}

set_num_threads( 4 )
memory 2 gb

molecule MOL {
0 1

H	 -3.162295	 0.493233	 -0.000107
C	 -2.364013	 -0.234699	 0.000005
O	 -1.158843	 0.454662	 -0.000087
H	 -2.464419	 -0.863588	 -0.882153
H	 -2.464432	 -0.863331	 0.882345
C	 -0.028716	 -0.359666	 0.000037
C	 1.212742	 0.509342	 -0.000053
H	 -0.034260	 -1.007019	 -0.877198
H	 -0.034300	 -1.006808	 0.877430
C	 2.497787	 -0.311030	 0.000090
H	 1.182084	 1.155395	 -0.870456
H	 1.182064	 1.155557	 0.870244
H	 2.560381	 -0.947911	 -0.876010
H	 3.367830	 0.333986	 -0.000109
H	 2.560504	 -0.947517	 0.876457

	symmetry c1
}
ee,wfn = energy('scf', return_wfn=True)
oeprop( wfn, 'DIPOLE', 'QUADRUPOLE', 'MULLIKEN_CHARGES')
oeprop( wfn, 'GRID_ESP')
f=open( 'psi4out.xyz', 'w' )
f.write( "15  " )
f.write( str(ee) + "\n" )
f.write( MOL.save_string_xyz() )
f.close()
--------------------------------------------------------------------------

    Molecular point group: c1

    Geometry (in Angstrom), charge = 0, multiplicity = 1:

       Center              X                  Y                   Z               Mass
    ------------   -----------------  -----------------  -----------------  -----------------
           H         -3.162190187379     0.493204731771    -0.000107039271     1.007825032070
           C         -2.363908187379    -0.234727268229     0.000004960729    12.000000000000
           O         -1.158738187379     0.454633731771    -0.000087039271    15.994914619560
           H         -2.464314187379    -0.863616268229    -0.882153039271     1.007825032070
           H         -2.464327187379    -0.863359268229     0.882344960729     1.007825032070
           C         -0.028611187379    -0.359694268229     0.000036960729    12.000000000000
           C          1.212846812621     0.509313731771    -0.000053039271    12.000000000000
           H         -0.034155187379    -1.007047268229    -0.877198039271     1.007825032070
           H         -0.034195187379    -1.006836268229     0.877429960729     1.007825032070
           C          2.497891812621    -0.311058268229     0.000089960729    12.000000000000
           H          1.182188812621     1.155366731771    -0.870456039271     1.007825032070
           H          1.182168812621     1.155528731771     0.870243960729     1.007825032070
           H          2.560485812621    -0.947939268229    -0.876010039271     1.007825032070
           H          3.367934812621     0.333957731771    -0.000109039271     1.007825032070
           H          2.560608812621    -0.947545268229     0.876456960729     1.007825032070

  Charge       = 0
  Multiplicity = 1
  Basis Set: CC-PVTZ
  Basis Set:

    Orbital Energies (a.u.)
    -----------------------

    Doubly Occupied:

       1A    -20.547596     2A    -11.264400     3A    -11.261771
       4A    -11.212770     5A    -11.210723     6A     -1.381836
       7A     -1.058495     8A     -0.956162     9A     -0.877395
      10A     -0.809580    11A     -0.677240    12A     -0.655933
      13A     -0.632279    14A     -0.608549    15A     -0.565259
      16A     -0.540922    17A     -0.503783    18A     -0.490406
      19A     -0.478397    20A     -0.462947    21A     -0.416871

  @DF-RHF Final Energy:  -232.22822339051658

   => Energetics <=

    Nuclear Repulsion Energy =            190.0068438123159353
    One-Electron Energy =                -691.2436131736894822
    Two-Electron Energy =                 269.0085459708571989
    DFT Exchange-Correlation Energy =       0.0000000000000000
    Empirical Dispersion Energy =           0.0000000000000000
    PCM Polarization Energy =               0.0000000000000000
    EFP Energy =                            0.0000000000000000
    Total Energy =                       -232.2282233905163480

  Mulliken Charges: (a.u.)
   Center  Symbol    Alpha    Beta     Spin     Total
       1     H     0.44685  0.44685  0.00000  0.10631
       2     C     3.03353  3.03353  0.00000 -0.06707
       3     O     4.17153  4.17153  0.00000 -0.34307
       4     H     0.47212  0.47212  0.00000  0.05577
       5     H     0.47212  0.47212  0.00000  0.05577
       6     C     2.95610  2.95610  0.00000  0.08780
       7     C     3.08015  3.08015  0.00000 -0.16031
       8     H     0.47583  0.47583  0.00000  0.04835
       9     H     0.47583  0.47583  0.00000  0.04834
      10     C     3.15583  3.15583  0.00000 -0.31167
      11     H     0.45109  0.45109  0.00000  0.09782
      12     H     0.45110  0.45110  0.00000  0.09781
      13     H     0.45583  0.45583  0.00000  0.08833
      14     H     0.44626  0.44626  0.00000  0.10747
      15     H     0.45583  0.45583  0.00000  0.08835

   Total alpha = 21.00000, Total beta = 21.00000, Total charge = -0.00000

*** Psi4 exiting successfully. Buy a developer a beer!
