  ==> Input File <==

--------------------------------------------------------------------------
set {
	reference rhf
	basis 6-31G*
}

set_num_threads( 4 )
memory 2 gb

molecule MOL {
0 1

H	 -3.448398	 -0.644163	 0.694648
O	 -3.116345	 -0.173231	 -0.057402
C	 -1.777121	 -0.063496	 -0.007364
C	 -1.028346	 -0.593430	 1.039300
C	 -1.152057	 0.607161	 -1.051194
H	 -1.520645	 -1.111786	 1.844446
C	 0.343287	 -0.450462	 1.037870
H	 -1.751293	 1.006989	 -1.847011
C	 0.220566	 0.741993	 -1.038431
H	 0.933405	 -0.854306	 1.838976
C	 0.984182	 0.218375	 0.000000
H	 0.705445	 1.261623	 -1.847096
C	 2.452467	 0.370529	 0.000000
O	 3.228994	 -0.533774	 0.000000
H	 2.809473	 1.405765	 0.000000

	symmetry c1
}
set optking {
	frozen_dihedral = ("
		7 11 13 14
	")
}

ee = optimize('scf')
oeprop('DIPOLE', 'QUADRUPOLE', 'MULLIKEN_CHARGES')
f=open( 'psi4out.xyz', 'w' )
f.write( "15  " )
f.write( str(ee) + "\n" )
f.write( MOL.save_string_xyz() )
f.close()
--------------------------------------------------------------------------

    Molecular point group: c1
  Charge       = 0
  Multiplicity = 1
  Basis Set: 6-31G*
  Basis Set:
  @DF-RHF Final Energy:  -418.27754473131273
    Total Energy =                       -418.2775447313127870
    Molecular point group: c1
  Basis Set: 6-31G*
  Basis Set:
  Basis Set: 6-31G*
  Basis Set:
  @DF-RHF Final Energy:  -418.27706761874771
    Total Energy =                       -418.2770676187476511
  Basis Set: 6-31G*
  Basis Set:
  Basis Set: 6-31G*
  Basis Set:
  @DF-RHF Final Energy:  -418.27814480473899
    Total Energy =                       -418.2781448047392132
  Basis Set: 6-31G*
  Basis Set:
  Basis Set: 6-31G*
  Basis Set:
  @DF-RHF Final Energy:  -418.27854717128997
    Total Energy =                       -418.2785471712901426
  Basis Set: 6-31G*
  Basis Set:
  @DF-RHF Final Energy:  -418.27855100885535
    Total Energy =                       -418.2785510088551746
  @DF-RHF Final Energy:  -418.27855282628923
    Total Energy =                       -418.2785528262890011
  @DF-RHF Final Energy:  -418.27256288168695
    Total Energy =                       -418.2725628816870085
  Basis Set: 6-31G*
  Basis Set:
  @DF-RHF Final Energy:  -418.27553261472480
    Total Energy =                       -418.2755326147248525
  Basis Set: 6-31G*
  Basis Set:
  Basis Set: 6-31G*
  Basis Set:
  @DF-RHF Final Energy:  -418.27849560399454
    Total Energy =                       -418.2784956039947701
  Basis Set: 6-31G*
  Basis Set:
  Basis Set: 6-31G*
  Basis Set:
  @DF-RHF Final Energy:  -418.27855254720026
    Total Energy =                       -418.2785525472004338
  Basis Set: 6-31G*
  Basis Set:
  Charge       = 0
  Multiplicity = 1
  Basis Set: 6-31G*
  Basis Set:

    Orbital Energies (a.u.)
    -----------------------

    Doubly Occupied:

       1A    -20.605858     2A    -20.566231     3A    -11.332396
       4A    -11.316906     5A    -11.256375     6A    -11.256317
       7A    -11.243340     8A    -11.242817     9A    -11.238471
      10A     -1.426019    11A     -1.405443    12A     -1.169349
      13A     -1.038996    14A     -1.037405    15A     -0.887160
      16A     -0.863943    17A     -0.797464    18A     -0.753736
      19A     -0.710870    20A     -0.670501    21A     -0.649973
      22A     -0.628812    23A     -0.606329    24A     -0.603741
      25A     -0.588467    26A     -0.561448    27A     -0.532622
      28A     -0.504191    29A     -0.489529    30A     -0.421137
      31A     -0.355541    32A     -0.324591

  @DF-RHF Final Energy:  -418.27855298368212

   => Energetics <=

    Nuclear Repulsion Energy =            400.3210006846593956
    One-Electron Energy =               -1363.0271459620512360
    Two-Electron Energy =                 544.4275922937099494
    DFT Exchange-Correlation Energy =       0.0000000000000000
    Empirical Dispersion Energy =           0.0000000000000000
    PCM Polarization Energy =               0.0000000000000000
    EFP Energy =                            0.0000000000000000
    Total Energy =                       -418.2785529836819478
    Molecular point group: c1
  Basis Set: 6-31G*
  Basis Set:

  -Total Gradient:
     Atom            X                  Y                   Z
    ------   -----------------  -----------------  -----------------
       1       -0.000002278034    -0.000018763562    -0.000014058990
       2       -0.000007416065     0.000016164615     0.000032276250
       3       -0.000023653924    -0.000022301930    -0.000044837537
       4        0.000013762935    -0.000013514181     0.000010165723
       5       -0.000042196289     0.000028767604     0.000024468054
       6       -0.000012798257     0.000003890524     0.000002820578
       7       -0.000939238718     0.006092494664     0.003219403891
       8       -0.000000211745    -0.000012143202    -0.000005135986
       9        0.000074222292    -0.000028969718    -0.000007434438
      10        0.000000771926     0.000023311037     0.000003969873
      11        0.001460739416    -0.009111189559    -0.008539106209
      12        0.000009515945     0.000010481861     0.000009476583
      13       -0.000798154985     0.003410407080     0.013794206010
      14        0.000255807503    -0.000381385319    -0.008470105613
      15        0.000011127997     0.000002750086    -0.000016108188

  **** Optimization is complete! (in 11 steps) ****
    Final optimized geometry and variables:
    Molecular point group: c1

    Geometry (in Angstrom), charge = 0, multiplicity = 1:

    H           -3.463940955885    -0.636064534845     0.686862523415
    O           -3.130133079369    -0.155152111152    -0.057756883413
    C           -1.786120451863    -0.062823553806    -0.008948464167
    C           -1.039841151236    -0.592662963432     1.032449504555
    C           -1.154284122614     0.606370673193    -1.050546328433
    H           -1.530482424090    -1.095127622202     1.848612152680
    C            0.339265158057    -0.471708245884     1.019876240602
    H           -1.750522810967     1.018782892055    -1.842523967585
    C            0.217872939804     0.741011622161    -1.038040996557
    H            0.916965932897    -0.891220208143     1.823511048685
    C            0.983956659692     0.171675863179    -0.024692103827
    H            0.699029742819     1.282536628351    -1.834438116739
    C            2.460289124488     0.381916273524     0.006880121669
    O            3.261713795899    -0.494664837719     0.067999592848
    H            2.788980652050     1.420897426968    -0.094190403384

  Mulliken Charges: (a.u.)
   Center  Symbol    Alpha    Beta     Spin     Total
       1     H     0.26955  0.26955  0.00000  0.46091
       2     O     4.37513  4.37513  0.00000 -0.75027
       3     C     2.79014  2.79014  0.00000  0.41971
       4     C     3.14399  3.14399  0.00000 -0.28798
       5     C     3.12301  3.12301  0.00000 -0.24603
       6     H     0.39901  0.39901  0.00000  0.20197
       7     C     3.08938  3.08938  0.00000 -0.17876
       8     H     0.38669  0.38669  0.00000  0.22662
       9     C     3.09617  3.09617  0.00000 -0.19233
      10     H     0.38424  0.38424  0.00000  0.23153
      11     C     3.04763  3.04763  0.00000 -0.09525
      12     H     0.39099  0.39099  0.00000  0.21801
      13     C     2.84801  2.84801  0.00000  0.30398
      14     O     4.23149  4.23149  0.00000 -0.46298
      15     H     0.42456  0.42456  0.00000  0.15087

   Total alpha = 32.00000, Total beta = 32.00000, Total charge =  0.00000
