  ==> Input File <==

--------------------------------------------------------------------------
set {
	reference rhf
	basis 6-31G*
}

set_num_threads( 4 )
memory 2 gb

molecule MOL {
0 1

H	 0.606056	 4.757400	 -0.297165
N	 -0.183773	 4.148682	 -0.392962
C	 0.204047	 2.762221	 -0.176519
H	 -0.534462	 4.273934	 -1.323638
C	 -1.016541	 1.849308	 -0.226606
H	 0.660252	 2.697240	 0.806595
H	 0.950684	 2.408730	 -0.892045
C	 -0.679275	 0.379305	 0.025956
H	 -1.737640	 2.200325	 0.505951
H	 -1.494304	 1.947138	 -1.201033
C	 -1.903357	 -0.536963	 -0.023547
H	 -0.199072	 0.281262	 0.998397
H	 0.049896	 0.041196	 -0.708781
C	 -3.225172	 0.228290	 0.028445
H	 -1.867824	 -1.134999	 -0.931459
H	 -1.860449	 -1.239604	 0.805977
H	 -3.313397	 0.915643	 -0.808262
H	 -4.073500	 -0.448134	 -0.008893
H	 -3.306061	 0.809945	 0.942516

	symmetry c1
}
set optking {
	frozen_dihedral = ("
		12 8 11 15
	")
}

ee = optimize('scf')
oeprop('DIPOLE', 'QUADRUPOLE', 'MULLIKEN_CHARGES')
f=open( 'psi4out.xyz', 'w' )
f.write( "19  " )
f.write( str(ee) + "\n" )
f.write( MOL.save_string_xyz() )
f.close()
--------------------------------------------------------------------------

    Molecular point group: c1
  Charge       = 0
  Multiplicity = 1
  Basis Set: 6-31G*
  Basis Set:
  @DF-RHF Final Energy:  -251.33921887744816
    Total Energy =                       -251.3392188774481610
    Molecular point group: c1
  Basis Set: 6-31G*
  Basis Set:
  Basis Set: 6-31G*
  Basis Set:
  @DF-RHF Final Energy:  -251.33991904629670
    Total Energy =                       -251.3399190462966999
  Basis Set: 6-31G*
  Basis Set:
  Basis Set: 6-31G*
  Basis Set:
  @DF-RHF Final Energy:  -251.34292206983619
    Total Energy =                       -251.3429220698362201
  Basis Set: 6-31G*
  Basis Set:
  Basis Set: 6-31G*
  Basis Set:
  @DF-RHF Final Energy:  -251.34330448314356
    Total Energy =                       -251.3433044831438679
  Basis Set: 6-31G*
  Basis Set:
  Basis Set: 6-31G*
  Basis Set:
  @DF-RHF Final Energy:  -251.34335059347541
    Total Energy =                       -251.3433505934752930
  Basis Set: 6-31G*
  Basis Set:
  Basis Set: 6-31G*
  Basis Set:
  @DF-RHF Final Energy:  -251.34336002416302
    Total Energy =                       -251.3433600241629620
  Basis Set: 6-31G*
  Basis Set:
  Charge       = 0
  Multiplicity = 1
  Basis Set: 6-31G*
  Basis Set:

    Orbital Energies (a.u.)
    -----------------------

    Doubly Occupied:

       1A    -15.532407     2A    -11.239604     3A    -11.214333
       4A    -11.212994     5A    -11.209230     6A    -11.206198
       7A     -1.176526     8A     -1.068626     9A     -0.994422
      10A     -0.904696    11A     -0.826618    12A     -0.770791
      13A     -0.663227    14A     -0.639951    15A     -0.608319
      16A     -0.596331    17A     -0.578037    18A     -0.534266
      19A     -0.527379    20A     -0.503854    21A     -0.490118
      22A     -0.459481    23A     -0.451529    24A     -0.444829
      25A     -0.381055

  @DF-RHF Final Energy:  -251.34336027674757

   => Energetics <=

    Nuclear Repulsion Energy =            249.2526397017644797
    One-Electron Energy =                -832.7223571453963586
    Two-Electron Energy =                 332.1263571668843610
    DFT Exchange-Correlation Energy =       0.0000000000000000
    Empirical Dispersion Energy =           0.0000000000000000
    PCM Polarization Energy =               0.0000000000000000
    EFP Energy =                            0.0000000000000000
    Total Energy =                       -251.3433602767475463
    Molecular point group: c1
  Basis Set: 6-31G*
  Basis Set:

  -Total Gradient:
     Atom            X                  Y                   Z
    ------   -----------------  -----------------  -----------------
       1        0.000000454242    -0.000003319734     0.000000703272
       2       -0.000003249334    -0.000000183216     0.000000102324
       3       -0.000000351450     0.000003088555     0.000004250471
       4       -0.000000204417    -0.000002062302     0.000000699595
       5        0.000000920314     0.000002919163    -0.000014524400
       6       -0.000000668501     0.000001334290     0.000001723043
       7       -0.000006386266    -0.000004293171     0.000001350752
       8       -0.003234310611     0.003692222004     0.002924740695
       9        0.000003767455    -0.000001167857     0.000000663891
      10       -0.000005878645     0.000008977381    -0.000006480830
      11       -0.002670381720     0.003674072898    -0.003495281783
      12        0.003143833235    -0.003719343499    -0.001914254929
      13        0.000003910604     0.000008234236     0.000001669960
      14       -0.000009138059     0.000002865269    -0.000000295835
      15        0.002784540431    -0.003666884335     0.002493515148
      16       -0.000001347158    -0.000003239409    -0.000000001195
      17       -0.000000075733     0.000001195472     0.000001945799
      18       -0.000002221472     0.000001900988    -0.000001336318
      19       -0.000003212914     0.000003683267     0.000000810340

  **** Optimization is complete! (in 7 steps) ****
    Final optimized geometry and variables:
    Molecular point group: c1

    Geometry (in Angstrom), charge = 0, multiplicity = 1:

    H            1.876995683366     3.230068802882    -0.167182249708
    N            1.062700623805     2.657627702377    -0.280277954820
    C            1.377870600326     1.257915134024    -0.032726810206
    H            0.748159029172     2.785220996129    -1.223487354140
    C            0.116360336475     0.403344471407    -0.105941986311
    H            1.801454074399     1.186800742743     0.964541781615
    H            2.127596526207     0.859099902271    -0.720465139147
    C            0.397267971912    -1.072676020301     0.181701722078
    H           -0.605929907832     0.807999796911     0.594333723325
    H           -0.321424571015     0.506481358196    -1.097972546317
    C           -0.805818213019    -2.045910195851     0.086973568688
    H            0.867859573118    -1.176432526227     1.156659105506
    H            1.156485546395    -1.414323960147    -0.519173375018
    C           -2.201975931073    -1.435328503792     0.215685801873
    H           -0.735378658754    -2.617487007586    -0.834461798110
    H           -0.694405674481    -2.789861705381     0.872001903848
    H           -2.415830353475    -0.729591323892    -0.579638591152
    H           -2.955438825735    -2.215870872839     0.171857966472
    H           -2.324141010809    -0.915765493187     1.161167702396

  Mulliken Charges: (a.u.)
   Center  Symbol    Alpha    Beta     Spin     Total
       1     H     0.33248  0.33248  0.00000  0.33504
       2     N     3.92201  3.92201  0.00000 -0.84402
       3     C     3.06000  3.06000  0.00000 -0.12001
       4     H     0.33543  0.33543  0.00000  0.32914
       5     C     3.15384  3.15384  0.00000 -0.30767
       6     H     0.42085  0.42085  0.00000  0.15831
       7     H     0.43476  0.43476  0.00000  0.13049
       8     C     3.16016  3.16016  0.00000 -0.32031
       9     H     0.41068  0.41068  0.00000  0.17864
      10     H     0.42730  0.42730  0.00000  0.14540
      11     C     3.15406  3.15406  0.00000 -0.30813
      12     H     0.42158  0.42158  0.00000  0.15684
      13     H     0.42296  0.42296  0.00000  0.15407
      14     C     3.24175  3.24175  0.00000 -0.48351
      15     H     0.42157  0.42157  0.00000  0.15685
      16     H     0.42113  0.42113  0.00000  0.15774
      17     H     0.41955  0.41955  0.00000  0.16090
      18     H     0.41979  0.41979  0.00000  0.16042
      19     H     0.42009  0.42009  0.00000  0.15982

   Total alpha = 25.00000, Total beta = 25.00000, Total charge =  0.00000
