  ==> Input File <==

--------------------------------------------------------------------------
set {
	reference rhf
	basis 6-31G*
}

set_num_threads( 1 )
memory 2 gb

molecule MOL {
0 1

H	 3.119105	 -0.773206	 -0.920323
N	 3.092854	 -0.246221	 -0.068770
C	 1.865559	 0.531981	 0.018834
H	 3.892164	 0.358633	 -0.078012
C	 0.645745	 -0.382037	 -0.029944
H	 1.841966	 1.207024	 -0.831236
H	 1.815756	 1.155410	 0.915079
C	 -0.679275	 0.379305	 0.025956
H	 0.698998	 -0.976915	 -0.937203
H	 0.693479	 -1.083846	 0.802235
C	 -1.903357	 -0.536963	 -0.023547
H	 -0.726309	 1.082987	 -0.803784
H	 -0.717680	 0.977832	 0.934877
C	 -3.225172	 0.228290	 0.028445
H	 -1.867824	 -1.134999	 -0.931459
H	 -1.860449	 -1.239604	 0.805977
H	 -3.313397	 0.915643	 -0.808262
H	 -4.073500	 -0.448134	 -0.008893
H	 -3.306061	 0.809945	 0.942516

	symmetry c1
}
set optking {
	frozen_dihedral = ("
		6 3 5 9,
		12 8 5 9,
		12 8 11 15
	")
}

ee = energy('scf')
oeprop('DIPOLE', 'QUADRUPOLE', 'MULLIKEN_CHARGES')
f=open( 'psi4out.xyz', 'w' )
f.write( "19  " )
f.write( str(ee) + "\n" )
f.write( MOL.save_string_xyz() )
f.close()
--------------------------------------------------------------------------

    Molecular point group: c1

    Geometry (in Angstrom), charge = 0, multiplicity = 1:

       Center              X                  Y                   Z               Mass
    ------------   -----------------  -----------------  -----------------  -----------------
           H          3.120047003586    -0.773854510970    -0.901360341130     1.007825032070
           N          3.093796003586    -0.246869510970    -0.049807341130    14.003074004780
           C          1.866501003586     0.531332489030     0.037796658870    12.000000000000
           H          3.893106003586     0.357984489030    -0.059049341130     1.007825032070
           C          0.646687003586    -0.382685510970    -0.010981341130    12.000000000000
           H          1.842908003586     1.206375489030    -0.812273341130     1.007825032070
           H          1.816698003586     1.154761489030     0.934041658870     1.007825032070
           C         -0.678332996414     0.378656489030     0.044918658870    12.000000000000
           H          0.699940003586    -0.977563510970    -0.918240341130     1.007825032070
           H          0.694421003586    -1.084494510970     0.821197658870     1.007825032070
           C         -1.902414996414    -0.537611510970    -0.004584341130    12.000000000000
           H         -0.725366996414     1.082338489030    -0.784821341130     1.007825032070
           H         -0.716737996414     0.977183489030     0.953839658870     1.007825032070
           C         -3.224229996414     0.227641489030     0.047407658870    12.000000000000
           H         -1.866881996414    -1.135647510970    -0.912496341130     1.007825032070
           H         -1.859506996414    -1.240252510970     0.824939658870     1.007825032070
           H         -3.312454996414     0.914994489030    -0.789299341130     1.007825032070
           H         -4.072557996414    -0.448782510970     0.010069658870     1.007825032070
           H         -3.305118996414     0.809296489030     0.961478658870     1.007825032070

  Charge       = 0
  Multiplicity = 1
  Basis Set: 6-31G*
  Basis Set:

    Orbital Energies (a.u.)
    -----------------------

    Doubly Occupied:

       1A    -15.530695     2A    -11.240181     3A    -11.214589
       4A    -11.213569     5A    -11.210899     6A    -11.207983
       7A     -1.176446     8A     -1.073577     9A     -0.998818
      10A     -0.900351    11A     -0.813552    12A     -0.790284
      13A     -0.662907    14A     -0.642030    15A     -0.614065
      16A     -0.592807    17A     -0.565429    18A     -0.549008
      19A     -0.533666    20A     -0.498951    21A     -0.483502
      22A     -0.466288    23A     -0.461960    24A     -0.448692
      25A     -0.376606

  @DF-RHF Final Energy:  -251.34938542699481

   => Energetics <=

    Nuclear Repulsion Energy =            245.7043666866753995
    One-Electron Energy =                -825.5740908065840813
    Two-Electron Energy =                 328.5203386929141516
    DFT Exchange-Correlation Energy =       0.0000000000000000
    Empirical Dispersion Energy =           0.0000000000000000
    PCM Polarization Energy =               0.0000000000000000
    EFP Energy =                            0.0000000000000000
    Total Energy =                       -251.3493854269945587

  Mulliken Charges: (a.u.)
   Center  Symbol    Alpha    Beta     Spin     Total
       1     H     0.33454  0.33454  0.00000  0.33092
       2     N     3.92260  3.92260  0.00000 -0.84519
       3     C     3.05917  3.05917  0.00000 -0.11833
       4     H     0.33330  0.33330  0.00000  0.33340
       5     C     3.15275  3.15275  0.00000 -0.30551
       6     H     0.43493  0.43493  0.00000  0.13013
       7     H     0.42013  0.42013  0.00000  0.15974
       8     C     3.15476  3.15476  0.00000 -0.30953
       9     H     0.42724  0.42724  0.00000  0.14553
      10     H     0.41408  0.41408  0.00000  0.17184
      11     C     3.15095  3.15095  0.00000 -0.30190
      12     H     0.42457  0.42457  0.00000  0.15085
      13     H     0.42338  0.42338  0.00000  0.15324
      14     C     3.23935  3.23935  0.00000 -0.47870
      15     H     0.42316  0.42316  0.00000  0.15367
      16     H     0.42191  0.42191  0.00000  0.15617
      17     H     0.42216  0.42216  0.00000  0.15568
      18     H     0.41926  0.41926  0.00000  0.16149
      19     H     0.42175  0.42175  0.00000  0.15651

   Total alpha = 25.00000, Total beta = 25.00000, Total charge = -0.00000
