                              Psi4 1.0.54 Driver

  ==> Input File <==

--------------------------------------------------------------------------
set {
	reference rhf
	basis cc-pvtz
}

set_num_threads( 4 )
memory 2 gb

molecule MOL {
0 1

O	 -2.817697	 1.304178	 0.001046
C	 -2.664672	 0.129869	 0.003507
C	 -3.797908	 -0.860100	 -0.001145
O	 -1.481217	 -0.452708	 0.001092
H	 -4.408836	 -0.679689	 -0.875387
H	 -3.443486	 -1.878443	 -0.002770
H	 -4.412123	 -0.683688	 0.871605
C	 -0.332055	 0.384012	 -0.000250
C	 0.892252	 -0.506059	 -0.000295
H	 -0.360822	 1.020205	 -0.874146
H	 -0.359817	 1.021310	 0.872861
C	 2.188199	 0.299473	 -0.001416
H	 0.857046	 -1.152781	 -0.871031
H	 0.857910	 -1.151798	 0.871202
C	 3.437151	 -0.577593	 -0.000991
H	 2.209565	 0.950707	 -0.871712
H	 2.210062	 0.952234	 0.867721
C	 4.730275	 0.224006	 0.100385
H	 3.454214	 -1.176604	 -0.907055
H	 3.381746	 -1.278918	 0.826753
H	 4.831283	 0.911055	 -0.733046
H	 5.596438	 -0.427348	 0.098326
H	 4.758103	 0.808205	 1.014055

	symmetry c1
}
set optking {
	frozen_dihedral = ("
		19 15 12 16
	")
}

ee,wfn = optimize('scf', return_wfn=True)
oeprop( wfn, 'DIPOLE', 'QUADRUPOLE', 'MULLIKEN_CHARGES')
f=open( 'psi4out.xyz', 'w' )
f.write( "23  " )
f.write( str(ee) + "\n" )
f.write( MOL.save_string_xyz() )
f.close()
--------------------------------------------------------------------------

    Molecular point group: c1
  Charge       = 0
  Multiplicity = 1
  Basis Set: CC-PVTZ
  Basis Set:
  @DF-RHF Final Energy:  -423.13474548354571
    Total Energy =                       -423.1347454835450890
    Molecular point group: c1
  Basis Set: CC-PVTZ
  Basis Set:
  Basis Set: CC-PVTZ
  Basis Set:
  @DF-RHF Final Energy:  -423.13452970816115
    Total Energy =                       -423.1345297081609260
  Basis Set: CC-PVTZ
  Basis Set:
  Basis Set: CC-PVTZ
  Basis Set:
  @DF-RHF Final Energy:  -423.13475251108281
    Total Energy =                       -423.1347525110829793
  Basis Set: CC-PVTZ
  Basis Set:
  Basis Set: CC-PVTZ
  Basis Set:
  @DF-RHF Final Energy:  -423.13476184853863
    Total Energy =                       -423.1347618485385738
  Basis Set: CC-PVTZ
  Basis Set:
  Charge       = 0
  Multiplicity = 1
  Basis Set: CC-PVTZ
  Basis Set:

    Orbital Energies (a.u.)
    -----------------------

    Doubly Occupied:

       1A    -20.595930     2A    -20.529516     3A    -11.366398
       4A    -11.279427     5A    -11.230667     6A    -11.222271
       7A    -11.221362     8A    -11.219494     9A    -11.210846
      10A     -1.471155    11A     -1.363992    12A     -1.095311
      13A     -1.043255    14A     -1.004239    15A     -0.931671
      16A     -0.842260    17A     -0.803013    18A     -0.776048
      19A     -0.694894    20A     -0.688297    21A     -0.671189
      22A     -0.648383    23A     -0.607139    24A     -0.589170
      25A     -0.584043    26A     -0.567352    27A     -0.559495
      28A     -0.538456    29A     -0.524193    30A     -0.505528
      31A     -0.491874    32A     -0.477886    33A     -0.471685
      34A     -0.466819    35A     -0.455227    36A     -0.438877

  @DF-RHF Final Energy:  -423.13476194980143

   => Energetics <=

    Nuclear Repulsion Energy =            450.4657847376234372
    One-Electron Energy =               -1468.8263673274354915
    Two-Electron Energy =                 595.2258206400105109
    DFT Exchange-Correlation Energy =       0.0000000000000000
    Empirical Dispersion Energy =           0.0000000000000000
    PCM Polarization Energy =               0.0000000000000000
    EFP Energy =                            0.0000000000000000
    Total Energy =                       -423.1347619498016002
    Molecular point group: c1
  Basis Set: CC-PVTZ
  Basis Set:

  -Total Gradient:
     Atom            X                  Y                   Z
    ------   -----------------  -----------------  -----------------
       1       -0.000010210488     0.000015296794    -0.000000940011
       2        0.000017363169    -0.000039232161    -0.000001283460
       3       -0.000004445030     0.000010391914     0.000004236324
       4       -0.000027121220     0.000005242485    -0.000011089101
       5        0.000004638372    -0.000001408350     0.000005565393
       6        0.000000126736     0.000004080623    -0.000000254661
       7        0.000003020044    -0.000000462315    -0.000007677945
       8        0.000019701411     0.000014206890     0.000022813002
       9        0.000004350838    -0.000002126471     0.000006261070
      10       -0.000006303748    -0.000002045845    -0.000001730175
      11        0.000002719931    -0.000004459839    -0.000008092765
      12        0.000574566528     0.000811817285     0.000431737848
      13        0.000001792242    -0.000000806243     0.000001979316
      14       -0.000005195799    -0.000000305242     0.000000537709
      15       -0.000585160827    -0.000844671521     0.000359323201
      16       -0.000388501988    -0.000551370296    -0.000421577280
      17        0.000003836162    -0.000001378186    -0.000004524611
      18       -0.000005634914     0.000004381564     0.000002277728
      19        0.000403119364     0.000579917228    -0.000372389784
      20       -0.000006378005     0.000002022358    -0.000005930160
      21        0.000003930726    -0.000001769142     0.000004096748
      22       -0.000004529871     0.000004885877     0.000001463529
      23        0.000004316371    -0.000002207403    -0.000004801914

  **** Optimization is complete! (in 5 steps) ****
    Final optimized geometry and variables:
    Molecular point group: c1

    Geometry (in Angstrom), charge = 0, multiplicity = 1:

    O           -2.817020845871     1.304585536660    -0.023107485340
    C           -2.664269537009     0.130204122470    -0.016982962446
    C           -3.797870524067    -0.859551614077    -0.016660070165
    O           -1.480923429121    -0.452340643237    -0.009616975026
    H           -4.407717995441    -0.684284890843    -0.892749442342
    H           -3.443712730749    -1.878006777865    -0.011611061411
    H           -4.413018499725    -0.677571199545     0.854355919889
    C           -0.331911371220     0.384222078310    -0.008909489030
    C            0.892489929325    -0.505682830545    -0.000835507453
    H           -0.356713429263     1.017591275930    -0.885055461060
    H           -0.362864614047     1.024749352532     0.861849133720
    C            2.188533565384     0.300356716341     0.003252917838
    H            0.861923264028    -1.154237646999    -0.870528901944
    H            0.853631724582    -1.149734223319     0.871724051546
    C            3.436625983160    -0.577996248738    -0.007871206590
    H            2.206386267483     0.954858525671    -0.864674690244
    H            2.211063257195     0.946397754854     0.877222316667
    C            4.730755982137     0.224271875153     0.079234999922
    H            3.446351676196    -1.172470861881    -0.917021183292
    H            3.390881641942    -1.280176865275     0.819580017480
    H            4.817994881190     0.917837439251    -0.750481043974
    H            5.597273734262    -0.426352882761     0.058146845057
    H            4.772785103310     0.801523636913     0.996769865994

  Mulliken Charges: (a.u.)
   Center  Symbol    Alpha    Beta     Spin     Total
       1     O     4.20244  4.20244  0.00000 -0.40489
       2     C     2.81528  2.81528  0.00000  0.36945
       3     C     3.14004  3.14004  0.00000 -0.28007
       4     O     4.14456  4.14456  0.00000 -0.28912
       5     H     0.44211  0.44211  0.00000  0.11577
       6     H     0.44186  0.44186  0.00000  0.11629
       7     H     0.44213  0.44213  0.00000  0.11574
       8     C     2.97900  2.97900  0.00000  0.04201
       9     C     3.08102  3.08102  0.00000 -0.16204
      10     H     0.45403  0.45403  0.00000  0.09194
      11     H     0.45409  0.45409  0.00000  0.09182
      12     C     3.09768  3.09768  0.00000 -0.19536
      13     H     0.45090  0.45090  0.00000  0.09819
      14     H     0.45082  0.45082  0.00000  0.09836
      15     C     3.08505  3.08505  0.00000 -0.17011
      16     H     0.45272  0.45272  0.00000  0.09455
      17     H     0.45298  0.45298  0.00000  0.09404
      18     C     3.14955  3.14955  0.00000 -0.29910
      19     H     0.45321  0.45321  0.00000  0.09357
      20     H     0.45363  0.45363  0.00000  0.09273
      21     H     0.45455  0.45455  0.00000  0.09089
      22     H     0.44774  0.44774  0.00000  0.10451
      23     H     0.45459  0.45459  0.00000  0.09081

   Total alpha = 36.00000, Total beta = 36.00000, Total charge = -0.00000

*** Psi4 exiting successfully. Buy a developer a beer!
