  ==> Input File <==

--------------------------------------------------------------------------
set {
	reference rhf
	basis 6-31G*
}

set_num_threads( 1 )
memory 2 gb

molecule MOL {
0 1

H	 -2.566324	 -0.436642	 0.989333
O	 -2.347518	 -0.290803	 0.079804
C	 -1.184022	 0.487508	 -0.006784
C	 0.062599	 -0.378592	 0.031606
H	 -1.176523	 1.099369	 -0.904519
H	 -1.187323	 1.153111	 0.844927
O	 1.171513	 0.459272	 -0.058250
H	 0.050699	 -1.089204	 -0.797170
H	 0.078739	 -0.954914	 0.954740
C	 2.397842	 -0.198080	 -0.002151
H	 2.508049	 -0.905315	 -0.822092
H	 3.173794	 0.550865	 -0.078850
H	 2.517602	 -0.735921	 0.936026

	symmetry c1
}
set optking {
	frozen_dihedral = ("
		8 4 3 5,
		10 7 4 8,
		4 7 10 13
	")
}

ee = energy('scf')
oeprop('DIPOLE', 'QUADRUPOLE', 'MULLIKEN_CHARGES')
f=open( 'psi4out.xyz', 'w' )
f.write( "13  " )
f.write( str(ee) + "\n" )
f.write( MOL.save_string_xyz() )
f.close()
--------------------------------------------------------------------------

    Molecular point group: c1

    Geometry (in Angstrom), charge = 0, multiplicity = 1:

       Center              X                  Y                   Z               Mass
    ------------   -----------------  -----------------  -----------------  -----------------
           H         -2.565432989293    -0.440530235874     0.966349064074     1.007825032070
           O         -2.346626989293    -0.294691235874     0.056820064074    15.994914619560
           C         -1.183130989293     0.483619764126    -0.029767935926    12.000000000000
           C          0.063490010707    -0.382480235874     0.008622064074    12.000000000000
           H         -1.175631989293     1.095480764126    -0.927502935926     1.007825032070
           H         -1.186431989293     1.149222764126     0.821943064074     1.007825032070
           O          1.172404010707     0.455383764126    -0.081233935926    15.994914619560
           H          0.051590010707    -1.093092235874    -0.820153935926     1.007825032070
           H          0.079630010707    -0.958802235874     0.931756064074     1.007825032070
           C          2.398733010707    -0.201968235874    -0.025134935926    12.000000000000
           H          2.508940010707    -0.909203235874    -0.845075935926     1.007825032070
           H          3.174685010707     0.546976764126    -0.101833935926     1.007825032070
           H          2.518493010707    -0.739809235874     0.913042064074     1.007825032070

  Charge       = 0
  Multiplicity = 1
  Basis Set: 6-31G*
  Basis Set:

    Orbital Energies (a.u.)
    -----------------------

    Doubly Occupied:

       1A    -20.561437     2A    -20.558571     3A    -11.269890
       4A    -11.269618     5A    -11.269066     6A     -1.387951
       7A     -1.364685     8A     -1.017939     9A     -0.912634
      10A     -0.839013    11A     -0.709923    12A     -0.675471
      13A     -0.656607    14A     -0.640977    15A     -0.599154
      16A     -0.563354    17A     -0.547804    18A     -0.485598
      19A     -0.481617    20A     -0.437340    21A     -0.420867

  @DF-RHF Final Energy:  -267.94873474204962

   => Energetics <=

    Nuclear Repulsion Energy =            190.1706854316401234
    One-Electron Energy =                -742.8998156650308147
    Two-Electron Energy =                 284.7803954913400730
    DFT Exchange-Correlation Energy =       0.0000000000000000
    Empirical Dispersion Energy =           0.0000000000000000
    PCM Polarization Energy =               0.0000000000000000
    EFP Energy =                            0.0000000000000000
    Total Energy =                       -267.9487347420506467

  Mulliken Charges: (a.u.)
   Center  Symbol    Alpha    Beta     Spin     Total
       1     H     0.27897  0.27897  0.00000  0.44207
       2     O     4.37258  4.37258  0.00000 -0.74517
       3     C     3.00559  3.00559  0.00000 -0.01118
       4     C     2.99386  2.99386  0.00000  0.01228
       5     H     0.40872  0.40872  0.00000  0.18256
       6     H     0.42478  0.42478  0.00000  0.15043
       7     O     4.30788  4.30788  0.00000 -0.61577
       8     H     0.42404  0.42404  0.00000  0.15193
       9     H     0.43577  0.43577  0.00000  0.12847
      10     C     3.07977  3.07977  0.00000 -0.15953
      11     H     0.42788  0.42788  0.00000  0.14424
      12     H     0.41098  0.41098  0.00000  0.17805
      13     H     0.42919  0.42919  0.00000  0.14162

   Total alpha = 21.00000, Total beta = 21.00000, Total charge =  0.00000
