                              Psi4 1.0.54 Driver

  ==> Input File <==

--------------------------------------------------------------------------
set {
	reference rhf
	basis cc-pvtz
}

set_num_threads( 4 )
memory 2 gb

molecule MOL {
0 1

H	 -4.340537	 -0.784487	 0.000000
O	 -3.958786	 0.074640	 0.000000
C	 -2.613554	 0.009900	 0.000000
C	 -1.935498	 0.767391	 0.940544
C	 -1.905907	 -0.773159	 -0.891594
H	 -2.494609	 1.371226	 1.627304
C	 -0.559316	 0.738689	 0.985216
H	 -2.424906	 -1.363570	 -1.624139
C	 -0.523946	 -0.800835	 -0.845371
H	 -0.036613	 1.325340	 1.713495
C	 0.143757	 -0.046188	 0.091194
H	 0.020608	 -1.409488	 -1.538700
Br	 2.040663	 -0.082264	 0.156919

	symmetry c1
}
set optking {
	frozen_dihedral = ("
		4 3 2 1
	")
}

ee,wfn = optimize('scf', return_wfn=True)
oeprop( wfn, 'DIPOLE', 'QUADRUPOLE', 'MULLIKEN_CHARGES')
f=open( 'psi4out.xyz', 'w' )
f.write( "13  " )
f.write( str(ee) + "\n" )
f.write( MOL.save_string_xyz() )
f.close()
--------------------------------------------------------------------------

    Molecular point group: c1
  Charge       = 0
  Multiplicity = 1
  Basis Set: CC-PVTZ
  Basis Set:
  @DF-RHF Final Energy: -2877.54411540966839
    Total Energy =                      -2877.5441154096693026
    Molecular point group: c1
  Basis Set: CC-PVTZ
  Basis Set:
  Basis Set: CC-PVTZ
  Basis Set:
  @DF-RHF Final Energy: -2877.54432725132938
    Total Energy =                      -2877.5443272513302873
  Basis Set: CC-PVTZ
  Basis Set:
  Basis Set: CC-PVTZ
  Basis Set:
  @DF-RHF Final Energy: -2877.54435379099868
    Total Energy =                      -2877.5443537909982297
  Basis Set: CC-PVTZ
  Basis Set:
  Charge       = 0
  Multiplicity = 1
  Basis Set: CC-PVTZ
  Basis Set:

    Orbital Energies (a.u.)
    -----------------------

    Doubly Occupied:

       1A   -490.019988     2A    -65.160318     3A    -58.515542
       4A    -58.514176     5A    -58.514165     6A    -20.587958
       7A    -11.306515     8A    -11.291595     9A    -11.253101
      10A    -11.251880    11A    -11.242961    12A    -11.239523
      13A     -9.834119    14A     -7.445741    15A     -7.438968
      16A     -7.438927    17A     -3.189432    18A     -3.185883
      19A     -3.185758    20A     -3.177114    21A     -3.177110
      22A     -1.417236    23A     -1.180508    24A     -1.067402
      25A     -1.042024    26A     -0.970579    27A     -0.865067
      28A     -0.827119    29A     -0.755287    30A     -0.683848
      31A     -0.657549    32A     -0.643238    33A     -0.610408
      34A     -0.602718    35A     -0.558081    36A     -0.528988
      37A     -0.502775    38A     -0.498382    39A     -0.431601
      40A     -0.414929    41A     -0.359565    42A     -0.324456

  @DF-RHF Final Energy: -2877.54435672309000

   => Energetics <=

    Nuclear Repulsion Energy =            525.2991363076672542
    One-Electron Energy =               -5041.8619177294804103
    Two-Electron Energy =                1639.0184246987214465
    DFT Exchange-Correlation Energy =       0.0000000000000000
    Empirical Dispersion Energy =           0.0000000000000000
    PCM Polarization Energy =               0.0000000000000000
    EFP Energy =                            0.0000000000000000
    Total Energy =                      -2877.5443567230918234
    Molecular point group: c1
  Basis Set: CC-PVTZ
  Basis Set:

  -Total Gradient:
     Atom            X                  Y                   Z
    ------   -----------------  -----------------  -----------------
       1        0.000051188514     0.000001365443     0.002499119528
       2       -0.000179226317    -0.000566940924    -0.002520208092
       3        0.000394113217     0.001807197402    -0.001212056168
       4        0.000096107877    -0.001376886479     0.001204531587
       5       -0.000268722853     0.000185860308     0.000026942229
       6       -0.000039110304     0.000019488422     0.000033870661
       7       -0.000309262075     0.000201001070     0.000098316217
       8        0.000013652727    -0.000004821446     0.000010206163
       9        0.000339570426     0.000043188427     0.000160509251
      10       -0.000018293696    -0.000028862081    -0.000017480574
      11       -0.000002870516    -0.000296681203    -0.000292954944
      12       -0.000022592679    -0.000006879367     0.000000941870
      13       -0.000054554366     0.000022970468     0.000008262242

  **** Optimization is complete! (in 4 steps) ****
    Final optimized geometry and variables:
    Molecular point group: c1

    Geometry (in Angstrom), charge = 0, multiplicity = 1:

    H           -4.340936426190    -0.747035116704    -0.107631072801
    O           -3.964268241832     0.114907582804    -0.107006030196
    C           -2.607844104084     0.049843225159    -0.079860468472
    C           -1.930583304535     0.805185758215     0.857901432433
    C           -1.903724117643    -0.733244001848    -0.974287653886
    H           -2.489184203113     1.405911963587     1.548048458231
    C           -0.551095878017     0.786759752481     0.894651026093
    H           -2.431208250559    -1.310305243458    -1.709899033130
    C           -0.522940375427    -0.765046736643    -0.930091128170
    H           -0.025822970186     1.375523596687     1.619149500080
    C            0.145709437065    -0.002288206462     0.002428992307
    H            0.021957078949    -1.373872005072    -1.622856265076
    BR           2.042510946581    -0.036462921595     0.060036389625

  Mulliken Charges: (a.u.)
   Center  Symbol    Alpha    Beta     Spin     Total
       1     H     0.38456  0.38456  0.00000  0.23087
       2     O     4.18281  4.18281  0.00000 -0.36562
       3     C     2.87492  2.87492  0.00000  0.25016
       4     C     3.09130  3.09130  0.00000 -0.18261
       5     C     3.10668  3.10668  0.00000 -0.21336
       6     H     0.41341  0.41341  0.00000  0.17317
       7     C     3.08310  3.08310  0.00000 -0.16619
       8     H     0.42021  0.42021  0.00000  0.15957
       9     C     3.08696  3.08696  0.00000 -0.17392
      10     H     0.41030  0.41030  0.00000  0.17939
      11     C     2.97014  2.97014  0.00000  0.05972
      12     H     0.41041  0.41041  0.00000  0.17918
      13    BR    17.56519 17.56519  0.00000 -0.13038

   Total alpha = 42.00000, Total beta = 42.00000, Total charge =  0.00000

*** Psi4 exiting successfully. Buy a developer a beer!
