  ==> Input File <==

--------------------------------------------------------------------------
set {
	reference rhf
	basis 6-31G*
}

set_num_threads( 4 )
memory 2 gb

molecule MOL {
0 1

O	 3.225979	 0.970355	 -0.599647
C	 2.701189	 0.057885	 -0.047330
C	 1.245376	 -0.013843	 0.345420
O	 3.347903	 -1.046386	 0.304773
C	 0.455112	 1.231400	 -0.050772
H	 0.838542	 -0.913825	 -0.103701
H	 1.208210	 -0.175333	 1.419774
C	 -0.998893	 1.219485	 0.433193
H	 0.482531	 1.345121	 -1.130325
H	 0.957290	 2.103070	 0.354729
C	 -1.883438	 0.145884	 -0.207175
H	 -1.431207	 2.195402	 0.224832
H	 -1.019646	 1.105716	 1.516076
C	 -3.347647	 0.245583	 0.225435
H	 -1.822183	 0.231698	 -1.291012
H	 -1.510341	 -0.844814	 0.042401
C	 -4.239992	 -0.825570	 -0.404234
H	 -3.732888	 1.230466	 -0.033079
H	 -3.408585	 0.170602	 1.310038
C	 -3.784791	 -1.234817	 -1.804595
H	 -4.258481	 -1.702445	 0.239498
H	 -5.263700	 -0.459981	 -0.450577
H	 -4.436699	 -1.994819	 -2.224144
H	 -2.776022	 -1.637635	 -1.786788
H	 -3.788432	 -0.385419	 -2.481930
C	 4.728119	 -1.109107	 -0.004993
H	 4.882018	 -1.033965	 -1.071845
H	 5.068212	 -2.067527	 0.355250
H	 5.265056	 -0.311663	 0.488280

	symmetry c1
}
set optking {
	frozen_dihedral = ("
		21 17 14 11
	")
}

ee = optimize('scf')
oeprop('DIPOLE', 'QUADRUPOLE', 'MULLIKEN_CHARGES')
f=open( 'psi4out.xyz', 'w' )
f.write( "29  " )
f.write( str(ee) + "\n" )
f.write( MOL.save_string_xyz() )
f.close()
--------------------------------------------------------------------------

    Molecular point group: c1
  Charge       = 0
  Multiplicity = 1
  Basis Set: 6-31G*
  Basis Set:
  @DF-RHF Final Energy:  -501.03640296091908
    Total Energy =                       -501.0364029609185081
    Molecular point group: c1
  Basis Set: 6-31G*
  Basis Set:
  Basis Set: 6-31G*
  Basis Set:
  @DF-RHF Final Energy:  -501.03726423774458
    Total Energy =                       -501.0372642377440116
  Basis Set: 6-31G*
  Basis Set:
  Basis Set: 6-31G*
  Basis Set:
  @DF-RHF Final Energy:  -501.03882885618771
    Total Energy =                       -501.0388288561865693
  Basis Set: 6-31G*
  Basis Set:
  Basis Set: 6-31G*
  Basis Set:
  @DF-RHF Final Energy:  -501.03895792970604
    Total Energy =                       -501.0389579297052478
  Basis Set: 6-31G*
  Basis Set:
  @DF-RHF Final Energy:  -501.03896595771278
    Total Energy =                       -501.0389659577124348
  @DF-RHF Final Energy:  -501.03896679119873
    Total Energy =                       -501.0389667911985043
  Basis Set: 6-31G*
  Basis Set:
  @DF-RHF Final Energy:  -501.03897330836105
    Total Energy =                       -501.0389733083611645
  Basis Set: 6-31G*
  Basis Set:
  Basis Set: 6-31G*
  Basis Set:
  @DF-RHF Final Energy:  -501.03897577686041
    Total Energy =                       -501.0389757768599566
  Basis Set: 6-31G*
  Basis Set:
  Basis Set: 6-31G*
  Basis Set:
  @DF-RHF Final Energy:  -501.03897684512287
    Total Energy =                       -501.0389768451228747
  Basis Set: 6-31G*
  Basis Set:
  Charge       = 0
  Multiplicity = 1
  Basis Set: 6-31G*
  Basis Set:

    Orbital Energies (a.u.)
    -----------------------

    Doubly Occupied:

       1A    -20.603311     2A    -20.545130     3A    -11.371931
       4A    -11.280615     5A    -11.234637     6A    -11.218933
       7A    -11.217412     8A    -11.216229     9A    -11.215450
      10A    -11.214792    11A    -11.209521    12A     -1.469002
      13A     -1.362443    14A     -1.097567    15A     -1.065135
      16A     -1.017619    17A     -0.975537    18A     -0.928269
      19A     -0.873285    20A     -0.804360    21A     -0.775103
      22A     -0.763220    23A     -0.700309    24A     -0.682248
      25A     -0.672051    26A     -0.647018    27A     -0.626341
      28A     -0.605281    29A     -0.601288    30A     -0.586398
      31A     -0.558083    32A     -0.550755    33A     -0.541436
      34A     -0.525791    35A     -0.519393    36A     -0.504522
      37A     -0.502405    38A     -0.477785    39A     -0.472426
      40A     -0.459115    41A     -0.455589    42A     -0.448604
      43A     -0.442016    44A     -0.435725

  @DF-RHF Final Energy:  -501.03897726501975

   => Energetics <=

    Nuclear Repulsion Energy =            617.4654916706987251
    One-Electron Energy =               -1906.0607771258105458
    Two-Electron Energy =                 787.5563081900921816
    DFT Exchange-Correlation Energy =       0.0000000000000000
    Empirical Dispersion Energy =           0.0000000000000000
    PCM Polarization Energy =               0.0000000000000000
    EFP Energy =                            0.0000000000000000
    Total Energy =                       -501.0389772650197528
    Molecular point group: c1
  Basis Set: 6-31G*
  Basis Set:

  -Total Gradient:
     Atom            X                  Y                   Z
    ------   -----------------  -----------------  -----------------
       1       -0.000004021019    -0.000005676479    -0.000011951627
       2        0.000009746317     0.000016348818     0.000033475089
       3       -0.000004792828    -0.000005645506    -0.000018797406
       4       -0.000001921468    -0.000003861164    -0.000008209652
       5       -0.000003032265    -0.000016864427    -0.000003227435
       6       -0.000009599239    -0.000003430231     0.000002115616
       7        0.000009862288     0.000001988845    -0.000005356663
       8       -0.000002120940    -0.000003411029    -0.000011628962
       9        0.000002260687     0.000019796008     0.000004343546
      10        0.000000265570    -0.000007056456     0.000020576444
      11       -0.000760939663     0.002469039102    -0.003393060820
      12        0.000001283647    -0.000000511709    -0.000025020835
      13       -0.000005097516     0.000022567538     0.000002548355
      14        0.000024802828    -0.002977009076     0.005518894915
      15       -0.000011093160    -0.000019448885    -0.000012727345
      16        0.000016370196     0.000010664757     0.000010736065
      17        0.005287111485    -0.001923364227    -0.004997034721
      18       -0.000062881607     0.000000343402     0.000069678813
      19        0.000054285473    -0.000049829130     0.000000948152
      20        0.000002067999    -0.000000175263     0.000002371278
      21       -0.004556667291     0.002456056409     0.002831075285
      22        0.000005474595     0.000020318104    -0.000005698733
      23        0.000012831997    -0.000013173071     0.000006843881
      24        0.000014383835     0.000017424343    -0.000004425006
      25       -0.000018429223    -0.000004353342    -0.000005476016
      26       -0.000000098167    -0.000000386853    -0.000000241869
      27        0.000000781942    -0.000000305474    -0.000000137703
      28       -0.000000076601    -0.000000249453    -0.000000539364
      29       -0.000000757881     0.000000204448    -0.000000073280

  **** Optimization is complete! (in 10 steps) ****
    Final optimized geometry and variables:
    Molecular point group: c1

    Geometry (in Angstrom), charge = 0, multiplicity = 1:

    O            3.073600011251     1.057223780166    -0.361729839092
    C            2.545839250831     0.123613205497     0.151019715279
    C            1.084712139948     0.030746148308     0.518785256241
    O            3.193557578094    -0.988722383656     0.474818011467
    C            0.293182689492     1.284504641033     0.153239195833
    H            0.689857348140    -0.855500027738     0.033155545038
    H            1.032296913756    -0.167579760356     1.586312680874
    C           -1.167736217055     1.248535727863     0.614479243531
    H            0.336266058814     1.435228279127    -0.921273729844
    H            0.784097478409     2.144517508385     0.595802819868
    C           -2.035095304262     0.187967213827    -0.070505743016
    H           -1.603721563074     2.227318695044     0.427403770478
    H           -1.203856881283     1.104098646857     1.693226432681
    C           -3.507443769535     0.293536454382     0.338914518955
    H           -1.944886259535     0.299905296144    -1.147570197792
    H           -1.663513293672    -0.806715131908     0.167933156687
    C           -4.447299196078    -0.783105650670    -0.238730638070
    H           -3.866968099516     1.272834750719     0.027720610775
    H           -3.584173775673     0.278558335203     1.423185759891
    C           -4.149531068176    -1.245919020007    -1.664239507571
    H           -4.486617544010    -1.634245459348     0.437318132346
    H           -5.457177825884    -0.378905038430    -0.217718495925
    H           -4.914476703216    -1.937302606406    -2.003742537796
    H           -3.194117303170    -1.754013866995    -1.738377952841
    H           -4.134409940149    -0.408161473554    -2.356008065700
    C            4.578601249008    -1.033519441094     0.184102520127
    H            4.748080140167    -0.920969936704    -0.877088974473
    H            4.918754005076    -2.001949867452     0.516422386492
    H            5.103461648555    -0.250686931064     0.712527350018

  Mulliken Charges: (a.u.)
   Center  Symbol    Alpha    Beta     Spin     Total
       1     O     4.28598  4.28598  0.00000 -0.57195
       2     C     2.60485  2.60485  0.00000  0.79031
       3     C     3.20962  3.20962  0.00000 -0.41924
       4     O     4.30748  4.30748  0.00000 -0.61496
       5     C     3.15358  3.15358  0.00000 -0.30716
       6     H     0.39891  0.39891  0.00000  0.20218
       7     H     0.40126  0.40126  0.00000  0.19747
       8     C     3.15660  3.15660  0.00000 -0.31320
       9     H     0.41322  0.41322  0.00000  0.17356
      10     H     0.40882  0.40882  0.00000  0.18237
      11     C     3.15812  3.15812  0.00000 -0.31624
      12     H     0.41839  0.41839  0.00000  0.16322
      13     H     0.42389  0.42389  0.00000  0.15222
      14     C     3.15256  3.15256  0.00000 -0.30513
      15     H     0.41959  0.41959  0.00000  0.16082
      16     H     0.42403  0.42403  0.00000  0.15193
      17     C     3.15331  3.15331  0.00000 -0.30661
      18     H     0.42346  0.42346  0.00000  0.15308
      19     H     0.42128  0.42128  0.00000  0.15744
      20     C     3.24229  3.24229  0.00000 -0.48459
      21     H     0.42238  0.42238  0.00000  0.15524
      22     H     0.42123  0.42123  0.00000  0.15754
      23     H     0.41871  0.41871  0.00000  0.16258
      24     H     0.41987  0.41987  0.00000  0.16026
      25     H     0.42143  0.42143  0.00000  0.15715
      26     C     3.09240  3.09240  0.00000 -0.18480
      27     H     0.40909  0.40909  0.00000  0.18182
      28     H     0.40853  0.40853  0.00000  0.18295
      29     H     0.40913  0.40913  0.00000  0.18174

   Total alpha = 44.00000, Total beta = 44.00000, Total charge =  0.00000
