  ==> Input File <==

--------------------------------------------------------------------------
set {
	reference rhf
	basis 6-31G*
}

set_num_threads( 1 )
memory 2 gb

molecule MOL {
0 1

O	 0.074228	 1.262779	 -0.000085
C	 0.028650	 0.075053	 -0.000277
C	 -1.233602	 -0.752807	 0.000328
O	 1.109162	 -0.694619	 -0.000298
C	 -2.501530	 0.091881	 0.000126
H	 -1.193807	 -1.406641	 -0.865785
H	 -1.193516	 -1.405779	 0.867015
H	 -2.545121	 0.729328	 -0.874513
H	 -3.377167	 -0.548497	 0.000561
H	 -2.544818	 0.730135	 0.874258
C	 1.382442	 -1.418604	 1.185768
H	 1.529372	 -0.744162	 2.017003
H	 2.286354	 -1.974219	 0.990583
H	 0.570074	 -2.093199	 1.414793

	symmetry c1
}
set optking {
	frozen_dihedral = ("
		4 2 3 6
	")
}

ee = energy('scf')
oeprop('DIPOLE', 'QUADRUPOLE', 'MULLIKEN_CHARGES')
f=open( 'psi4out.xyz', 'w' )
f.write( "14  " )
f.write( str(ee) + "\n" )
f.write( MOL.save_string_xyz() )
f.close()
--------------------------------------------------------------------------

    Molecular point group: c1

    Geometry (in Angstrom), charge = 0, multiplicity = 1:

       Center              X                  Y                   Z               Mass
    ------------   -----------------  -----------------  -----------------  -----------------
           O          0.250026717950     1.509582150584    -0.212273878052    15.994914619560
           C          0.204448717950     0.321856150584    -0.212465878052    12.000000000000
           C         -1.057803282050    -0.506003849416    -0.211860878052    12.000000000000
           O          1.284960717950    -0.447815849416    -0.212486878052    15.994914619560
           C         -2.325731282050     0.338684150584    -0.212062878052    12.000000000000
           H         -1.018008282050    -1.159837849416    -1.077973878052     1.007825032070
           H         -1.017717282050    -1.158975849416     0.654826121948     1.007825032070
           H         -2.369322282050     0.976131150584    -1.086701878052     1.007825032070
           H         -3.201368282050    -0.301693849416    -0.211627878052     1.007825032070
           H         -2.369019282050     0.976938150584     0.662069121948     1.007825032070
           C          1.558240717950    -1.171800849416     0.973579121948    12.000000000000
           H          1.705170717950    -0.497358849416     1.804814121948     1.007825032070
           H          2.462152717950    -1.727415849416     0.778394121948     1.007825032070
           H          0.745872717950    -1.846395849416     1.202604121948     1.007825032070

  Charge       = 0
  Multiplicity = 1
  Basis Set: 6-31G*
  Basis Set:

    Orbital Energies (a.u.)
    -----------------------

    Doubly Occupied:

       1A    -20.591132     2A    -20.555290     3A    -11.374677
       4A    -11.297821     5A    -11.241215     6A    -11.218521
       7A     -1.465395     8A     -1.369821     9A     -1.062073
      10A     -0.985415    11A     -0.896539    12A     -0.769727
      13A     -0.700779    14A     -0.681742    15A     -0.678141
      16A     -0.630262    17A     -0.611392    18A     -0.562426
      19A     -0.546732    20A     -0.524413    21A     -0.511790
      22A     -0.486542    23A     -0.459499    24A     -0.435751

  @DF-RHF Final Energy:  -305.84779268388320

   => Energetics <=

    Nuclear Repulsion Energy =            248.3974104945377803
    One-Electron Energy =                -909.1762740620729346
    Two-Electron Energy =                 354.9310708836516142
    DFT Exchange-Correlation Energy =       0.0000000000000000
    Empirical Dispersion Energy =           0.0000000000000000
    PCM Polarization Energy =               0.0000000000000000
    EFP Energy =                            0.0000000000000000
    Total Energy =                       -305.8477926838835401

  Mulliken Charges: (a.u.)
   Center  Symbol    Alpha    Beta     Spin     Total
       1     O     4.25742  4.25742  0.00000 -0.51483
       2     C     2.61515  2.61515  0.00000  0.76969
       3     C     3.21600  3.21600  0.00000 -0.43200
       4     O     4.30586  4.30586  0.00000 -0.61171
       5     C     3.23825  3.23825  0.00000 -0.47650
       6     H     0.39819  0.39819  0.00000  0.20362
       7     H     0.40771  0.40771  0.00000  0.18459
       8     H     0.40803  0.40803  0.00000  0.18394
       9     H     0.41890  0.41890  0.00000  0.16219
      10     H     0.41075  0.41075  0.00000  0.17849
      11     C     3.09563  3.09563  0.00000 -0.19125
      12     H     0.40962  0.40962  0.00000  0.18076
      13     H     0.39906  0.39906  0.00000  0.20188
      14     H     0.41943  0.41943  0.00000  0.16114

   Total alpha = 24.00000, Total beta = 24.00000, Total charge = -0.00000
