  ==> Input File <==

--------------------------------------------------------------------------
set {
	reference rhf
	basis 6-31G*
}

set_num_threads( 1 )
memory 2 gb

molecule MOL {
0 1

H	 -1.948992	 -0.412645	 -2.779895
N	 -1.017891	 -0.554445	 -2.439427
C	 -1.030868	 -1.335106	 -1.214885
H	 -0.626287	 0.348883	 -2.255703
C	 0.381361	 -1.506020	 -0.695721
H	 -1.638182	 -0.897166	 -0.421550
H	 -1.439630	 -2.316862	 -1.433630
O	 0.874168	 -0.245412	 -0.342030
H	 0.386619	 -2.166672	 0.170968
H	 1.003819	 -1.951156	 -1.468789
C	 2.202317	 -0.244239	 0.074611
H	 2.711377	 -1.041390	 -0.449894
H	 2.692099	 0.699270	 -0.159667
H	 2.283185	 -0.418429	 1.145558

	symmetry c1
}
set optking {
	frozen_dihedral = ("
		8 5 3 6,
		6 3 2 4,
		11 8 5 3
	")
}

ee = energy('scf')
oeprop('DIPOLE', 'QUADRUPOLE', 'MULLIKEN_CHARGES')
f=open( 'psi4out.xyz', 'w' )
f.write( "14  " )
f.write( str(ee) + "\n" )
f.write( MOL.save_string_xyz() )
f.close()
--------------------------------------------------------------------------

    Molecular point group: c1

    Geometry (in Angstrom), charge = 0, multiplicity = 1:

       Center              X                  Y                   Z               Mass
    ------------   -----------------  -----------------  -----------------  -----------------
           H         -2.239569079716     0.345778478716    -1.855742780745     1.007825032070
           N         -1.308468079716     0.203978478716    -1.515274780745    14.003074004780
           C         -1.321445079716    -0.576682521284    -0.290732780745    12.000000000000
           H         -0.916864079716     1.107306478716    -1.331550780745     1.007825032070
           C          0.090783920284    -0.747596521284     0.228431219255    12.000000000000
           H         -1.928759079716    -0.138742521284     0.502602219255     1.007825032070
           H         -1.730207079716    -1.558438521284    -0.509477780745     1.007825032070
           O          0.583590920284     0.513011478716     0.582122219255    15.994914619560
           H          0.096041920284    -1.408248521284     1.095120219255     1.007825032070
           H          0.713241920284    -1.192732521284    -0.544636780745     1.007825032070
           C          1.911739920284     0.514184478716     0.998763219255    12.000000000000
           H          2.420799920284    -0.282966521284     0.474258219255     1.007825032070
           H          2.401521920284     1.457693478716     0.764485219255     1.007825032070
           H          1.992607920284     0.339994478716     2.069710219255     1.007825032070

  Charge       = 0
  Multiplicity = 1
  Basis Set: 6-31G*
  Basis Set:

    Orbital Energies (a.u.)
    -----------------------

    Doubly Occupied:

       1A    -20.555545     2A    -15.528458     3A    -11.266501
       4A    -11.266030     5A    -11.240885     6A     -1.380895
       7A     -1.173637     8A     -0.998401     9A     -0.907301
      10A     -0.816527    11A     -0.683021    12A     -0.674114
      13A     -0.643638    14A     -0.610413    15A     -0.607855
      16A     -0.539013    17A     -0.531756    18A     -0.497266
      19A     -0.472110    20A     -0.415345    21A     -0.380137

  @DF-RHF Final Energy:  -248.12227275925665

   => Energetics <=

    Nuclear Repulsion Energy =            194.7470887499404739
    One-Electron Energy =                -723.3609472800707181
    Two-Electron Energy =                 280.4915857708734848
    DFT Exchange-Correlation Energy =       0.0000000000000000
    Empirical Dispersion Energy =           0.0000000000000000
    PCM Polarization Energy =               0.0000000000000000
    EFP Energy =                            0.0000000000000000
    Total Energy =                       -248.1222727592568162

  Mulliken Charges: (a.u.)
   Center  Symbol    Alpha    Beta     Spin     Total
       1     H     0.33280  0.33280  0.00000  0.33440
       2     N     3.92537  3.92537  0.00000 -0.85074
       3     C     3.06885  3.06885  0.00000 -0.13771
       4     H     0.32359  0.32359  0.00000  0.35283
       5     C     2.99143  2.99143  0.00000  0.01714
       6     H     0.42639  0.42639  0.00000  0.14723
       7     H     0.42045  0.42045  0.00000  0.15910
       8     O     4.31144  4.31144  0.00000 -0.62288
       9     H     0.43095  0.43095  0.00000  0.13810
      10     H     0.42145  0.42145  0.00000  0.15710
      11     C     3.07592  3.07592  0.00000 -0.15185
      12     H     0.42951  0.42951  0.00000  0.14097
      13     H     0.41517  0.41517  0.00000  0.16967
      14     H     0.42668  0.42668  0.00000  0.14665

   Total alpha = 21.00000, Total beta = 21.00000, Total charge =  0.00000
