  ==> Input File <==

--------------------------------------------------------------------------
set {
	reference rhf
	basis 6-31G*
}

set_num_threads( 1 )
memory 2 gb

molecule MOL {
0 1

H	 3.893188	 0.355400	 -0.101367
N	 3.092854	 -0.246221	 -0.068770
C	 1.865559	 0.531981	 0.018834
H	 3.199514	 -0.826043	 0.741946
C	 0.645745	 -0.382037	 -0.029944
H	 1.841966	 1.207024	 -0.831236
H	 1.815756	 1.155410	 0.915079
C	 -0.679275	 0.379305	 0.025956
H	 0.698998	 -0.976915	 -0.937203
H	 0.693479	 -1.083846	 0.802235
C	 -1.704436	 -0.263147	 0.962264
H	 -1.101380	 0.442857	 -0.975861
H	 -0.497412	 1.404495	 0.344953
C	 -3.028338	 0.498647	 1.011889
H	 -1.888708	 -1.287072	 0.644718
H	 -1.286397	 -0.325619	 1.964759
H	 -3.488796	 0.548899	 0.029153
H	 -3.733869	 0.018722	 1.683083
H	 -2.881906	 1.517515	 1.359535

	symmetry c1
}
set optking {
	frozen_dihedral = ("
		6 3 5 9,
		12 8 11 15,
		1 2 3 6
	")
}

ee = energy('scf')
oeprop('DIPOLE', 'QUADRUPOLE', 'MULLIKEN_CHARGES')
f=open( 'psi4out.xyz', 'w' )
f.write( "19  " )
f.write( str(ee) + "\n" )
f.write( MOL.save_string_xyz() )
f.close()
--------------------------------------------------------------------------

    Molecular point group: c1

    Geometry (in Angstrom), charge = 0, multiplicity = 1:

       Center              X                  Y                   Z               Mass
    ------------   -----------------  -----------------  -----------------  -----------------
           H          3.827249606403     0.264741454683    -0.429579938431     1.007825032070
           N          3.026915606403    -0.336879545317    -0.396982938431    14.003074004780
           C          1.799620606403     0.441322454683    -0.309378938431    12.000000000000
           H          3.133575606403    -0.916701545317     0.413733061569     1.007825032070
           C          0.579806606403    -0.472695545317    -0.358156938431    12.000000000000
           H          1.776027606403     1.116365454683    -1.159448938431     1.007825032070
           H          1.749817606403     1.064751454683     0.586866061569     1.007825032070
           C         -0.745213393597     0.288646454683    -0.302256938431    12.000000000000
           H          0.633059606403    -1.067573545317    -1.265415938431     1.007825032070
           H          0.627540606403    -1.174504545317     0.474022061569     1.007825032070
           C         -1.770374393597    -0.353805545317     0.634051061569    12.000000000000
           H         -1.167318393597     0.352198454683    -1.304073938431     1.007825032070
           H         -0.563350393597     1.313836454683     0.016740061569     1.007825032070
           C         -3.094276393597     0.407988454683     0.683676061569    12.000000000000
           H         -1.954646393597    -1.377730545317     0.316505061569     1.007825032070
           H         -1.352335393597    -0.416277545317     1.636546061569     1.007825032070
           H         -3.554734393597     0.458240454683    -0.299059938431     1.007825032070
           H         -3.799807393597    -0.071936545317     1.354870061569     1.007825032070
           H         -2.947844393597     1.426856454683     1.031322061569     1.007825032070

  Charge       = 0
  Multiplicity = 1
  Basis Set: 6-31G*
  Basis Set:

    Orbital Energies (a.u.)
    -----------------------

    Doubly Occupied:

       1A    -15.532295     2A    -11.240187     3A    -11.214661
       4A    -11.211597     5A    -11.208127     6A    -11.207449
       7A     -1.176570     8A     -1.073219     9A     -0.998122
      10A     -0.899915    11A     -0.814967    12A     -0.789134
      13A     -0.663386    14A     -0.640159    15A     -0.615105
      16A     -0.593697    17A     -0.561389    18A     -0.549161
      19A     -0.535255    20A     -0.491553    21A     -0.487612
      22A     -0.465896    23A     -0.456761    24A     -0.447176
      25A     -0.381311

  @DF-RHF Final Energy:  -251.34746756591127

   => Energetics <=

    Nuclear Repulsion Energy =            246.3540943473281288
    One-Electron Energy =                -826.8935318121788214
    Two-Electron Energy =                 329.1919698989403287
    DFT Exchange-Correlation Energy =       0.0000000000000000
    Empirical Dispersion Energy =           0.0000000000000000
    PCM Polarization Energy =               0.0000000000000000
    EFP Energy =                            0.0000000000000000
    Total Energy =                       -251.3474675659103923

  Mulliken Charges: (a.u.)
   Center  Symbol    Alpha    Beta     Spin     Total
       1     H     0.33258  0.33258  0.00000  0.33484
       2     N     3.92212  3.92212  0.00000 -0.84425
       3     C     3.06298  3.06298  0.00000 -0.12597
       4     H     0.33527  0.33527  0.00000  0.32946
       5     C     3.15306  3.15306  0.00000 -0.30611
       6     H     0.42040  0.42040  0.00000  0.15920
       7     H     0.43449  0.43449  0.00000  0.13101
       8     C     3.15676  3.15676  0.00000 -0.31351
       9     H     0.41110  0.41110  0.00000  0.17781
      10     H     0.42573  0.42573  0.00000  0.14854
      11     C     3.15317  3.15317  0.00000 -0.30634
      12     H     0.42031  0.42031  0.00000  0.15938
      13     H     0.42334  0.42334  0.00000  0.15333
      14     C     3.23983  3.23983  0.00000 -0.47966
      15     H     0.42176  0.42176  0.00000  0.15649
      16     H     0.42375  0.42375  0.00000  0.15250
      17     H     0.42158  0.42158  0.00000  0.15684
      18     H     0.41964  0.41964  0.00000  0.16071
      19     H     0.42213  0.42213  0.00000  0.15574

   Total alpha = 25.00000, Total beta = 25.00000, Total charge = -0.00000
