  ==> Input File <==

--------------------------------------------------------------------------
set {
	reference rhf
	basis 6-31G*
}

set_num_threads( 1 )
memory 2 gb

molecule MOL {
0 1

H	 3.728579	 -0.929791	 -0.076400
O	 2.825471	 -1.160124	 0.118783
C	 2.077188	 -0.068475	 -0.038663
C	 0.624473	 -0.343591	 0.253101
O	 2.542043	 0.973246	 -0.369940
C	 -0.265902	 0.883932	 0.072916
H	 0.322367	 -1.164761	 -0.388603
H	 0.567099	 -0.724499	 1.269649
C	 -1.728698	 0.646073	 0.462102
H	 -0.209144	 1.219470	 -0.958188
H	 0.135059	 1.692851	 0.673903
C	 -2.482460	 -0.343073	 -0.431425
H	 -2.245265	 1.602650	 0.432430
H	 -1.779332	 0.308348	 1.496285
C	 -3.960546	 -0.461025	 -0.060175
H	 -2.395034	 -0.026811	 -1.468912
H	 -2.024850	 -1.327147	 -0.371646
H	 -4.472726	 -1.168004	 -0.705284
H	 -4.465146	 0.496508	 -0.151489
H	 -4.081218	 -0.800940	 0.964585

	symmetry c1
}
set optking {
	frozen_dihedral = ("
		16 12 9 6,
		12 9 6 10,
		5 3 4 7,
		1 2 3 5
	")
}

ee = energy('scf')
oeprop('DIPOLE', 'QUADRUPOLE', 'MULLIKEN_CHARGES')
f=open( 'psi4out.xyz', 'w' )
f.write( "20  " )
f.write( str(ee) + "\n" )
f.write( MOL.save_string_xyz() )
f.close()
--------------------------------------------------------------------------

    Molecular point group: c1

    Geometry (in Angstrom), charge = 0, multiplicity = 1:

       Center              X                  Y                   Z               Mass
    ------------   -----------------  -----------------  -----------------  -----------------
           H          3.728841046624    -0.929346796348    -0.074668254591     1.007825032070
           O          2.825733046624    -1.159679796348     0.120514745409    15.994914619560
           C          2.077450046624    -0.068030796348    -0.036931254591    12.000000000000
           C          0.624735046624    -0.343146796348     0.254832745409    12.000000000000
           O          2.542305046624     0.973690203652    -0.368208254591    15.994914619560
           C         -0.265639953376     0.884376203652     0.074647745409    12.000000000000
           H          0.322629046624    -1.164316796348    -0.386871254591     1.007825032070
           H          0.567361046624    -0.724054796348     1.271380745409     1.007825032070
           C         -1.728435953376     0.646517203652     0.463833745409    12.000000000000
           H         -0.208881953376     1.219914203652    -0.956456254591     1.007825032070
           H          0.135321046624     1.693295203652     0.675634745409     1.007825032070
           C         -2.482197953376    -0.342628796348    -0.429693254591    12.000000000000
           H         -2.245002953376     1.603094203652     0.434161745409     1.007825032070
           H         -1.779069953376     0.308792203652     1.498016745409     1.007825032070
           C         -3.960283953376    -0.460580796348    -0.058443254591    12.000000000000
           H         -2.394771953376    -0.026366796348    -1.467180254591     1.007825032070
           H         -2.024587953376    -1.326702796348    -0.369914254591     1.007825032070
           H         -4.472463953376    -1.167559796348    -0.703552254591     1.007825032070
           H         -4.464883953376     0.496952203652    -0.149757254591     1.007825032070
           H         -4.080955953376    -0.800495796348     0.966316745409     1.007825032070

  Charge       = 0
  Multiplicity = 1
  Basis Set: 6-31G*
  Basis Set:

    Orbital Energies (a.u.)
    -----------------------

    Doubly Occupied:

       1A    -20.612525     2A    -20.551611     3A    -11.381188
       4A    -11.240221     5A    -11.222937     6A    -11.220702
       7A    -11.220113     8A    -11.212412     9A     -1.474590
      10A     -1.365642    11A     -1.096218    12A     -1.040971
      13A     -0.961257    14A     -0.868867    15A     -0.816206
      16A     -0.776885    17A     -0.699560    18A     -0.690038
      19A     -0.663915    20A     -0.635930    21A     -0.602805
      22A     -0.593907    23A     -0.575467    24A     -0.555765
      25A     -0.540137    26A     -0.513069    27A     -0.495650
      28A     -0.479244    29A     -0.470501    30A     -0.467508
      31A     -0.457285    32A     -0.443708

  @DF-RHF Final Energy:  -383.94876150717096

   => Energetics <=

    Nuclear Repulsion Energy =            375.9198767395207597
    One-Electron Energy =               -1267.8436140055987380
    Two-Electron Energy =                 507.9749757589070214
    DFT Exchange-Correlation Energy =       0.0000000000000000
    Empirical Dispersion Energy =           0.0000000000000000
    PCM Polarization Energy =               0.0000000000000000
    EFP Energy =                            0.0000000000000000
    Total Energy =                       -383.9487615071709570

  Mulliken Charges: (a.u.)
   Center  Symbol    Alpha    Beta     Spin     Total
       1     H     0.26785  0.26785  0.00000  0.46429
       2     O     4.35158  4.35158  0.00000 -0.70317
       3     C     2.62220  2.62220  0.00000  0.75559
       4     C     3.21288  3.21288  0.00000 -0.42576
       5     O     4.27927  4.27927  0.00000 -0.55855
       6     C     3.15439  3.15439  0.00000 -0.30879
       7     H     0.39684  0.39684  0.00000  0.20633
       8     H     0.39906  0.39906  0.00000  0.20187
       9     C     3.15553  3.15553  0.00000 -0.31106
      10     H     0.41220  0.41220  0.00000  0.17560
      11     H     0.40803  0.40803  0.00000  0.18394
      12     C     3.15487  3.15487  0.00000 -0.30974
      13     H     0.41787  0.41787  0.00000  0.16426
      14     H     0.42368  0.42368  0.00000  0.15264
      15     C     3.23923  3.23923  0.00000 -0.47846
      16     H     0.42146  0.42146  0.00000  0.15708
      17     H     0.42276  0.42276  0.00000  0.15448
      18     H     0.41833  0.41833  0.00000  0.16333
      19     H     0.42064  0.42064  0.00000  0.15873
      20     H     0.42131  0.42131  0.00000  0.15738

   Total alpha = 32.00000, Total beta = 32.00000, Total charge = -0.00000
