  ==> Input File <==

--------------------------------------------------------------------------
set {
	reference rhf
	basis cc-pvtz
}

set_num_threads( 4 )
memory 2 gb

molecule MOL {
0 1

H	 -0.606995	 4.063460	 -0.678793
O	 -0.783735	 3.209963	 -0.328992
C	 0.344014	 2.385645	 -0.472861
C	 0.027642	 1.012027	 0.090274
H	 1.189702	 2.804127	 0.067001
H	 0.630206	 2.313737	 -1.518512
C	 -1.138737	 0.285728	 -0.581921
H	 -0.190057	 1.125523	 1.147266
H	 0.927536	 0.406084	 0.017896
C	 -1.933983	 -0.631436	 0.343653
H	 -0.763151	 -0.285569	 -1.422081
H	 -1.808359	 1.035291	 -0.992333
H	 -2.789188	 -1.049673	 -0.174718
H	 -1.335629	 -1.461368	 0.700418
H	 -2.305435	 -0.092167	 1.209725

	symmetry c1
}
set optking {
	frozen_dihedral = ("
		8 4 7 11
	")
}

ee = optimize('scf')
oeprop('DIPOLE', 'QUADRUPOLE', 'MULLIKEN_CHARGES')
f=open( 'psi4out.xyz', 'w' )
f.write( "15  " )
f.write( str(ee) + "\n" )
f.write( MOL.save_string_xyz() )
f.close()
--------------------------------------------------------------------------

    Molecular point group: c1
  Charge       = 0
  Multiplicity = 1
  Basis Set: CC-PVTZ
  Basis Set:
  @DF-RHF Final Energy:  -232.23584365878656
    Total Energy =                       -232.2358436587866777
    Molecular point group: c1
  Basis Set: CC-PVTZ
  Basis Set:
  Basis Set: CC-PVTZ
  Basis Set:
  @DF-RHF Final Energy:  -232.23670278926130
    Total Energy =                       -232.2367027892613009
  Basis Set: CC-PVTZ
  Basis Set:
  Basis Set: CC-PVTZ
  Basis Set:
  @DF-RHF Final Energy:  -232.23676684417592
    Total Energy =                       -232.2367668441759747
  Basis Set: CC-PVTZ
  Basis Set:
  Basis Set: CC-PVTZ
  Basis Set:
  @DF-RHF Final Energy:  -232.23677368320506
    Total Energy =                       -232.2367736832050014
  Basis Set: CC-PVTZ
  Basis Set:
  Basis Set: CC-PVTZ
  Basis Set:
  @DF-RHF Final Energy:  -232.23677543804843
    Total Energy =                       -232.2367754380482552
  Basis Set: CC-PVTZ
  Basis Set:
  Charge       = 0
  Multiplicity = 1
  Basis Set: CC-PVTZ
  Basis Set:

    Orbital Energies (a.u.)
    -----------------------

    Doubly Occupied:

       1A    -20.546657     2A    -11.266449     3A    -11.210419
       4A    -11.207470     5A    -11.202082     6A     -1.364557
       7A     -1.064966     8A     -0.974961     9A     -0.856556
      10A     -0.787700    11A     -0.708914    12A     -0.636282
      13A     -0.613610    14A     -0.595754    15A     -0.547567
      16A     -0.525683    17A     -0.515800    18A     -0.476696
      19A     -0.463659    20A     -0.458452    21A     -0.432966

  @DF-RHF Final Energy:  -232.23677553933265

   => Energetics <=

    Nuclear Repulsion Energy =            189.1514921555090609
    One-Electron Energy =                -689.8621354916931523
    Two-Electron Energy =                 268.4738677968513798
    DFT Exchange-Correlation Energy =       0.0000000000000000
    Empirical Dispersion Energy =           0.0000000000000000
    PCM Polarization Energy =               0.0000000000000000
    EFP Energy =                            0.0000000000000000
    Total Energy =                       -232.2367755393327116
    Molecular point group: c1
  Basis Set: CC-PVTZ
  Basis Set:

  -Total Gradient:
     Atom            X                  Y                   Z
    ------   -----------------  -----------------  -----------------
       1       -0.000000058812     0.000004963130     0.000005708999
       2       -0.000001595017    -0.000000545423    -0.000013896549
       3       -0.000004342548    -0.000006447211     0.000013884541
       4       -0.001983427462     0.003652127792    -0.000359995486
       5        0.000001379940    -0.000007829689    -0.000007437477
       6        0.000000019277     0.000004830146    -0.000001713724
       7       -0.000175616000     0.002968039606    -0.002728431099
       8        0.001685490579    -0.003502615523     0.000748823396
       9        0.000002415437    -0.000001263536    -0.000006774326
      10        0.000000038627    -0.000000802842     0.000005759821
      11        0.000467343410    -0.003114940525     0.002347867615
      12        0.000003268118    -0.000002370148    -0.000001169355
      13        0.000007046020     0.000006716289     0.000000387840
      14        0.000001439362    -0.000003439368    -0.000004320317
      15       -0.000003400930     0.000003577302     0.000001306120

  **** Optimization is complete! (in 6 steps) ****
    Final optimized geometry and variables:
    Molecular point group: c1

    Geometry (in Angstrom), charge = 0, multiplicity = 1:

    H            0.158285383086     2.768205313360    -0.488782773883
    O           -0.025002824989     1.939667301225    -0.086469592093
    C            1.044097754313     1.053481035576    -0.294524137739
    C            0.688770834554    -0.295359576751     0.296934348608
    H            1.946098190917     1.433473183971     0.178135353621
    H            1.248863815442     0.948356196443    -1.358386793619
    C           -0.472777539947    -1.004491234263    -0.409270250556
    H            0.469024554008    -0.177092709661     1.353096810085
    H            1.574711495293    -0.923565719950     0.252277731661
    C           -1.219646636459    -1.966475280946     0.511172920577
    H           -0.084615309027    -1.575194527331    -1.247833581347
    H           -1.166008023665    -0.271624554182    -0.801643398360
    H           -2.003721463723    -2.491205609895    -0.022908844865
    H           -0.549080292667    -2.711563028701     0.928049710881
    H           -1.678310063371    -1.435749206450     1.338295359508

  Mulliken Charges: (a.u.)
   Center  Symbol    Alpha    Beta     Spin     Total
       1     H     0.39535  0.39535  0.00000  0.20930
       2     O     4.19881  4.19881  0.00000 -0.39762
       3     C     2.97334  2.97334  0.00000  0.05331
       4     C     3.08891  3.08891  0.00000 -0.17782
       5     H     0.46459  0.46459  0.00000  0.07082
       6     H     0.47321  0.47321  0.00000  0.05357
       7     C     3.08342  3.08342  0.00000 -0.16684
       8     H     0.45351  0.45351  0.00000  0.09297
       9     H     0.45392  0.45392  0.00000  0.09215
      10     C     3.14907  3.14907  0.00000 -0.29815
      11     H     0.45746  0.45746  0.00000  0.08509
      12     H     0.44797  0.44797  0.00000  0.10406
      13     H     0.45033  0.45033  0.00000  0.09934
      14     H     0.45701  0.45701  0.00000  0.08599
      15     H     0.45309  0.45309  0.00000  0.09382

   Total alpha = 21.00000, Total beta = 21.00000, Total charge = -0.00000
