  ==> Input File <==

--------------------------------------------------------------------------
set {
	reference rhf
	basis 6-31G*
}

set_num_threads( 1 )
memory 2 gb

molecule MOL {
0 1

H	 -2.340766	 0.005334	 0.997987
O	 -2.035884	 -0.060112	 0.102722
C	 -0.955155	 0.788182	 -0.092531
C	 0.353668	 0.040312	 -0.004810
H	 -0.985057	 1.290372	 -1.054184
H	 -0.974469	 1.533190	 0.688632
F	 0.394464	 -0.937475	 -0.903053
F	 1.368604	 0.853376	 -0.249821
F	 0.546173	 -0.502608	 1.179981

	symmetry c1
}
set optking {
	frozen_dihedral = ("
		7 4 3 5
	")
}

ee = energy('scf')
oeprop('DIPOLE', 'QUADRUPOLE', 'MULLIKEN_CHARGES')
f=open( 'psi4out.xyz', 'w' )
f.write( "9  " )
f.write( str(ee) + "\n" )
f.write( MOL.save_string_xyz() )
f.close()
--------------------------------------------------------------------------

    Molecular point group: c1

    Geometry (in Angstrom), charge = 0, multiplicity = 1:

       Center              X                  Y                   Z               Mass
    ------------   -----------------  -----------------  -----------------  -----------------
           H         -2.338329481164    -0.001514845939     0.981716101144     1.007825032070
           O         -2.033447481164    -0.066960845939     0.086451101144    15.994914619560
           C         -0.952718481164     0.781333154061    -0.108801898856    12.000000000000
           C          0.356104518836     0.033463154061    -0.021080898856    12.000000000000
           H         -0.982620481164     1.283523154061    -1.070454898856     1.007825032070
           H         -0.972032481164     1.526341154061     0.672361101144     1.007825032070
           F          0.396900518836    -0.944323845939    -0.919323898856    18.998403224000
           F          1.371040518836     0.846527154061    -0.266091898856    18.998403224000
           F          0.548609518836    -0.509456845939     1.163710101144    18.998403224000

  Charge       = 0
  Multiplicity = 1
  Basis Set: 6-31G*
  Basis Set:

    Orbital Energies (a.u.)
    -----------------------

    Doubly Occupied:

       1A    -26.340504     2A    -26.340336     3A    -26.329808
       4A    -20.589701     5A    -11.496239     6A    -11.310583
       7A     -1.735339     8A     -1.637001     9A     -1.627822
      10A     -1.402521    11A     -1.046853    12A     -0.919538
      13A     -0.825424    14A     -0.824617    15A     -0.793656
      16A     -0.735338    17A     -0.707945    18A     -0.695589
      19A     -0.664336    20A     -0.651345    21A     -0.637074
      22A     -0.634090    23A     -0.602899    24A     -0.529041
      25A     -0.479618

  @DF-RHF Final Energy:  -450.65942971446782

   => Energetics <=

    Nuclear Repulsion Energy =            276.5839548392676761
    One-Electron Energy =               -1175.3723400812818909
    Two-Electron Energy =                 448.1289555275459975
    DFT Exchange-Correlation Energy =       0.0000000000000000
    Empirical Dispersion Energy =           0.0000000000000000
    PCM Polarization Energy =               0.0000000000000000
    EFP Energy =                            0.0000000000000000
    Total Energy =                       -450.6594297144682173

  Mulliken Charges: (a.u.)
   Center  Symbol    Alpha    Beta     Spin     Total
       1     H     0.27067  0.27067  0.00000  0.45865
       2     O     4.36117  4.36117  0.00000 -0.72234
       3     C     3.05801  3.05801  0.00000 -0.11602
       4     C     2.45720  2.45720  0.00000  1.08561
       5     H     0.39807  0.39807  0.00000  0.20385
       6     H     0.41195  0.41195  0.00000  0.17610
       7     F     4.68091  4.68091  0.00000 -0.36181
       8     F     4.68244  4.68244  0.00000 -0.36488
       9     F     4.67958  4.67958  0.00000 -0.35916

   Total alpha = 25.00000, Total beta = 25.00000, Total charge = -0.00000
