  ==> Input File <==

--------------------------------------------------------------------------
set {
	reference rhf
	basis 6-31G*
}

set_num_threads( 1 )
memory 2 gb

molecule MOL {
0 1

H	 0.101286	 -0.100461	 -2.332726
O	 -0.384834	 0.712829	 -2.342806
C	 -0.224731	 1.354852	 -1.111491
C	 -0.793441	 0.596080	 0.058728
H	 -0.724903	 2.312330	 -1.202409
H	 0.826206	 1.569911	 -0.920945
C	 -1.530462	 -0.493172	 -0.025500
H	 -0.559426	 1.010779	 1.027100
H	 -1.092586	 -1.461565	 -0.186463
H	 -2.602122	 -0.450675	 0.050101

	symmetry c1
}
set optking {
	frozen_dihedral = ("
		5 3 2 1,
		5 3 4 7
	")
}

ee = energy('scf')
oeprop('DIPOLE', 'QUADRUPOLE', 'MULLIKEN_CHARGES')
f=open( 'psi4out.xyz', 'w' )
f.write( "10  " )
f.write( str(ee) + "\n" )
f.write( MOL.save_string_xyz() )
f.close()
--------------------------------------------------------------------------

    Molecular point group: c1

    Geometry (in Angstrom), charge = 0, multiplicity = 1:

       Center              X                  Y                   Z               Mass
    ------------   -----------------  -----------------  -----------------  -----------------
           H          0.804610119142    -0.648300334330    -1.402270387820     1.007825032070
           O          0.318490119142     0.164989665670    -1.412350387820    15.994914619560
           C          0.478593119142     0.807012665670    -0.181035387820    12.000000000000
           C         -0.090116880858     0.048240665670     0.989183612180    12.000000000000
           H         -0.021578880858     1.764490665670    -0.271953387820     1.007825032070
           H          1.529530119142     1.022071665670     0.009510612180     1.007825032070
           C         -0.827137880858    -1.041011334330     0.904955612180    12.000000000000
           H          0.143898119142     0.462939665670     1.957555612180     1.007825032070
           H         -0.389261880858    -2.009404334330     0.743992612180     1.007825032070
           H         -1.898797880858    -0.998514334330     0.980556612180     1.007825032070

  Charge       = 0
  Multiplicity = 1
  Basis Set: 6-31G*
  Basis Set:

    Orbital Energies (a.u.)
    -----------------------

    Doubly Occupied:

       1A    -20.558642     2A    -11.282540     3A    -11.241985
       4A    -11.213937     5A     -1.367630     6A     -1.060852
       7A     -0.929981     8A     -0.769846     9A     -0.688090
      10A     -0.642560    11A     -0.614616    12A     -0.582549
      13A     -0.568458    14A     -0.501328    15A     -0.451896
      16A     -0.264129

  @DF-RHF Final Energy:  -191.77126095557389

   => Energetics <=

    Nuclear Repulsion Energy =            119.1596661819962577
    One-Electron Energy =                -496.3837676720006584
    Two-Electron Energy =                 185.4528405344304360
    DFT Exchange-Correlation Energy =       0.0000000000000000
    Empirical Dispersion Energy =           0.0000000000000000
    PCM Polarization Energy =               0.0000000000000000
    EFP Energy =                            0.0000000000000000
    Total Energy =                       -191.7712609555739505

  Mulliken Charges: (a.u.)
   Center  Symbol    Alpha    Beta     Spin     Total
       1     H     0.27937  0.27937  0.00000  0.44126
       2     O     4.36387  4.36387  0.00000 -0.72775
       3     C     2.99699  2.99699  0.00000  0.00601
       4     C     3.08819  3.08819  0.00000 -0.17638
       5     H     0.40014  0.40014  0.00000  0.19973
       6     H     0.43221  0.43221  0.00000  0.13558
       7     C     3.22072  3.22072  0.00000 -0.44145
       8     H     0.40596  0.40596  0.00000  0.18809
       9     H     0.41135  0.41135  0.00000  0.17729
      10     H     0.40119  0.40119  0.00000  0.19762

   Total alpha = 16.00000, Total beta = 16.00000, Total charge =  0.00000
