                              Psi4 1.0.54 Driver

  ==> Input File <==

--------------------------------------------------------------------------
set {
	reference rhf
	basis cc-pvtz
}

set_num_threads( 4 )
memory 2 gb

molecule MOL {
0 1

O	 -2.817697	 1.304178	 0.001046
C	 -2.664672	 0.129869	 0.003507
C	 -3.797908	 -0.860100	 -0.001145
O	 -1.481217	 -0.452708	 0.001092
H	 -4.408836	 -0.679689	 -0.875387
H	 -3.443486	 -1.878443	 -0.002770
H	 -4.412123	 -0.683688	 0.871605
C	 -0.332055	 0.384012	 -0.000250
C	 0.892252	 -0.506059	 -0.000295
H	 -0.360822	 1.020205	 -0.874146
H	 -0.359817	 1.021310	 0.872861
C	 2.188199	 0.299473	 -0.001416
H	 0.857046	 -1.152781	 -0.871031
H	 0.857910	 -1.151798	 0.871202
C	 2.075788	 1.611505	 -0.772819
H	 2.484003	 0.511825	 1.022978
H	 2.987192	 -0.299827	 -0.430862
C	 3.370951	 2.416213	 -0.775184
H	 1.278840	 2.212017	 -0.343499
H	 1.780393	 1.400560	 -1.796699
H	 3.674488	 2.672358	 0.234322
H	 3.257478	 3.339996	 -1.330391
H	 4.180012	 1.854473	 -1.229851

	symmetry c1
}
set optking {
	frozen_dihedral = ("
		16 12 9 13
	")
}

ee,wfn = optimize('scf', return_wfn=True)
oeprop( wfn, 'DIPOLE', 'QUADRUPOLE', 'MULLIKEN_CHARGES')
f=open( 'psi4out.xyz', 'w' )
f.write( "23  " )
f.write( str(ee) + "\n" )
f.write( MOL.save_string_xyz() )
f.close()
--------------------------------------------------------------------------

    Molecular point group: c1
  Charge       = 0
  Multiplicity = 1
  Basis Set: CC-PVTZ
  Basis Set:
  @DF-RHF Final Energy:  -423.12719043654533
    Total Energy =                       -423.1271904365451064
    Molecular point group: c1
  Basis Set: CC-PVTZ
  Basis Set:
  Basis Set: CC-PVTZ
  Basis Set:
  @DF-RHF Final Energy:  -423.12696444440894
    Total Energy =                       -423.1269644444090545
  Basis Set: CC-PVTZ
  Basis Set:
  Basis Set: CC-PVTZ
  Basis Set:
  @DF-RHF Final Energy:  -423.12997640136723
    Total Energy =                       -423.1299764013672302
  Basis Set: CC-PVTZ
  Basis Set:
  Basis Set: CC-PVTZ
  Basis Set:
  @DF-RHF Final Energy:  -423.12904958505129
    Total Energy =                       -423.1290495850516891
  Basis Set: CC-PVTZ
  Basis Set:
  Basis Set: CC-PVTZ
  Basis Set:
  @DF-RHF Final Energy:  -423.13017682412311
    Total Energy =                       -423.1301768241230548
  Basis Set: CC-PVTZ
  Basis Set:
  Basis Set: CC-PVTZ
  Basis Set:
  @DF-RHF Final Energy:  -423.13022534422100
    Total Energy =                       -423.1302253442204346
  Basis Set: CC-PVTZ
  Basis Set:
  Basis Set: CC-PVTZ
  Basis Set:
  @DF-RHF Final Energy:  -423.13022531014764
    Total Energy =                       -423.1302253101475799
  Basis Set: CC-PVTZ
  Basis Set:
  Charge       = 0
  Multiplicity = 1
  Basis Set: CC-PVTZ
  Basis Set:

    Orbital Energies (a.u.)
    -----------------------

    Doubly Occupied:

       1A    -20.595765     2A    -20.529425     3A    -11.366299
       4A    -11.279154     5A    -11.230568     6A    -11.222311
       7A    -11.221285     8A    -11.219705     9A    -11.210836
      10A     -1.471021    11A     -1.363866    12A     -1.093805
      13A     -1.041220    14A     -1.003018    15A     -0.932713
      16A     -0.853414    17A     -0.789635    18A     -0.780724
      19A     -0.692685    20A     -0.688047    21A     -0.671353
      22A     -0.641235    23A     -0.608796    24A     -0.589338
      25A     -0.579812    26A     -0.572502    27A     -0.565058
      28A     -0.530389    29A     -0.526441    30A     -0.513360
      31A     -0.496949    32A     -0.475750    33A     -0.465023
      34A     -0.462647    35A     -0.452529    36A     -0.439304

  @DF-RHF Final Energy:  -423.13022876414522

   => Energetics <=

    Nuclear Repulsion Energy =            457.5161382536718406
    One-Electron Energy =               -1482.9407613540788589
    Two-Electron Energy =                 602.2943943362618029
    DFT Exchange-Correlation Energy =       0.0000000000000000
    Empirical Dispersion Energy =           0.0000000000000000
    PCM Polarization Energy =               0.0000000000000000
    EFP Energy =                            0.0000000000000000
    Total Energy =                       -423.1302287641451585
    Molecular point group: c1
  Basis Set: CC-PVTZ
  Basis Set:

  -Total Gradient:
     Atom            X                  Y                   Z
    ------   -----------------  -----------------  -----------------
       1       -0.000039076138     0.000007648128    -0.000004653440
       2        0.000113544587    -0.000126192344     0.000015584181
       3       -0.000048271135     0.000040900141     0.000009252694
       4       -0.000118028418     0.000050556819    -0.000020387949
       5        0.000014202333    -0.000010148138     0.000024076279
       6        0.000001195811     0.000018994883    -0.000001620323
       7        0.000008239493    -0.000004029380    -0.000032799318
       8        0.000061764641     0.000030164868     0.000015830690
       9       -0.002079535895     0.003949527834    -0.003511951416
      10       -0.000001908185    -0.000009041131     0.000009002014
      11        0.000007061095    -0.000003258082    -0.000009888070
      12       -0.002859082452     0.004720790925     0.000480045118
      13        0.002191271611    -0.004042686204     0.002853737023
      14        0.000002429504     0.000003490033     0.000001463675
      15        0.000019171113    -0.000038947731     0.000017980562
      16        0.002743941257    -0.004623073944     0.000186586670
      17        0.000002020679     0.000007092352    -0.000004137703
      18       -0.000011047412     0.000020516850    -0.000010771119
      19       -0.000007995011     0.000024034659     0.000009576778
      20       -0.000007579127     0.000000092950    -0.000046494435
      21        0.000006725217     0.000004727289     0.000026991289
      22       -0.000005240778    -0.000005831610     0.000002305069
      23        0.000006197209    -0.000015329169    -0.000009728270

  **** Optimization is complete! (in 8 steps) ****
    Final optimized geometry and variables:
    Molecular point group: c1

    Geometry (in Angstrom), charge = 0, multiplicity = 1:

    O           -2.632941992819     0.761506856615     0.180832516310
    C           -2.427729122647    -0.404964454715     0.179075085823
    C           -3.516089102042    -1.443985790091     0.204915606987
    O           -1.220089549413    -0.934334121300     0.155000598667
    H           -4.156732672786    -1.292431962916    -0.653383323435
    H           -3.117234183233    -2.445729724736     0.195172130242
    H           -4.114690127061    -1.292949419671     1.093178009519
    C           -0.109638807688    -0.046581495486     0.126680377628
    C            1.144540309744    -0.893681164363     0.091229764436
    H           -0.198842192134     0.593218074852    -0.737971218962
    H           -0.139104375078     0.581325057122     1.007325813277
    C            2.460085390396    -0.108322175345     0.194770552074
    H            1.149369821038    -1.518121900337    -0.795960246230
    H            1.097128337834    -1.589421104894     0.922645221303
    C            2.538754508313     1.192608200772    -0.600599891946
    H            2.693550437556     0.071528904191     1.240561520834
    H            3.253477799767    -0.765661122350    -0.150140642299
    C            3.921722840706     1.832152121468    -0.534500045412
    H            1.804602025312     1.902298193829    -0.233465598764
    H            2.283069763987     0.996907499911    -1.638766749006
    H            4.197089095730     2.061568268662     0.489541903495
    H            3.953352914497     2.756041672988    -1.099998368876
    H            4.679388144441     1.169472507964    -0.939042922460

  Mulliken Charges: (a.u.)
   Center  Symbol    Alpha    Beta     Spin     Total
       1     O     4.20249  4.20249  0.00000 -0.40499
       2     C     2.81687  2.81687  0.00000  0.36626
       3     C     3.13991  3.13991  0.00000 -0.27981
       4     O     4.14569  4.14569  0.00000 -0.29138
       5     H     0.44218  0.44218  0.00000  0.11565
       6     H     0.44180  0.44180  0.00000  0.11640
       7     H     0.44215  0.44215  0.00000  0.11570
       8     C     2.97761  2.97761  0.00000  0.04477
       9     C     3.09057  3.09057  0.00000 -0.18114
      10     H     0.45090  0.45090  0.00000  0.09820
      11     H     0.45304  0.45304  0.00000  0.09392
      12     C     3.10146  3.10146  0.00000 -0.20292
      13     H     0.44880  0.44880  0.00000  0.10239
      14     H     0.44731  0.44731  0.00000  0.10538
      15     C     3.09313  3.09313  0.00000 -0.18625
      16     H     0.44983  0.44983  0.00000  0.10034
      17     H     0.44967  0.44967  0.00000  0.10065
      18     C     3.14999  3.14999  0.00000 -0.29998
      19     H     0.44972  0.44972  0.00000  0.10057
      20     H     0.45114  0.45114  0.00000  0.09772
      21     H     0.45448  0.45448  0.00000  0.09104
      22     H     0.44688  0.44688  0.00000  0.10624
      23     H     0.45438  0.45438  0.00000  0.09124

   Total alpha = 36.00000, Total beta = 36.00000, Total charge = -0.00000

*** Psi4 exiting successfully. Buy a developer a beer!
