  ==> Input File <==

--------------------------------------------------------------------------
set {
	reference rhf
	basis 6-31G*
}

set_num_threads( 1 )
memory 2 gb

molecule MOL {
0 1

H	 -3.795032	 1.138949	 -0.294228
C	 -3.092554	 0.524709	 0.234821
C	 -2.076860	 -0.007332	 -0.404944
H	 -3.242774	 0.361182	 1.285347
O	 -1.180634	 -0.819263	 0.215062
H	 -1.904637	 0.150009	 -1.455077
C	 0.051604	 -1.018856	 -0.387932
C	 1.043764	 0.054862	 -0.001873
H	 -0.017620	 -1.041351	 -1.469781
H	 0.437898	 -1.966374	 -0.042284
F	 2.212596	 -0.199467	 -0.571921
F	 0.652529	 1.252447	 -0.405055
F	 1.230877	 0.110694	 1.300533

	symmetry c1
}
set optking {
	frozen_dihedral = ("
		11 8 7 9,
		3 5 7 9,
		6 3 2 1
	")
}

ee = energy('scf')
oeprop('DIPOLE', 'QUADRUPOLE', 'MULLIKEN_CHARGES')
f=open( 'psi4out.xyz', 'w' )
f.write( "13  " )
f.write( str(ee) + "\n" )
f.write( MOL.save_string_xyz() )
f.close()
--------------------------------------------------------------------------

    Molecular point group: c1

    Geometry (in Angstrom), charge = 0, multiplicity = 1:

       Center              X                  Y                   Z               Mass
    ------------   -----------------  -----------------  -----------------  -----------------
           H         -3.806584511558     1.120887367474    -0.301181490879     1.007825032070
           C         -3.104106511558     0.506647367474     0.227867509121    12.000000000000
           C         -2.088412511558    -0.025393632526    -0.411897490879    12.000000000000
           H         -3.254326511558     0.343120367474     1.278393509121     1.007825032070
           O         -1.192186511558    -0.837324632526     0.208108509121    15.994914619560
           H         -1.916189511558     0.131947367474    -1.462030490879     1.007825032070
           C          0.040051488442    -1.036917632526    -0.394885490879    12.000000000000
           C          1.032211488442     0.036800367474    -0.008826490879    12.000000000000
           H         -0.029172511558    -1.059412632526    -1.476734490879     1.007825032070
           H          0.426345488442    -1.984435632526    -0.049237490879     1.007825032070
           F          2.201043488442    -0.217528632526    -0.578874490879    18.998403224000
           F          0.640976488442     1.234385367474    -0.412008490879    18.998403224000
           F          1.219324488442     0.092632367474     1.293579509121    18.998403224000

  Charge       = 0
  Multiplicity = 1
  Basis Set: 6-31G*
  Basis Set:

    Orbital Energies (a.u.)
    -----------------------

    Doubly Occupied:

       1A    -26.344061     2A    -26.342418     3A    -26.340086
       4A    -20.607910     5A    -11.502533     6A    -11.318583
       7A    -11.299115     8A    -11.216396     9A     -1.740981
      10A     -1.639080    11A     -1.637493    12A     -1.437893
      13A     -1.083807    14A     -1.016397    15A     -0.924766
      16A     -0.836079    17A     -0.830215    18A     -0.819815
      19A     -0.792792    20A     -0.719882    21A     -0.710989
      22A     -0.694755    23A     -0.675648    24A     -0.660685
      25A     -0.654012    26A     -0.642357    27A     -0.636590
      28A     -0.583135    29A     -0.563527    30A     -0.524075
      31A     -0.511195    32A     -0.352719

  @DF-RHF Final Energy:  -527.53582552624198

   => Energetics <=

    Nuclear Repulsion Energy =            414.1055447947603625
    One-Electron Energy =               -1551.9626336869675924
    Two-Electron Energy =                 610.3212633659657058
    DFT Exchange-Correlation Energy =       0.0000000000000000
    Empirical Dispersion Energy =           0.0000000000000000
    PCM Polarization Energy =               0.0000000000000000
    EFP Energy =                            0.0000000000000000
    Total Energy =                       -527.5358255262415241

  Mulliken Charges: (a.u.)
   Center  Symbol    Alpha    Beta     Spin     Total
       1     H     0.40714  0.40714  0.00000  0.18573
       2     C     3.23329  3.23329  0.00000 -0.46657
       3     C     2.89668  2.89668  0.00000  0.20665
       4     H     0.40145  0.40145  0.00000  0.19709
       5     O     4.30160  4.30160  0.00000 -0.60321
       6     H     0.40801  0.40801  0.00000  0.18398
       7     C     3.06277  3.06277  0.00000 -0.12554
       8     C     2.45561  2.45561  0.00000  1.08878
       9     H     0.40614  0.40614  0.00000  0.18771
      10     H     0.39054  0.39054  0.00000  0.21892
      11     F     4.68288  4.68288  0.00000 -0.36576
      12     F     4.67929  4.67929  0.00000 -0.35857
      13     F     4.67461  4.67461  0.00000 -0.34921

   Total alpha = 32.00000, Total beta = 32.00000, Total charge =  0.00000
