  ==> Input File <==

--------------------------------------------------------------------------
set {
	reference rhf
	basis 6-31G*
}

set_num_threads( 1 )
memory 2 gb

molecule MOL {
0 1

O	 -0.682937	 1.318834	 -0.186099
C	 -0.860635	 0.152188	 -0.042321
C	 -2.173363	 -0.477127	 0.338347
O	 0.083258	 -0.765189	 -0.202595
H	 -2.477673	 -1.180929	 -0.427595
H	 -2.923125	 0.290956	 0.455536
H	 -2.058825	 -1.029004	 1.264191
C	 1.326451	 -0.366206	 -0.775379
C	 2.257459	 0.220923	 0.269202
H	 1.140214	 0.335778	 -1.573924
H	 1.736429	 -1.274604	 -1.192789
H	 3.219964	 0.444195	 -0.180759
H	 1.851309	 1.138495	 0.675982
H	 2.415018	 -0.483452	 1.078799

	symmetry c1
}
set optking {
	frozen_dihedral = ("
		10 8 4 2
	")
}

ee = energy('scf')
oeprop('DIPOLE', 'QUADRUPOLE', 'MULLIKEN_CHARGES')
f=open( 'psi4out.xyz', 'w' )
f.write( "14  " )
f.write( str(ee) + "\n" )
f.write( MOL.save_string_xyz() )
f.close()
--------------------------------------------------------------------------

    Molecular point group: c1

    Geometry (in Angstrom), charge = 0, multiplicity = 1:

       Center              X                  Y                   Z               Mass
    ------------   -----------------  -----------------  -----------------  -----------------
           O         -0.682177896556     1.302474261998    -0.087990177068    15.994914619560
           C         -0.859875896556     0.135828261998     0.055787822932    12.000000000000
           C         -2.172603896556    -0.493486738002     0.436455822932    12.000000000000
           O          0.084017103444    -0.781548738002    -0.104486177068    15.994914619560
           H         -2.476913896556    -1.197288738002    -0.329486177068     1.007825032070
           H         -2.922365896556     0.274596261998     0.553644822932     1.007825032070
           H         -2.058065896556    -1.045363738002     1.362299822932     1.007825032070
           C          1.327210103444    -0.382565738002    -0.677270177068    12.000000000000
           C          2.258218103444     0.204563261998     0.367310822932    12.000000000000
           H          1.140973103444     0.319418261998    -1.475815177068     1.007825032070
           H          1.737188103444    -1.290963738002    -1.094680177068     1.007825032070
           H          3.220723103444     0.427835261998    -0.082650177068     1.007825032070
           H          1.852068103444     1.122135261998     0.774090822932     1.007825032070
           H          2.415777103444    -0.499811738002     1.176907822932     1.007825032070

  Charge       = 0
  Multiplicity = 1
  Basis Set: 6-31G*
  Basis Set:

    Orbital Energies (a.u.)
    -----------------------

    Doubly Occupied:

       1A    -20.601419     2A    -20.545167     3A    -11.376093
       4A    -11.286165     5A    -11.233424     6A    -11.216224
       7A     -1.467652     8A     -1.363112     9A     -1.054751
      10A     -0.997985    11A     -0.882363    12A     -0.766023
      13A     -0.699370    14A     -0.681777    15A     -0.656066
      16A     -0.609840    17A     -0.586470    18A     -0.570160
      19A     -0.559624    20A     -0.529778    21A     -0.512443
      22A     -0.495758    23A     -0.450256    24A     -0.438673

  @DF-RHF Final Energy:  -305.87484347401602

   => Energetics <=

    Nuclear Repulsion Energy =            248.9041545572584369
    One-Electron Energy =                -910.3967840955076554
    Two-Electron Energy =                 355.6177860642330870
    DFT Exchange-Correlation Energy =       0.0000000000000000
    Empirical Dispersion Energy =           0.0000000000000000
    PCM Polarization Energy =               0.0000000000000000
    EFP Energy =                            0.0000000000000000
    Total Energy =                       -305.8748434740161883

  Mulliken Charges: (a.u.)
   Center  Symbol    Alpha    Beta     Spin     Total
       1     O     4.28379  4.28379  0.00000 -0.56758
       2     C     2.62052  2.62052  0.00000  0.75896
       3     C     3.28141  3.28141  0.00000 -0.56282
       4     O     4.30701  4.30701  0.00000 -0.61402
       5     H     0.40071  0.40071  0.00000  0.19858
       6     H     0.39716  0.39716  0.00000  0.20568
       7     H     0.40002  0.40002  0.00000  0.19995
       8     C     3.00584  3.00584  0.00000 -0.01168
       9     C     3.25481  3.25481  0.00000 -0.50962
      10     H     0.40590  0.40590  0.00000  0.18821
      11     H     0.40983  0.40983  0.00000  0.18034
      12     H     0.41887  0.41887  0.00000  0.16225
      13     H     0.39929  0.39929  0.00000  0.20142
      14     H     0.41484  0.41484  0.00000  0.17032

   Total alpha = 24.00000, Total beta = 24.00000, Total charge = -0.00000
