                              Psi4 1.0.54 Driver

  ==> Input File <==

--------------------------------------------------------------------------
set {
	reference rhf
	basis cc-pvtz
}

set_num_threads( 4 )
memory 2 gb

molecule MOL {
0 1

O	 -2.453001	 -0.951265	 -0.350555
C	 -1.929491	 0.054550	 -0.010886
C	 -2.638310	 1.364733	 0.187732
O	 -0.637375	 0.157174	 0.243149
H	 -2.211868	 2.111912	 -0.469222
H	 -3.688495	 1.242665	 -0.021665
H	 -2.497654	 1.703731	 1.205998
C	 0.162530	 -1.009518	 0.097799
C	 1.587210	 -0.664190	 0.477086
H	 0.096803	 -1.356267	 -0.924704
H	 -0.233803	 -1.785900	 0.736810
C	 2.256770	 0.342732	 -0.454344
H	 2.154716	 -1.590834	 0.479041
H	 1.598751	 -0.289614	 1.496104
C	 3.698146	 0.643205	 -0.057145
H	 2.235038	 -0.042575	 -1.470299
H	 1.683491	 1.262594	 -0.461300
H	 4.150202	 1.356548	 -0.736242
H	 4.305463	 -0.255904	 -0.069842
H	 3.749130	 1.061068	 0.942759

	symmetry c1
}
set optking {
	frozen_dihedral = ("
		2 4 8 10
	")
}

ee,wfn = optimize('scf', return_wfn=True)
oeprop( wfn, 'DIPOLE', 'QUADRUPOLE', 'MULLIKEN_CHARGES')
f=open( 'psi4out.xyz', 'w' )
f.write( "20  " )
f.write( str(ee) + "\n" )
f.write( MOL.save_string_xyz() )
f.close()
--------------------------------------------------------------------------

    Molecular point group: c1
  Charge       = 0
  Multiplicity = 1
  Basis Set: CC-PVTZ
  Basis Set:
  @DF-RHF Final Energy:  -384.08756669176790
    Total Energy =                       -384.0875666917676199
    Molecular point group: c1
  Basis Set: CC-PVTZ
  Basis Set:
  Basis Set: CC-PVTZ
  Basis Set:
  @DF-RHF Final Energy:  -384.08755715748492
    Total Energy =                       -384.0875571574852074
  Basis Set: CC-PVTZ
  Basis Set:
  Basis Set: CC-PVTZ
  Basis Set:
  @DF-RHF Final Energy:  -384.08756280058566
    Total Energy =                       -384.0875628005859426
  Basis Set: CC-PVTZ
  Basis Set:
  Charge       = 0
  Multiplicity = 1
  Basis Set: CC-PVTZ
  Basis Set:

    Orbital Energies (a.u.)
    -----------------------

    Doubly Occupied:

       1A    -20.594379     2A    -20.532647     3A    -11.366677
       4A    -11.280211     5A    -11.231701     6A    -11.223561
       7A    -11.218843     8A    -11.211622     9A     -1.471073
      10A     -1.365196    11A     -1.087245    12A     -1.029291
      13A     -0.982303    14A     -0.881241    15A     -0.812444
      16A     -0.776710    17A     -0.692572    18A     -0.686903
      19A     -0.670150    20A     -0.632600    21A     -0.601896
      22A     -0.594086    23A     -0.573002    24A     -0.551913
      25A     -0.546016    26A     -0.532853    27A     -0.513308
      28A     -0.484418    29A     -0.475476    30A     -0.473613
      31A     -0.451993    32A     -0.442090

  @DF-RHF Final Energy:  -384.08756875912110

   => Energetics <=

    Nuclear Repulsion Energy =            385.6024399453099818
    One-Electron Energy =               -1287.4039531564380923
    Two-Electron Energy =                 517.7139444520072402
    DFT Exchange-Correlation Energy =       0.0000000000000000
    Empirical Dispersion Energy =           0.0000000000000000
    PCM Polarization Energy =               0.0000000000000000
    EFP Energy =                            0.0000000000000000
    Total Energy =                       -384.0875687591209271
    Molecular point group: c1
  Basis Set: CC-PVTZ
  Basis Set:

  -Total Gradient:
     Atom            X                  Y                   Z
    ------   -----------------  -----------------  -----------------
       1        0.000011577908     0.000007978890    -0.000045621752
       2       -0.000039118232    -0.000070567928     0.000297572440
       3        0.000003793654     0.000019698357    -0.000052292172
       4        0.000078409560     0.000107160175    -0.000313755348
       5       -0.000001837296     0.000005933928     0.000005060811
       6       -0.000003496824    -0.000000829962     0.000000245551
       7        0.000002550812    -0.000008442503     0.000007890145
       8       -0.000198978960    -0.000157232575     0.000161607331
       9       -0.000007407264     0.000001989147    -0.000011580061
      10        0.000153140311     0.000116685319    -0.000050645275
      11       -0.000001099856    -0.000020874315     0.000002093522
      12        0.000000411977    -0.000014546971     0.000012053203
      13        0.000001888858     0.000001727753    -0.000000513516
      14       -0.000005838391    -0.000002836880     0.000000620414
      15        0.000007387556     0.000008272131    -0.000007301301
      16       -0.000000983031    -0.000009854448    -0.000022300252
      17       -0.000017446288     0.000021357014     0.000001630825
      18        0.000001346747     0.000001755885    -0.000000309472
      19        0.000014259755    -0.000017383514    -0.000000641067
      20        0.000001439002     0.000010010498     0.000016185977

  **** Optimization is complete! (in 4 steps) ****
    Final optimized geometry and variables:
    Molecular point group: c1

    Geometry (in Angstrom), charge = 0, multiplicity = 1:

    O           -2.448457815122    -0.944331825816    -0.372517224403
    C           -1.925599940509     0.059906067431    -0.027354363606
    C           -2.634389521195     1.369372784084     0.174147275380
    O           -0.633674419427     0.161266954355     0.227894958361
    H           -2.206827347026     2.118006345751    -0.480365201169
    H           -3.684368189817     1.248180774720    -0.036851966023
    H           -2.494688053599     1.705337127603     1.193497935037
    C            0.164717853891    -1.006698964008     0.084167710785
    C            1.590279681067    -0.662209082185     0.461046021041
    H            0.098928088525    -1.353542958469    -0.938490323565
    H           -0.231571653345    -1.782192227747     0.723861984880
    C            2.259351657353     0.343560482048    -0.471855548347
    H            2.157165496104    -1.589192467135     0.462566253481
    H            1.603454937342    -0.287054445496     1.479806555403
    C            3.698763097336     0.649230335840    -0.071821965327
    H            2.241361524784    -0.044963993406    -1.486677970648
    H            1.683572915385     1.261752382393    -0.483014547620
    H            4.150366731651     1.362286242809    -0.751507079298
    H            4.308617217077    -0.248190500611    -0.080915823620
    H            3.745970212485     1.069615067165     0.927220956196

  Mulliken Charges: (a.u.)
   Center  Symbol    Alpha    Beta     Spin     Total
       1     O     4.19730  4.19730  0.00000 -0.39461
       2     C     2.80882  2.80882  0.00000  0.38236
       3     C     3.13847  3.13847  0.00000 -0.27694
       4     O     4.15342  4.15342  0.00000 -0.30684
       5     H     0.44603  0.44603  0.00000  0.10793
       6     H     0.43778  0.43778  0.00000  0.12445
       7     H     0.44576  0.44576  0.00000  0.10848
       8     C     2.99329  2.99329  0.00000  0.01343
       9     C     3.08430  3.08430  0.00000 -0.16860
      10     H     0.45144  0.45144  0.00000  0.09712
      11     H     0.44422  0.44422  0.00000  0.11157
      12     C     3.08620  3.08620  0.00000 -0.17240
      13     H     0.45165  0.45165  0.00000  0.09671
      14     H     0.45193  0.45193  0.00000  0.09614
      15     C     3.15015  3.15015  0.00000 -0.30029
      16     H     0.45501  0.45501  0.00000  0.08998
      17     H     0.44714  0.44714  0.00000  0.10572
      18     H     0.44736  0.44736  0.00000  0.10527
      19     H     0.45542  0.45542  0.00000  0.08916
      20     H     0.45432  0.45432  0.00000  0.09136

   Total alpha = 32.00000, Total beta = 32.00000, Total charge =  0.00000

*** Psi4 exiting successfully. Buy a developer a beer!
