                              Psi4 1.0.54 Driver

  ==> Input File <==

--------------------------------------------------------------------------
set {
	reference rhf
	basis cc-pvtz
}

set_num_threads( 4 )
memory 2 gb

molecule MOL {
0 1

H	 -3.034039	 -0.667848	 0.004703
O	 -2.240597	 -1.171748	 0.000934
C	 -1.159675	 -0.364500	 0.000370
C	 -1.253401	 0.997884	 -0.198473
C	 0.075801	 -0.957862	 0.209115
H	 -2.209921	 1.459660	 -0.362455
C	 -0.097503	 1.759466	 -0.187467
H	 0.114266	 -2.019570	 0.358221
C	 1.227175	 -0.196583	 0.222135
H	 -0.166085	 2.819332	 -0.344797
C	 1.132339	 1.176620	 0.018897
C	 2.568356	 -0.838491	 0.472799
H	 2.019267	 1.781444	 0.021761
H	 3.318948	 -0.447126	 -0.202676
H	 2.522417	 -1.911202	 0.342694
H	 2.903642	 -0.639891	 1.485116

	symmetry c1
}
set optking {
	frozen_dihedral = ("
		5 3 2 1
	")
}

ee,wfn = optimize('scf', return_wfn=True)
oeprop( wfn, 'DIPOLE', 'QUADRUPOLE', 'MULLIKEN_CHARGES')
f=open( 'psi4out.xyz', 'w' )
f.write( "16  " )
f.write( str(ee) + "\n" )
f.write( MOL.save_string_xyz() )
f.close()
--------------------------------------------------------------------------

    Molecular point group: c1
  Charge       = 0
  Multiplicity = 1
  Basis Set: CC-PVTZ
  Basis Set:
  @DF-RHF Final Energy:  -344.72066189122074
    Total Energy =                       -344.7206618912208569
    Molecular point group: c1
  Basis Set: CC-PVTZ
  Basis Set:
  Basis Set: CC-PVTZ
  Basis Set:
  @DF-RHF Final Energy:  -344.72066503017066
    Total Energy =                       -344.7206650301706077
  Basis Set: CC-PVTZ
  Basis Set:
  Basis Set: CC-PVTZ
  Basis Set:
  @DF-RHF Final Energy:  -344.72066603480215
    Total Energy =                       -344.7206660348018659
  Basis Set: CC-PVTZ
  Basis Set:
  Charge       = 0
  Multiplicity = 1
  Basis Set: CC-PVTZ
  Basis Set:

    Orbital Energies (a.u.)
    -----------------------

    Doubly Occupied:

       1A    -20.582661     2A    -11.295003     3A    -11.240572
       4A    -11.232778     5A    -11.219735     6A    -11.218910
       7A    -11.213928     8A    -11.212887     9A     -1.413298
      10A     -1.154094    11A     -1.046243    12A     -1.008597
      13A     -0.938663    14A     -0.828432    15A     -0.826395
      16A     -0.717541    17A     -0.684515    18A     -0.657489
      19A     -0.611231    20A     -0.595864    21A     -0.574829
      22A     -0.570938    23A     -0.569023    24A     -0.534105
      25A     -0.507170    26A     -0.484512    27A     -0.472723
      28A     -0.333468    29A     -0.310522

  @DF-RHF Final Energy:  -344.72066611325840

   => Energetics <=

    Nuclear Repulsion Energy =            346.4039829005096180
    One-Electron Energy =               -1154.1370495629926154
    Two-Electron Energy =                 463.0124005492246511
    DFT Exchange-Correlation Energy =       0.0000000000000000
    Empirical Dispersion Energy =           0.0000000000000000
    PCM Polarization Energy =               0.0000000000000000
    EFP Energy =                            0.0000000000000000
    Total Energy =                       -344.7206661132583463
    Molecular point group: c1
  Basis Set: CC-PVTZ
  Basis Set:

  -Total Gradient:
     Atom            X                  Y                   Z
    ------   -----------------  -----------------  -----------------
       1       -0.000000410775    -0.000002744584     0.001090845922
       2       -0.000031868945     0.000053048508    -0.001001110738
       3        0.000111253354    -0.000152710208    -0.000849977159
       4        0.000000561888    -0.000003949264     0.000003934537
       5       -0.000073681022     0.000111325296     0.000767509952
       6        0.000000894823    -0.000000025323    -0.000003121495
       7        0.000008738999    -0.000000253859    -0.000010330534
       8       -0.000001562812    -0.000002324595     0.000006267523
       9       -0.000000298762    -0.000009512560    -0.000021393585
      10       -0.000002496061     0.000001222774     0.000006054203
      11       -0.000007647285     0.000008361387     0.000004793511
      12        0.000000294663     0.000002067678     0.000001292060
      13       -0.000000240828    -0.000001267052    -0.000002054509
      14       -0.000003807307     0.000003413381     0.000005842117
      15        0.000000548573    -0.000000815726    -0.000004396905
      16       -0.000000278505    -0.000005835854     0.000005845101

  **** Optimization is complete! (in 4 steps) ****
    Final optimized geometry and variables:
    Molecular point group: c1

    Geometry (in Angstrom), charge = 0, multiplicity = 1:

    H           -3.030629714286    -0.671438388774    -0.080725677414
    O           -2.237570179647    -1.176032331182    -0.081096671356
    C           -1.155661209904    -0.369136687486    -0.074687811821
    C           -1.248380499191     0.993370664630    -0.272864519261
    C            0.078606241617    -0.962723642112     0.139553598989
    H           -2.203903216289     1.454593029127    -0.443726448514
    C           -0.092428959941     1.754694612527    -0.256827368684
    H            0.115740875712    -2.024014388786     0.291972980986
    C            1.230773937103    -0.202486869047     0.152750435547
    H           -0.160160541600     2.814769948365    -0.413103034833
    C            1.136804137672     1.170856093099    -0.049217887505
    C            2.571043668747    -0.844874575313     0.407165992740
    H            2.024016247943     1.775280607967    -0.044024372617
    H            3.322387604342    -0.457118405548    -0.269587139222
    H            2.523997476966    -1.918041596901     0.281279956877
    H            2.906188266881    -0.642483601433     1.418781475125

  Mulliken Charges: (a.u.)
   Center  Symbol    Alpha    Beta     Spin     Total
       1     H     0.38717  0.38717  0.00000  0.22566
       2     O     4.17580  4.17580  0.00000 -0.35161
       3     C     2.83674  2.83674  0.00000  0.32652
       4     C     3.14855  3.14855  0.00000 -0.29709
       5     C     3.14103  3.14103  0.00000 -0.28207
       6     H     0.43486  0.43486  0.00000  0.13028
       7     C     3.05702  3.05702  0.00000 -0.11404
       8     H     0.42211  0.42211  0.00000  0.15578
       9     C     2.93511  2.93511  0.00000  0.12978
      10     H     0.42293  0.42293  0.00000  0.15413
      11     C     3.11882  3.11882  0.00000 -0.23763
      12     C     3.14662  3.14662  0.00000 -0.29325
      13     H     0.42789  0.42789  0.00000  0.14422
      14     H     0.44822  0.44822  0.00000  0.10357
      15     H     0.45015  0.45015  0.00000  0.09969
      16     H     0.44697  0.44697  0.00000  0.10605

   Total alpha = 29.00000, Total beta = 29.00000, Total charge = -0.00000

*** Psi4 exiting successfully. Buy a developer a beer!
