  ==> Input File <==

--------------------------------------------------------------------------
set {
	reference rhf
	basis cc-pvtz
}

set_num_threads( 4 )
memory 2 gb

molecule MOL {
0 1

H	 -2.699217	 0.541629	 0.611657
C	 -2.518149	 0.133756	 -0.373774
C	 -1.256349	 -0.715020	 -0.389712
H	 -2.435175	 0.965544	 -1.060402
H	 -3.375951	 -0.462803	 -0.660473
C	 0.000000	 0.039916	 0.000014
H	 -1.091074	 -1.142968	 -1.374823
H	 -1.352809	 -1.563239	 0.282681
C	 1.286532	 -0.763243	 0.000268
O	 -0.022310	 1.191867	 0.287918
C	 2.547023	 0.087626	 -0.000114
H	 1.264245	 -1.421103	 -0.864380
H	 1.264290	 -1.420353	 0.865489
H	 2.584452	 0.725630	 -0.872909
H	 3.427035	 -0.544422	 0.000125
H	 2.584484	 0.726356	 0.872143

	symmetry c1
}
set optking {
	frozen_dihedral = ("
		3 6 9 12
	")
}

ee = optimize('scf')
oeprop('DIPOLE', 'QUADRUPOLE', 'MULLIKEN_CHARGES')
f=open( 'psi4out.xyz', 'w' )
f.write( "16  " )
f.write( str(ee) + "\n" )
f.write( MOL.save_string_xyz() )
f.close()
--------------------------------------------------------------------------

    Molecular point group: c1
  Charge       = 0
  Multiplicity = 1
  Basis Set: CC-PVTZ
  Basis Set:
  @DF-RHF Final Energy:  -270.13148627017085
    Total Energy =                       -270.1314862701707398
    Molecular point group: c1
  Basis Set: CC-PVTZ
  Basis Set:
  Basis Set: CC-PVTZ
  Basis Set:
  @DF-RHF Final Energy:  -270.13163113660187
    Total Energy =                       -270.1316311366014133
  Basis Set: CC-PVTZ
  Basis Set:
  Basis Set: CC-PVTZ
  Basis Set:
  @DF-RHF Final Energy:  -270.13091217631563
    Total Energy =                       -270.1309121763158601
  Basis Set: CC-PVTZ
  Basis Set:
  Basis Set: CC-PVTZ
  Basis Set:
  @DF-RHF Final Energy:  -270.13171322042786
    Total Energy =                       -270.1317132204279119
  Basis Set: CC-PVTZ
  Basis Set:
  Basis Set: CC-PVTZ
  Basis Set:
  @DF-RHF Final Energy:  -270.13172212819916
    Total Energy =                       -270.1317221281988168
  Basis Set: CC-PVTZ
  Basis Set:
  Charge       = 0
  Multiplicity = 1
  Basis Set: CC-PVTZ
  Basis Set:

    Orbital Energies (a.u.)
    -----------------------

    Doubly Occupied:

       1A    -20.538710     2A    -11.317941     3A    -11.232407
       4A    -11.232210     5A    -11.212446     6A    -11.211972
       7A     -1.399133     8A     -1.069690     9A     -1.037326
      10A     -0.917176    11A     -0.846757    12A     -0.725957
      13A     -0.669409    14A     -0.647538    15A     -0.621275
      16A     -0.607581    17A     -0.561408    18A     -0.529982
      19A     -0.526181    20A     -0.511394    21A     -0.504526
      22A     -0.493565    23A     -0.486381    24A     -0.400673

  @DF-RHF Final Energy:  -270.13172259857691

   => Energetics <=

    Nuclear Repulsion Energy =            240.3273978383186886
    One-Electron Energy =                -842.3149626635397453
    Two-Electron Energy =                 331.8558422266441994
    DFT Exchange-Correlation Energy =       0.0000000000000000
    Empirical Dispersion Energy =           0.0000000000000000
    PCM Polarization Energy =               0.0000000000000000
    EFP Energy =                            0.0000000000000000
    Total Energy =                       -270.1317225985768573
    Molecular point group: c1
  Basis Set: CC-PVTZ
  Basis Set:

  -Total Gradient:
     Atom            X                  Y                   Z
    ------   -----------------  -----------------  -----------------
       1       -0.000004001698     0.000005541427    -0.000003267647
       2       -0.000010727514    -0.000008487622     0.000021432305
       3        0.000108361519     0.000112809246    -0.000535866217
       4        0.000006548216    -0.000007147157     0.000000192073
       5       -0.000004261133     0.000001273581    -0.000001558862
       6       -0.000217436561    -0.000262385205     0.000836666046
       7        0.000002907386    -0.000013644751    -0.000000312524
       8       -0.000000739483     0.000011788779     0.000000893123
       9        0.000437827171     0.000616742523    -0.000739679445
      10        0.000000562114     0.000009352165     0.000000626611
      11        0.000004336369    -0.000002798014     0.000007334713
      12       -0.000321672409    -0.000450081986     0.000405055591
      13       -0.000000546546    -0.000007004401     0.000017732471
      14        0.000000315342    -0.000003617695     0.000001424308
      15        0.000001673613     0.000000278296    -0.000006112325
      16       -0.000003146386    -0.000002619181    -0.000004560222

  **** Optimization is complete! (in 6 steps) ****
    Final optimized geometry and variables:
    Molecular point group: c1

    Geometry (in Angstrom), charge = 0, multiplicity = 1:

    H           -2.685369562902     0.435884748503     0.809723466687
    C           -2.538231215293     0.098340587217    -0.208064251733
    C           -1.260719701698    -0.716992757037    -0.333492218674
    H           -2.501522121643     0.974925624032    -0.840027166122
    H           -3.395414864141    -0.498149525944    -0.496680596044
    C           -0.002578318876     0.044129182015     0.034466301314
    H           -1.128807431511    -1.069670316747    -1.353595805033
    H           -1.306664236063    -1.612842344983     0.279461039472
    C            1.270196058764    -0.775917350830     0.120869532816
    O           -0.012191562731     1.212943528682     0.244898658390
    C            2.543628075532     0.055845656414     0.131936440221
    H            1.275785190946    -1.497470445084    -0.690055050513
    H            1.194258567324    -1.365833834109     1.032022217953
    H            2.638513662891     0.633147685839    -0.779182650685
    H            3.412063782513    -0.585997835166     0.219079556040
    H            2.544252711054     0.750229328076     0.960253920431

  Mulliken Charges: (a.u.)
   Center  Symbol    Alpha    Beta     Spin     Total
       1     H     0.44978  0.44978  0.00000  0.10045
       2     C     3.14095  3.14095  0.00000 -0.28191
       3     C     3.09938  3.09938  0.00000 -0.19877
       4     H     0.44578  0.44578  0.00000  0.10844
       5     H     0.45067  0.45067  0.00000  0.09865
       6     C     2.87290  2.87290  0.00000  0.25420
       7     H     0.44548  0.44548  0.00000  0.10904
       8     H     0.44579  0.44579  0.00000  0.10842
       9     C     3.09843  3.09843  0.00000 -0.19687
      10     O     4.17249  4.17249  0.00000 -0.34498
      11     C     3.14125  3.14125  0.00000 -0.28251
      12     H     0.44558  0.44558  0.00000  0.10884
      13     H     0.44572  0.44572  0.00000  0.10856
      14     H     0.45116  0.45116  0.00000  0.09768
      15     H     0.45051  0.45051  0.00000  0.09899
      16     H     0.44411  0.44411  0.00000  0.11178

   Total alpha = 24.00000, Total beta = 24.00000, Total charge =  0.00000
