                              Psi4 1.0.54 Driver

  ==> Input File <==

--------------------------------------------------------------------------
set {
	reference rhf
	basis cc-pvtz
}

set_num_threads( 4 )
memory 2 gb

molecule MOL {
0 1

H	 -4.024089	 -0.454762	 -0.008406
C	 -2.962210	 -0.297957	 -0.008743
C	 -2.454725	 0.988892	 -0.019702
C	 -2.105838	 -1.382622	 0.001775
H	 -3.120037	 1.830316	 -0.027862
C	 -1.090095	 1.189588	 -0.020128
H	 -2.500395	 -2.380182	 0.010268
C	 -0.739175	 -1.183295	 0.001362
H	 -0.680199	 2.179018	 -0.028535
C	 -0.227336	 0.104498	 -0.009599
H	 -0.073214	 -2.021125	 0.009491
C	 1.238980	 0.374383	 -0.010544
O	 1.968286	 -0.725612	 -0.000027
O	 1.709198	 1.462495	 -0.019801
C	 3.373556	 -0.568203	 0.000011
H	 3.695416	 -0.031588	 -0.879663
H	 3.782700	 -1.565294	 -0.000152
H	 3.695405	 -0.031851	 0.879862

	symmetry c1
}
set optking {
	frozen_dihedral = ("
		12 13 15 16
	")
}

ee,wfn = optimize('scf', return_wfn=True)
oeprop( wfn, 'DIPOLE', 'QUADRUPOLE', 'MULLIKEN_CHARGES')
f=open( 'psi4out.xyz', 'w' )
f.write( "18  " )
f.write( str(ee) + "\n" )
f.write( MOL.save_string_xyz() )
f.close()
--------------------------------------------------------------------------

    Molecular point group: c1
  Charge       = 0
  Multiplicity = 1
  Basis Set: CC-PVTZ
  Basis Set:
  @DF-RHF Final Energy:  -457.51024259586126
    Total Energy =                       -457.5102425958609729
    Molecular point group: c1
  Basis Set: CC-PVTZ
  Basis Set:
  Charge       = 0
  Multiplicity = 1
  Basis Set: CC-PVTZ
  Basis Set:

    Orbital Energies (a.u.)
    -----------------------

    Doubly Occupied:

       1A    -20.600996     2A    -20.534490     3A    -11.371768
       4A    -11.281252     5A    -11.245050     6A    -11.243547
       7A    -11.242758     8A    -11.240112     9A    -11.236115
      10A    -11.235355    11A     -1.477070    12A     -1.368447
      13A     -1.170841    14A     -1.051883    15A     -1.029106
      16A     -0.980505    17A     -0.863266    18A     -0.838522
      19A     -0.781282    20A     -0.745073    21A     -0.687877
      22A     -0.681797    23A     -0.676428    24A     -0.634120
      25A     -0.630119    26A     -0.601343    27A     -0.587587
      28A     -0.564948    29A     -0.531968    30A     -0.520367
      31A     -0.509511    32A     -0.502294    33A     -0.464198
      34A     -0.449518    35A     -0.350259    36A     -0.346306

  @DF-RHF Final Energy:  -457.51024279582140

   => Energetics <=

    Nuclear Repulsion Energy =            494.0362788058457113
    One-Electron Energy =               -1602.5408869543616674
    Two-Electron Energy =                 650.9943653526946719
    DFT Exchange-Correlation Energy =       0.0000000000000000
    Empirical Dispersion Energy =           0.0000000000000000
    PCM Polarization Energy =               0.0000000000000000
    EFP Energy =                            0.0000000000000000
    Total Energy =                       -457.5102427958212274
    Molecular point group: c1
  Basis Set: CC-PVTZ
  Basis Set:

  -Total Gradient:
     Atom            X                  Y                   Z
    ------   -----------------  -----------------  -----------------
       1       -0.000003757536    -0.000001664581     0.000000336469
       2       -0.000006952768     0.000037575288    -0.000000491729
       3       -0.000023255207    -0.000014853427    -0.000000923373
       4        0.000039618268    -0.000020548410    -0.000002022852
       5       -0.000002264296     0.000002363523    -0.000000073979
       6        0.000005367154    -0.000015399389     0.000002003509
       7       -0.000005733472     0.000000562479    -0.000000303161
       8       -0.000051619681    -0.000042002556     0.000004176712
       9        0.000002272115     0.000002904055    -0.000000097668
      10        0.000016017911     0.000044568197     0.000033494634
      11        0.000001869188     0.000005286687     0.000000840531
      12       -0.000066388913     0.000018357928    -0.000184267624
      13       -0.000020449999     0.000025699249     0.000140346765
      14        0.000048226368    -0.000029037146     0.000059513842
      15        0.000087838717    -0.000053204810    -0.000084567112
      16       -0.000005902353     0.000042701497     0.000030327766
      17        0.000016738022    -0.000001669655     0.000002404995
      18       -0.000031623519    -0.000001638929    -0.000000697724

  **** Optimization is complete! (in 2 steps) ****
    Final optimized geometry and variables:
    Molecular point group: c1

    Geometry (in Angstrom), charge = 0, multiplicity = 1:

    H           -4.024471633011    -0.454188073925    -0.000286099382
    C           -2.962512108454    -0.297652259308    -0.000551398525
    C           -2.454713526435     0.989144023035    -0.011346241725
    C           -2.106306603177    -1.382462512620     0.009906187840
    H           -3.119852416633     1.830777825118    -0.019452056174
    C           -1.090034344588     1.189533910443    -0.011672649129
    H           -2.500957078757    -2.380019566021     0.018280808972
    C           -0.739508387697    -1.183414444280     0.009591850866
    H           -0.680021162456     2.178983393845    -0.019943959970
    C           -0.227459935518     0.104245063796    -0.001217109517
    H           -0.073800355447    -2.021517704657     0.017685704195
    C            1.239147682658     0.374182464930    -0.002040522065
    O            1.968611783468    -0.725546732813     0.008906625953
    O            1.709499620389     1.462222648384    -0.010693509328
    C            3.373670831916    -0.567844900077     0.007996295145
    H            3.695254343700    -0.031854503435    -0.872199744778
    H            3.783738733146    -1.564593484927     0.009229144108
    H            3.695560470897    -0.030085039352     0.887110474810

  Mulliken Charges: (a.u.)
   Center  Symbol    Alpha    Beta     Spin     Total
       1     H     0.42028  0.42028  0.00000  0.15944
       2     C     3.06973  3.06973  0.00000 -0.13947
       3     C     3.07551  3.07551  0.00000 -0.15102
       4     C     3.07494  3.07494  0.00000 -0.14987
       5     H     0.42037  0.42037  0.00000  0.15925
       6     C     3.07588  3.07588  0.00000 -0.15176
       7     H     0.42188  0.42188  0.00000  0.15625
       8     C     3.08211  3.08211  0.00000 -0.16422
       9     H     0.40668  0.40668  0.00000  0.18664
      10     C     3.01232  3.01232  0.00000 -0.02464
      11     H     0.41103  0.41103  0.00000  0.17795
      12     C     2.78240  2.78240  0.00000  0.43520
      13     O     4.14840  4.14840  0.00000 -0.29680
      14     O     4.21126  4.21126  0.00000 -0.42253
      15     C     3.03658  3.03658  0.00000 -0.07317
      16     H     0.45258  0.45258  0.00000  0.09485
      17     H     0.44530  0.44530  0.00000  0.10941
      18     H     0.45276  0.45276  0.00000  0.09448

   Total alpha = 36.00000, Total beta = 36.00000, Total charge =  0.00000

*** Psi4 exiting successfully. Buy a developer a beer!
