                              Psi4 1.0.54 Driver

  ==> Input File <==

--------------------------------------------------------------------------
set {
	reference rhf
	basis cc-pvtz
}

set_num_threads( 4 )
memory 2 gb

molecule MOL {
0 1

H	 -1.038570	 -0.875454	 -0.443331
N	 -0.712187	 0.000026	 -0.093397
C	 0.734067	 -0.000020	 0.038424
H	 -1.151027	 0.145201	 0.790790
H	 1.140372	 -0.872115	 -0.458226
H	 1.140363	 0.872301	 -0.457869
H	 1.095085	 -0.000244	 1.065614

	symmetry c1
}
set optking {
	frozen_dihedral = ("
		1 2 3 7
	")
}

ee,wfn = optimize('scf', return_wfn=True)
oeprop( wfn, 'DIPOLE', 'QUADRUPOLE', 'MULLIKEN_CHARGES')
f=open( 'psi4out.xyz', 'w' )
f.write( "7  " )
f.write( str(ee) + "\n" )
f.write( MOL.save_string_xyz() )
f.close()
--------------------------------------------------------------------------

    Molecular point group: c1
  Charge       = 0
  Multiplicity = 1
  Basis Set: CC-PVTZ
  Basis Set:
  @DF-RHF Final Energy:   -95.25020375865444
    Total Energy =                        -95.2502037586544077
    Molecular point group: c1
  Basis Set: CC-PVTZ
  Basis Set:
  Basis Set: CC-PVTZ
  Basis Set:
  @DF-RHF Final Energy:   -95.25027179344218
    Total Energy =                        -95.2502717934421952
  Basis Set: CC-PVTZ
  Basis Set:
  Basis Set: CC-PVTZ
  Basis Set:
  @DF-RHF Final Energy:   -95.25065885507279
    Total Energy =                        -95.2506588550728139
  Basis Set: CC-PVTZ
  Basis Set:
  Basis Set: CC-PVTZ
  Basis Set:
  @DF-RHF Final Energy:   -95.25066539926755
    Total Energy =                        -95.2506653992675467
  Basis Set: CC-PVTZ
  Basis Set:
  Charge       = 0
  Multiplicity = 1
  Basis Set: CC-PVTZ
  Basis Set:

    Orbital Energies (a.u.)
    -----------------------

    Doubly Occupied:

       1A    -15.525646     2A    -11.235503     3A     -1.168718
       4A     -0.897855     5A     -0.667109     6A     -0.599559
       7A     -0.560843     8A     -0.518847     9A     -0.381688

  @DF-RHF Final Energy:   -95.25066659972639

   => Energetics <=

    Nuclear Repulsion Energy =             42.3185376613835302
    One-Electron Energy =                -212.0268744185491414
    Two-Electron Energy =                  74.4576701574392672
    DFT Exchange-Correlation Energy =       0.0000000000000000
    Empirical Dispersion Energy =           0.0000000000000000
    PCM Polarization Energy =               0.0000000000000000
    EFP Energy =                            0.0000000000000000
    Total Energy =                        -95.2506665997263582
    Molecular point group: c1
  Basis Set: CC-PVTZ
  Basis Set:

  -Total Gradient:
     Atom            X                  Y                   Z
    ------   -----------------  -----------------  -----------------
       1        0.000264420507     0.000569287929    -0.001424114911
       2       -0.000346054086    -0.000292034200     0.001723105136
       3        0.000137866645    -0.001676427833    -0.000390052168
       4       -0.000000136069     0.000015803828     0.000039315604
       5       -0.000006729998    -0.000011413845     0.000000509016
       6       -0.000059695527     0.000001405230    -0.000035348220
       7        0.000010328528     0.001393378891     0.000086585543

  **** Optimization is complete! (in 5 steps) ****
    Final optimized geometry and variables:
    Molecular point group: c1

    Geometry (in Angstrom), charge = 0, multiplicity = 1:

    H           -1.024983298727    -0.823648773338    -0.537497866343
    N           -0.706195404006     0.029397363499    -0.136989830246
    C            0.730524994115     0.014921284078     0.105482569976
    H           -1.226818528047     0.195904591698     0.694461159791
    H            1.194572185632    -0.842320594493    -0.366477912549
    H            1.195893274117     0.903808823216    -0.305352927679
    H            0.975226714097    -0.019866485760     1.162289341598

  Mulliken Charges: (a.u.)
   Center  Symbol    Alpha    Beta     Spin     Total
       1     H     0.42630  0.42630  0.00000  0.14741
       2     N     3.69018  3.69018  0.00000 -0.38037
       3     C     3.06859  3.06859  0.00000 -0.13717
       4     H     0.42675  0.42675  0.00000  0.14650
       5     H     0.46116  0.46116  0.00000  0.07767
       6     H     0.46135  0.46135  0.00000  0.07729
       7     H     0.46566  0.46566  0.00000  0.06867

   Total alpha =  9.00000, Total beta =  9.00000, Total charge =  0.00000

*** Psi4 exiting successfully. Buy a developer a beer!
