  ==> Input File <==

--------------------------------------------------------------------------
set {
	reference rhf
	basis cc-pvtz
}

set_num_threads( 4 )
memory 2 gb

molecule MOL {
0 1

O	 -0.694481	 1.313155	 -0.204815
C	 -0.862519	 0.151932	 -0.046791
C	 -2.171428	 -0.477048	 0.339095
O	 0.085519	 -0.757083	 -0.192238
H	 -2.467997	 -1.191667	 -0.417688
H	 -2.923379	 0.287970	 0.444097
H	 -2.053854	 -1.015120	 1.270901
C	 -0.278409	 -2.132591	 -0.188213
C	 -0.711337	 -2.601301	 -1.561815
H	 -1.057730	 -2.291919	 0.540546
H	 0.613337	 -2.650574	 0.131528
H	 -0.915941	 -3.665654	 -1.534569
H	 -1.610217	 -2.090599	 -1.878959
H	 0.070100	 -2.423387	 -2.290716

	symmetry c1
}
set optking {
	frozen_dihedral = ("
		8 4 2 1
	")
}

ee = optimize('scf')
oeprop('DIPOLE', 'QUADRUPOLE', 'MULLIKEN_CHARGES')
f=open( 'psi4out.xyz', 'w' )
f.write( "14  " )
f.write( str(ee) + "\n" )
f.write( MOL.save_string_xyz() )
f.close()
--------------------------------------------------------------------------

    Molecular point group: c1
  Charge       = 0
  Multiplicity = 1
  Basis Set: CC-PVTZ
  Basis Set:
  @DF-RHF Final Energy:  -305.96302510656994
    Total Energy =                       -305.9630251065699440
    Molecular point group: c1
  Basis Set: CC-PVTZ
  Basis Set:
  Basis Set: CC-PVTZ
  Basis Set:
  @DF-RHF Final Energy:  -305.97143772634865
    Total Energy =                       -305.9714377263485972
  Basis Set: CC-PVTZ
  Basis Set:
  Basis Set: CC-PVTZ
  Basis Set:
  @DF-RHF Final Energy:  -305.97532330461343
    Total Energy =                       -305.9753233046130845
  Basis Set: CC-PVTZ
  Basis Set:
  Basis Set: CC-PVTZ
  Basis Set:
  @DF-RHF Final Energy:  -305.97556825501232
    Total Energy =                       -305.9755682550123765
  Basis Set: CC-PVTZ
  Basis Set:
  Basis Set: CC-PVTZ
  Basis Set:
  @DF-RHF Final Energy:  -305.97659637454717
    Total Energy =                       -305.9765963745470572
  Basis Set: CC-PVTZ
  Basis Set:
  Basis Set: CC-PVTZ
  Basis Set:
  @DF-RHF Final Energy:  -305.97663162133676
    Total Energy =                       -305.9766316213366508
  Basis Set: CC-PVTZ
  Basis Set:
  Basis Set: CC-PVTZ
  Basis Set:
  @DF-RHF Final Energy:  -305.97663457577767
    Total Energy =                       -305.9766345757777799
  Basis Set: CC-PVTZ
  Basis Set:
  Charge       = 0
  Multiplicity = 1
  Basis Set: CC-PVTZ
  Basis Set:

    Orbital Energies (a.u.)
    -----------------------

    Doubly Occupied:

       1A    -20.592918     2A    -20.526513     3A    -11.369008
       4A    -11.298000     5A    -11.241205     6A    -11.230500
       7A     -1.465320     8A     -1.366611     9A     -1.050807
      10A     -1.018738    11A     -0.899296    12A     -0.775907
      13A     -0.701405    14A     -0.689885    15A     -0.665010
      16A     -0.618537    17A     -0.596985    18A     -0.584474
      19A     -0.558029    20A     -0.543074    21A     -0.529786
      22A     -0.501824    23A     -0.446728    24A     -0.436546

  @DF-RHF Final Energy:  -305.97663506353052

   => Energetics <=

    Nuclear Repulsion Energy =            248.2168650364282598
    One-Electron Energy =                -908.9727881102260199
    Two-Electron Energy =                 354.7792880102673507
    DFT Exchange-Correlation Energy =       0.0000000000000000
    Empirical Dispersion Energy =           0.0000000000000000
    PCM Polarization Energy =               0.0000000000000000
    EFP Energy =                            0.0000000000000000
    Total Energy =                       -305.9766350635303525
    Molecular point group: c1
  Basis Set: CC-PVTZ
  Basis Set:

  -Total Gradient:
     Atom            X                  Y                   Z
    ------   -----------------  -----------------  -----------------
       1       -0.000129042804    -0.000067209434    -0.000410699147
       2        0.000107272343     0.000116551897     0.000382221407
       3        0.000013089753    -0.000023343197    -0.000057746711
       4        0.000075900694    -0.000079899181     0.000409849023
       5       -0.000000562828     0.000005704695     0.000021283285
       6       -0.000003498823    -0.000005289607     0.000001988126
       7        0.000008206449     0.000000942736    -0.000000280938
       8       -0.000032386146     0.000013966962    -0.000371599065
       9       -0.000016105007     0.000007160785     0.000017429895
      10       -0.000006348731     0.000003820876     0.000001735075
      11       -0.000005463961     0.000003147463     0.000009754670
      12       -0.000005376823     0.000019913091    -0.000010928280
      13       -0.000004221305     0.000005266414     0.000002402427
      14       -0.000001462809    -0.000000733496     0.000004590233

  **** Optimization is complete! (in 8 steps) ****
    Final optimized geometry and variables:
    Molecular point group: c1

    Geometry (in Angstrom), charge = 0, multiplicity = 1:

    O            0.120694436911     2.035497408363     0.090952921588
    C           -0.144407969713     0.902822343944     0.284647220726
    C           -1.500823798647     0.470105639015     0.788552273640
    O            0.786768348226    -0.023589695692     0.084471632351
    H           -1.969152803304    -0.241210901619     0.121648613357
    H           -2.117302614343     1.349743612843     0.865631720688
    H           -1.412408978100     0.008401816259     1.764264222752
    C            0.546901140078    -1.415543560090     0.083298628983
    C            0.212888429067    -1.919283377259    -1.306874975812
    H           -0.224894141253    -1.678639022180     0.792112271221
    H            1.468833268443    -1.858717020654     0.429211020674
    H            0.106190820711    -2.997976610273    -1.292864051018
    H           -0.712983860429    -1.492642652956    -1.673959070375
    H            1.002433953996    -1.659399882329    -1.999648280520

  Mulliken Charges: (a.u.)
   Center  Symbol    Alpha    Beta     Spin     Total
       1     O     4.18256  4.18256  0.00000 -0.36512
       2     C     2.81530  2.81530  0.00000  0.36941
       3     C     3.16635  3.16635  0.00000 -0.33270
       4     O     4.13442  4.13442  0.00000 -0.26885
       5     H     0.44844  0.44844  0.00000  0.10312
       6     H     0.42625  0.42625  0.00000  0.14751
       7     H     0.44553  0.44553  0.00000  0.10895
       8     C     2.99854  2.99854  0.00000  0.00292
       9     C     3.13885  3.13885  0.00000 -0.27769
      10     H     0.45890  0.45890  0.00000  0.08220
      11     H     0.43696  0.43696  0.00000  0.12609
      12     H     0.45109  0.45109  0.00000  0.09782
      13     H     0.45425  0.45425  0.00000  0.09149
      14     H     0.44257  0.44257  0.00000  0.11485

   Total alpha = 24.00000, Total beta = 24.00000, Total charge =  0.00000
