  ==> Input File <==

--------------------------------------------------------------------------
set {
	reference rhf
	basis 6-31G*
}

set_num_threads( 4 )
memory 2 gb

molecule MOL {
0 1

O	 -1.712467	 -3.705612	 0.214334
C	 -1.004299	 -3.624345	 -0.742917
C	 -0.312609	 -2.317899	 -1.090872
C	 -0.734370	 -4.816009	 -1.634235
C	 0.928079	 -2.102816	 -0.209070
H	 -1.021408	 -1.514909	 -0.920244
H	 -0.029970	 -2.302523	 -2.139635
C	 1.631333	 -0.777471	 -0.511575
H	 0.616240	 -2.141439	 0.828547
H	 1.629481	 -2.922461	 -0.357273
C	 2.915987	 -0.544314	 0.291766
H	 0.940429	 0.043843	 -0.330409
H	 1.874409	 -0.743366	 -1.571574
C	 3.373361	 0.914346	 0.347591
H	 3.708709	 -1.142521	 -0.150311
H	 2.780642	 -0.921148	 1.303579
H	 3.506512	 1.320010	 -0.651625
H	 4.322697	 0.999599	 0.867103
H	 2.660624	 1.545032	 0.868198
H	 -1.160889	 -4.640154	 -2.618319
H	 -1.174448	 -5.705845	 -1.206090
H	 0.333585	 -4.960822	 -1.769533

	symmetry c1
}
set optking {
	frozen_dihedral = ("
		12 8 11 15
	")
}

ee = optimize('scf')
oeprop('DIPOLE', 'QUADRUPOLE', 'MULLIKEN_CHARGES')
f=open( 'psi4out.xyz', 'w' )
f.write( "22  " )
f.write( str(ee) + "\n" )
f.write( MOL.save_string_xyz() )
f.close()
--------------------------------------------------------------------------

    Molecular point group: c1
  Charge       = 0
  Multiplicity = 1
  Basis Set: 6-31G*
  Basis Set:
  @DF-RHF Final Energy:  -348.09824490657616
    Total Energy =                       -348.0982449065761557
    Molecular point group: c1
  Basis Set: 6-31G*
  Basis Set:
  Basis Set: 6-31G*
  Basis Set:
  @DF-RHF Final Energy:  -348.09849163007107
    Total Energy =                       -348.0984916300710097
  Basis Set: 6-31G*
  Basis Set:
  Basis Set: 6-31G*
  Basis Set:
  @DF-RHF Final Energy:  -348.09855367040387
    Total Energy =                       -348.0985536704037031
  Basis Set: 6-31G*
  Basis Set:
  Basis Set: 6-31G*
  Basis Set:
  @DF-RHF Final Energy:  -348.09862604183184
    Total Energy =                       -348.0986260418318352
  Basis Set: 6-31G*
  Basis Set:
  Basis Set: 6-31G*
  Basis Set:
  @DF-RHF Final Energy:  -348.09862219481602
    Total Energy =                       -348.0986221948162438
  Basis Set: 6-31G*
  Basis Set:
  Basis Set: 6-31G*
  Basis Set:
  @DF-RHF Final Energy:  -348.09863259006153
    Total Energy =                       -348.0986325900611860
  Basis Set: 6-31G*
  Basis Set:
  Basis Set: 6-31G*
  Basis Set:
  @DF-RHF Final Energy:  -348.09863406598112
    Total Energy =                       -348.0986340659810594
  Basis Set: 6-31G*
  Basis Set:
  Charge       = 0
  Multiplicity = 1
  Basis Set: 6-31G*
  Basis Set:

    Orbital Energies (a.u.)
    -----------------------

    Doubly Occupied:

       1A    -20.547384     2A    -11.324516     3A    -11.230226
       4A    -11.229192     5A    -11.228226     6A    -11.222122
       7A    -11.220472     8A    -11.212335     9A     -1.393153
      10A     -1.095616    11A     -1.045566    12A     -1.000921
      13A     -0.938614    14A     -0.845537    15A     -0.798822
      16A     -0.732507    17A     -0.665242    18A     -0.646385
      19A     -0.631410    20A     -0.608206    21A     -0.594034
      22A     -0.583378    23A     -0.561664    24A     -0.553408
      25A     -0.528735    26A     -0.515431    27A     -0.497866
      28A     -0.485068    29A     -0.475490    30A     -0.467850
      31A     -0.459467    32A     -0.396140

  @DF-RHF Final Energy:  -348.09863474045846

   => Energetics <=

    Nuclear Repulsion Energy =            368.5080896264846615
    One-Electron Energy =               -1201.7434821413580721
    Two-Electron Energy =                 485.1367577744148321
    DFT Exchange-Correlation Energy =       0.0000000000000000
    Empirical Dispersion Energy =           0.0000000000000000
    PCM Polarization Energy =               0.0000000000000000
    EFP Energy =                            0.0000000000000000
    Total Energy =                       -348.0986347404585786
    Molecular point group: c1
  Basis Set: 6-31G*
  Basis Set:

  -Total Gradient:
     Atom            X                  Y                   Z
    ------   -----------------  -----------------  -----------------
       1        0.000011667442     0.000010702049     0.000003836642
       2        0.000013845977    -0.000031459064    -0.000004685197
       3        0.000023512906    -0.000010279631    -0.000012956372
       4       -0.000028443391    -0.000010180011    -0.000001787816
       5       -0.000024238181     0.000036562072     0.000033804336
       6        0.000014654617     0.000023054839    -0.000007420236
       7       -0.000010945417    -0.000010846623     0.000003161458
       8       -0.001541256196    -0.001509462337     0.002759390481
       9        0.000007727421    -0.000012787590     0.000015874592
      10       -0.000017313853    -0.000003755385    -0.000021119117
      11       -0.000755566891    -0.002807424954     0.001910616729
      12        0.001398111211     0.001721067260    -0.002636211520
      13       -0.000006523605     0.000006000505    -0.000005330366
      14        0.000015450863    -0.000015468427    -0.000016769949
      15        0.000881475370     0.002642214488    -0.002032884653
      16        0.000011226894    -0.000011911870     0.000014916295
      17        0.000003179351     0.000003954752     0.000000662211
      18        0.000005186601     0.000003839430     0.000003089776
      19       -0.000008457525    -0.000022913293    -0.000005288398
      20        0.000004636408     0.000003556086    -0.000002365741
      21        0.000000393863    -0.000007061911    -0.000004316108
      22        0.000001676137     0.000002599614     0.000005782952

  **** Optimization is complete! (in 8 steps) ****
    Final optimized geometry and variables:
    Molecular point group: c1

    Geometry (in Angstrom), charge = 0, multiplicity = 1:

    O           -2.351690535409    -1.589976042234     0.629864504385
    C           -1.643793027760    -1.502259681382    -0.326886240352
    C           -0.960870491236    -0.190607955471    -0.672878724948
    C           -1.371061292045    -2.688807095712    -1.224456046550
    C            0.291999019998     0.020644894731     0.191507252723
    H           -1.669279465913     0.608821219524    -0.484998046039
    H           -0.693438666404    -0.165644017280    -1.725467274122
    C            0.987588726912     1.350830150976    -0.094662087511
    H            0.002767928926    -0.025870644339     1.236833659493
    H            0.994390888941    -0.794566022792     0.025585778433
    C            2.269254353282     1.556528794422     0.721029298982
    H            0.302018097108     2.176670698493     0.084773778968
    H            1.234276497586     1.407978256332    -1.153820675976
    C            2.724114428455     3.016588602634     0.743956625041
    H            3.067163439242     0.956587280452     0.289858038172
    H            2.122013627061     1.208501972017     1.740266971589
    H            2.884414695902     3.392724523216    -0.262784828963
    H            3.655158235723     3.129678700926     1.290552375499
    H            1.981425801594     3.651080258901     1.218792608991
    H           -1.803074406695    -2.511135891776    -2.205786202036
    H           -1.804508591487    -3.582702669815    -0.798049258264
    H           -0.303037213152    -2.827443478457    -1.365200361343

  Mulliken Charges: (a.u.)
   Center  Symbol    Alpha    Beta     Spin     Total
       1     O     4.26218  4.26218  0.00000 -0.52436
       2     C     2.73725  2.73725  0.00000  0.52549
       3     C     3.20021  3.20021  0.00000 -0.40043
       4     C     3.28957  3.28957  0.00000 -0.57913
       5     C     3.16231  3.16231  0.00000 -0.32462
       6     H     0.40105  0.40105  0.00000  0.19790
       7     H     0.41683  0.41683  0.00000  0.16634
       8     C     3.15204  3.15204  0.00000 -0.30408
       9     H     0.40571  0.40571  0.00000  0.18857
      10     H     0.42058  0.42058  0.00000  0.15883
      11     C     3.15281  3.15281  0.00000 -0.30561
      12     H     0.41990  0.41990  0.00000  0.16021
      13     H     0.42303  0.42303  0.00000  0.15394
      14     C     3.24039  3.24039  0.00000 -0.48077
      15     H     0.42180  0.42180  0.00000  0.15639
      16     H     0.42001  0.42001  0.00000  0.15998
      17     H     0.42179  0.42179  0.00000  0.15643
      18     H     0.41844  0.41844  0.00000  0.16311
      19     H     0.42042  0.42042  0.00000  0.15917
      20     H     0.40685  0.40685  0.00000  0.18630
      21     H     0.39706  0.39706  0.00000  0.20589
      22     H     0.40977  0.40977  0.00000  0.18047

   Total alpha = 32.00000, Total beta = 32.00000, Total charge =  0.00000
