  ==> Input File <==

--------------------------------------------------------------------------
set {
	reference rhf
	basis 6-31G*
}

set_num_threads( 4 )
memory 2 gb

molecule MOL {
0 1

H	 -2.499100	 -0.730091	 -0.745082
O	 -2.347518	 -0.290803	 0.079804
C	 -1.184022	 0.487508	 -0.006784
C	 0.062599	 -0.378592	 0.031606
H	 -1.176523	 1.099369	 -0.904519
H	 -1.187323	 1.153111	 0.844927
O	 1.171513	 0.459272	 -0.058250
H	 0.050699	 -1.089204	 -0.797170
H	 0.078739	 -0.954914	 0.954740
C	 0.903351	 1.716434	 -0.593764
H	 0.182715	 2.261802	 0.012772
H	 1.832981	 2.268057	 -0.613860
H	 0.515011	 1.641747	 -1.607374

	symmetry c1
}
set optking {
	frozen_dihedral = ("
		10 7 4 8
	")
}

ee = optimize('scf')
oeprop('DIPOLE', 'QUADRUPOLE', 'MULLIKEN_CHARGES')
f=open( 'psi4out.xyz', 'w' )
f.write( "13  " )
f.write( str(ee) + "\n" )
f.write( MOL.save_string_xyz() )
f.close()
--------------------------------------------------------------------------

    Molecular point group: c1
  Charge       = 0
  Multiplicity = 1
  Basis Set: 6-31G*
  Basis Set:
  @DF-RHF Final Energy:  -267.92459566718924
    Total Energy =                       -267.9245956671891804
    Molecular point group: c1
  Basis Set: 6-31G*
  Basis Set:
  Basis Set: 6-31G*
  Basis Set:
  @DF-RHF Final Energy:  -267.92871834899120
    Total Energy =                       -267.9287183489911399
  Basis Set: 6-31G*
  Basis Set:
  Basis Set: 6-31G*
  Basis Set:
  @DF-RHF Final Energy:  -267.93611104101160
    Total Energy =                       -267.9361110410118272
  Basis Set: 6-31G*
  Basis Set:
  Basis Set: 6-31G*
  Basis Set:
  @DF-RHF Final Energy:  -267.93923884534672
    Total Energy =                       -267.9392388453468357
  Basis Set: 6-31G*
  Basis Set:
  @DF-RHF Final Energy:  -267.93996146615041
    Total Energy =                       -267.9399614661502937
  Basis Set: 6-31G*
  Basis Set:
  @DF-RHF Final Energy:  -267.94041862364872
    Total Energy =                       -267.9404186236488385
  Basis Set: 6-31G*
  Basis Set:
  Basis Set: 6-31G*
  Basis Set:
  @DF-RHF Final Energy:  -267.94049453880325
    Total Energy =                       -267.9404945388034207
  Basis Set: 6-31G*
  Basis Set:
  Basis Set: 6-31G*
  Basis Set:
  @DF-RHF Final Energy:  -267.94050383814204
    Total Energy =                       -267.9405038381419217
  Basis Set: 6-31G*
  Basis Set:
  Charge       = 0
  Multiplicity = 1
  Basis Set: 6-31G*
  Basis Set:

    Orbital Energies (a.u.)
    -----------------------

    Doubly Occupied:

       1A    -20.566685     2A    -20.557818     3A    -11.278262
       4A    -11.271569     5A    -11.271482     6A     -1.382576
       7A     -1.369553     8A     -1.013832     9A     -0.939751
      10A     -0.829384    11A     -0.712719    12A     -0.676408
      13A     -0.663594    14A     -0.633320    15A     -0.599187
      16A     -0.570091    17A     -0.539707    18A     -0.511943
      19A     -0.493978    20A     -0.432095    21A     -0.410971

  @DF-RHF Final Energy:  -267.94050457328240

   => Energetics <=

    Nuclear Repulsion Energy =            192.6737781449720615
    One-Electron Energy =                -747.7787181807888146
    Two-Electron Energy =                 287.1644354625346409
    DFT Exchange-Correlation Energy =       0.0000000000000000
    Empirical Dispersion Energy =           0.0000000000000000
    PCM Polarization Energy =               0.0000000000000000
    EFP Energy =                            0.0000000000000000
    Total Energy =                       -267.9405045732821122
    Molecular point group: c1
  Basis Set: 6-31G*
  Basis Set:

  -Total Gradient:
     Atom            X                  Y                   Z
    ------   -----------------  -----------------  -----------------
       1       -0.000017006139    -0.000010283799     0.000001651006
       2        0.000009244959    -0.000007104606    -0.000035388098
       3       -0.000018915326     0.000022591547     0.000033654101
       4       -0.003348019474     0.004748473131    -0.001664455003
       5        0.000005369005    -0.000021075552     0.000012732186
       6        0.000003519529     0.000032229088    -0.000002494928
       7        0.001928276550    -0.003106227008    -0.004822371486
       8        0.002323534048    -0.003189180753     0.002781961423
       9        0.000011561518     0.000001819399    -0.000003413025
      10       -0.000903780750     0.001525760717     0.003700359438
      11        0.000005896025     0.000001862141    -0.000005093040
      12       -0.000002060497    -0.000005229575     0.000004075451
      13        0.000002380558     0.000006365272    -0.000001218023

  **** Optimization is complete! (in 9 steps) ****
    Final optimized geometry and variables:
    Molecular point group: c1

    Geometry (in Angstrom), charge = 0, multiplicity = 1:

    H           -2.156879391878    -1.369567364135    -0.519066007629
    O           -2.057244445229    -0.869393212415     0.279099836624
    C           -1.017594657319     0.059500849822     0.127985718604
    C            0.320895944912    -0.672486465189     0.091838343714
    H           -1.172150386973     0.667494966548    -0.758849113240
    H           -1.065670910005     0.712510887139     0.988862931023
    O            1.479149030561     0.115296665764     0.048127276742
    H            0.337171396161    -1.382158826884    -0.736201010682
    H            0.389014979609    -1.265628472043     0.995335784291
    C            1.416347427515     1.398828884130    -0.492942426876
    H            0.767537120333     2.057469867687     0.076471819782
    H            2.420866804817     1.797077127883    -0.457937427031
    H            1.086170168986     1.393960070137    -1.529975151336

  Mulliken Charges: (a.u.)
   Center  Symbol    Alpha    Beta     Spin     Total
       1     H     0.28048  0.28048  0.00000  0.43905
       2     O     4.36957  4.36957  0.00000 -0.73913
       3     C     3.01800  3.01800  0.00000 -0.03601
       4     C     2.98996  2.98996  0.00000  0.02008
       5     H     0.42633  0.42633  0.00000  0.14734
       6     H     0.40910  0.40910  0.00000  0.18180
       7     O     4.31208  4.31208  0.00000 -0.62417
       8     H     0.43463  0.43463  0.00000  0.13074
       9     H     0.40989  0.40989  0.00000  0.18023
      10     C     3.08325  3.08325  0.00000 -0.16650
      11     H     0.42741  0.42741  0.00000  0.14518
      12     H     0.40887  0.40887  0.00000  0.18227
      13     H     0.43044  0.43044  0.00000  0.13912

   Total alpha = 21.00000, Total beta = 21.00000, Total charge =  0.00000
