                              Psi4 1.0.54 Driver

  ==> Input File <==

--------------------------------------------------------------------------
set {
	reference rhf
	basis cc-pvtz
}

set_num_threads( 4 )
memory 2 gb

molecule MOL {
0 1

O	 -2.071633	 -1.227563	 -0.223463
C	 -1.652164	 -0.152425	 0.058082
C	 -0.327811	 0.006324	 0.778296
C	 -2.402515	 1.108629	 -0.298924
C	 0.843231	 -0.001575	 -0.211665
H	 -0.319484	 0.928173	 1.350354
H	 -0.227804	 -0.823091	 1.466705
C	 2.197693	 0.138030	 0.476937
H	 0.722944	 0.805202	 -0.930230
H	 0.813976	 -0.926978	 -0.776588
C	 2.356999	 -0.800144	 1.668412
H	 2.989171	 -0.053723	 -0.242312
H	 2.325832	 1.165051	 0.806097
H	 2.268651	 -1.837945	 1.364773
H	 1.597847	 -0.610390	 2.419445
H	 3.325655	 -0.674626	 2.137830
H	 -3.240910	 0.874416	 -0.936711
H	 -1.747554	 1.818823	 -0.790984
H	 -2.760419	 1.579708	 0.610998

	symmetry c1
}
set optking {
	frozen_dihedral = ("
		11 8 5 9
	")
}

ee,wfn = optimize('scf', return_wfn=True)
oeprop( wfn, 'DIPOLE', 'QUADRUPOLE', 'MULLIKEN_CHARGES')
f=open( 'psi4out.xyz', 'w' )
f.write( "19  " )
f.write( str(ee) + "\n" )
f.write( MOL.save_string_xyz() )
f.close()
--------------------------------------------------------------------------

    Molecular point group: c1
  Charge       = 0
  Multiplicity = 1
  Basis Set: CC-PVTZ
  Basis Set:
  @DF-RHF Final Energy:  -309.17317907216318
    Total Energy =                       -309.1731790721632365
    Molecular point group: c1
  Basis Set: CC-PVTZ
  Basis Set:
  Basis Set: CC-PVTZ
  Basis Set:
  @DF-RHF Final Energy:  -308.51478721978674
    Total Energy =                       -308.5147872197868537
  Basis Set: CC-PVTZ
  Basis Set:
  Basis Set: CC-PVTZ
  Basis Set:
  @DF-RHF Final Energy:  -308.72444287628184
    Total Energy =                       -308.7244428762815005
  Basis Set: CC-PVTZ
  Basis Set:
  Basis Set: CC-PVTZ
  Basis Set:
  @DF-RHF Final Energy:  -309.02569987902331
    Total Energy =                       -309.0256998790229090
  Basis Set: CC-PVTZ
  Basis Set:
  @DF-RHF Final Energy:  -309.14229470027396
    Total Energy =                       -309.1422947002741353
  @DF-RHF Final Energy:  -309.17276781434123
    Total Energy =                       -309.1727678143414551
  @DF-RHF Final Energy:  -309.17437018870078
    Total Energy =                       -309.1743701887008910
  @DF-RHF Final Energy:  -309.17397859411386
    Total Energy =                       -309.1739785941139189
  @DF-RHF Final Energy:  -309.17463051910096
    Total Energy =                       -309.1746305191009014
  @DF-RHF Final Energy:  -309.17471637407067
    Total Energy =                       -309.1747163740703854
  Basis Set: CC-PVTZ
  Basis Set:
  @DF-RHF Final Energy:  -309.17471969602838
    Total Energy =                       -309.1747196960286033
  Basis Set: CC-PVTZ
  Basis Set:
  Basis Set: CC-PVTZ
  Basis Set:
  @DF-RHF Final Energy:  -309.17471222903725
    Total Energy =                       -309.1747122290371976
  Basis Set: CC-PVTZ
  Basis Set:
  Basis Set: CC-PVTZ
  Basis Set:
  @DF-RHF Final Energy:  -309.17472432486846
    Total Energy =                       -309.1747243248686345
  Basis Set: CC-PVTZ
  Basis Set:
  Charge       = 0
  Multiplicity = 1
  Basis Set: CC-PVTZ
  Basis Set:

    Orbital Energies (a.u.)
    -----------------------

    Doubly Occupied:

       1A    -20.536661     2A    -11.319267     3A    -11.229311
       4A    -11.227272     5A    -11.226987     6A    -11.223686
       7A    -11.212987     8A     -1.396847     9A     -1.092450
      10A     -1.028430    11A     -0.981807    12A     -0.902368
      13A     -0.797244    14A     -0.735745    15A     -0.661403
      16A     -0.653740    17A     -0.624222    18A     -0.603631
      19A     -0.591630    20A     -0.578475    21A     -0.550491
      22A     -0.544801    23A     -0.514245    24A     -0.505103
      25A     -0.482694    26A     -0.471726    27A     -0.464872
      28A     -0.399592

  @DF-RHF Final Energy:  -309.17472505569060

   => Energetics <=

    Nuclear Repulsion Energy =            305.5099256582150247
    One-Electron Energy =               -1024.2539269277115181
    Two-Electron Energy =                 409.5692762138059493
    DFT Exchange-Correlation Energy =       0.0000000000000000
    Empirical Dispersion Energy =           0.0000000000000000
    PCM Polarization Energy =               0.0000000000000000
    EFP Energy =                            0.0000000000000000
    Total Energy =                       -309.1747250556905442
    Molecular point group: c1
  Basis Set: CC-PVTZ
  Basis Set:

  -Total Gradient:
     Atom            X                  Y                   Z
    ------   -----------------  -----------------  -----------------
       1       -0.000004858148     0.000010786321     0.000025351921
       2       -0.000000025001    -0.000032495910    -0.000035286556
       3       -0.000017895002     0.000027757818     0.000005502043
       4        0.000064089191    -0.000003017163    -0.000021244064
       5        0.001427262887    -0.001415148567    -0.002625802232
       6       -0.000004177059     0.000004647572     0.000008473397
       7        0.000009866024    -0.000009573367     0.000012081816
       8        0.000709985399    -0.001914625390    -0.002368325318
       9       -0.001418489063     0.001706889362     0.002895760814
      10        0.000001056586     0.000008076163    -0.000010362353
      11       -0.000713424172     0.001616449631     0.002088948553
      12        0.000000281679    -0.000000724312     0.000000214120
      13       -0.000000673093     0.000000286267     0.000008039093
      14        0.000003341685    -0.000000743657    -0.000002627388
      15       -0.000004895039     0.000003213637     0.000000946700
      16       -0.000006485588    -0.000001234460    -0.000001479112
      17       -0.000007173033     0.000007770372     0.000005864513
      18       -0.000013495589     0.000001630715     0.000008562962
      19       -0.000024292669    -0.000009945033     0.000005381090

  **** Optimization is complete! (in 14 steps) ****
    Final optimized geometry and variables:
    Molecular point group: c1

    Geometry (in Angstrom), charge = 0, multiplicity = 1:

    O           -1.826749164346     0.411414111656    -1.367532873734
    C           -1.144020442870     0.902195081677    -0.528309437772
    C           -0.320926578856     0.043026296428     0.410562124907
    C           -1.048779681921     2.400274185208    -0.361610386984
    C            1.020726619285    -0.328049394489    -0.239650731025
    H           -0.145514724267     0.569257689787     1.343701845456
    H           -0.897264231589    -0.846329011756     0.622062612993
    C            1.973913990655    -1.098561944189     0.678714460860
    H            1.513916833849     0.591549682729    -0.540938130195
    H            0.820828822590    -0.898939001476    -1.139063582736
    C            1.362825373162    -2.302053243127     1.391358958132
    H            2.824763466166    -1.422670464997     0.088706965251
    H            2.368049612667    -0.416249549370     1.427340661534
    H            0.913482722100    -2.994313792344     0.686520771722
    H            0.597831078207    -2.006340170280     2.098432120505
    H            2.123900618494    -2.841732301204     1.942590917912
    H           -1.542393449554     2.897955788717    -1.182109952955
    H           -0.013757630293     2.717040997167    -0.302074198058
    H           -1.525095978863     2.683657485283     0.571669714826

  Mulliken Charges: (a.u.)
   Center  Symbol    Alpha    Beta     Spin     Total
       1     O     4.17710  4.17710  0.00000 -0.35421
       2     C     2.85853  2.85853  0.00000  0.28293
       3     C     3.10390  3.10390  0.00000 -0.20781
       4     C     3.15497  3.15497  0.00000 -0.30993
       5     C     3.10363  3.10363  0.00000 -0.20726
       6     H     0.44873  0.44873  0.00000  0.10254
       7     H     0.43681  0.43681  0.00000  0.12639
       8     C     3.09037  3.09037  0.00000 -0.18074
       9     H     0.44796  0.44796  0.00000  0.10407
      10     H     0.43929  0.43929  0.00000  0.12142
      11     C     3.15573  3.15573  0.00000 -0.31146
      12     H     0.44640  0.44640  0.00000  0.10720
      13     H     0.45386  0.45386  0.00000  0.09227
      14     H     0.45064  0.45064  0.00000  0.09873
      15     H     0.45250  0.45250  0.00000  0.09500
      16     H     0.44441  0.44441  0.00000  0.11118
      17     H     0.43582  0.43582  0.00000  0.12836
      18     H     0.45107  0.45107  0.00000  0.09786
      19     H     0.44827  0.44827  0.00000  0.10346

   Total alpha = 28.00000, Total beta = 28.00000, Total charge = -0.00000

*** Psi4 exiting successfully. Buy a developer a beer!
