  ==> Input File <==

--------------------------------------------------------------------------
set {
	reference rhf
	basis 6-31G*
}

set_num_threads( 4 )
memory 2 gb

molecule MOL {
0 1

H	 -3.420663	 1.227371	 -1.044276
O	 -3.452007	 0.283848	 -0.965577
C	 -3.181085	 -0.079926	 0.364119
C	 -1.765924	 0.277073	 0.805136
H	 -3.327791	 -1.152017	 0.410903
H	 -3.905698	 0.375695	 1.036898
C	 -0.677594	 -0.417312	 -0.014550
H	 -1.637766	 1.358238	 0.744969
H	 -1.659588	 0.017670	 1.857098
C	 0.738335	 -0.034840	 0.421385
H	 -0.814977	 -0.178223	 -1.064632
H	 -0.802730	 -1.495410	 0.071702
C	 1.822265	 -0.738362	 -0.399735
H	 0.853533	 1.043532	 0.342250
H	 0.871597	 -0.279636	 1.474438
C	 3.235529	 -0.641106	 0.186251
H	 1.825283	 -0.335524	 -1.411371
H	 1.559660	 -1.790026	 -0.493852
C	 3.818173	 0.773239	 0.209925
H	 3.894725	 -1.279302	 -0.397235
H	 3.235230	 -1.048464	 1.195341
H	 3.819504	 1.211154	 -0.784744
H	 4.843770	 0.761745	 0.566095
H	 3.255719	 1.433763	 0.861475

	symmetry c1
}
set optking {
	frozen_dihedral = ("
		17 13 10 7
	")
}

ee = optimize('scf')
oeprop('DIPOLE', 'QUADRUPOLE', 'MULLIKEN_CHARGES')
f=open( 'psi4out.xyz', 'w' )
f.write( "24  " )
f.write( str(ee) + "\n" )
f.write( MOL.save_string_xyz() )
f.close()
--------------------------------------------------------------------------

    Molecular point group: c1
  Charge       = 0
  Multiplicity = 1
  Basis Set: 6-31G*
  Basis Set:
  @DF-RHF Final Energy:  -349.24730397344359
    Total Energy =                       -349.2473039734437634
    Molecular point group: c1
  Basis Set: 6-31G*
  Basis Set:
  Basis Set: 6-31G*
  Basis Set:
  @DF-RHF Final Energy:  -349.24712890183878
    Total Energy =                       -349.2471289018387779
  Basis Set: 6-31G*
  Basis Set:
  Basis Set: 6-31G*
  Basis Set:
  @DF-RHF Final Energy:  -349.24735837041288
    Total Energy =                       -349.2473583704128828
  Basis Set: 6-31G*
  Basis Set:
  Basis Set: 6-31G*
  Basis Set:
  @DF-RHF Final Energy:  -349.24736148941116
    Total Energy =                       -349.2473614894111620
  Basis Set: 6-31G*
  Basis Set:
  Basis Set: 6-31G*
  Basis Set:
  @DF-RHF Final Energy:  -349.24736645267012
    Total Energy =                       -349.2473664526700077
  Basis Set: 6-31G*
  Basis Set:
  Charge       = 0
  Multiplicity = 1
  Basis Set: 6-31G*
  Basis Set:

    Orbital Energies (a.u.)
    -----------------------

    Doubly Occupied:

       1A    -20.553551     2A    -11.267718     3A    -11.217474
       4A    -11.213911     5A    -11.212538     6A    -11.211577
       7A    -11.211201     8A    -11.207362     9A     -1.360158
      10A     -1.088570    11A     -1.048394    12A     -0.985340
      13A     -0.914880    14A     -0.850674    15A     -0.801118
      16A     -0.775719    17A     -0.679232    18A     -0.653153
      19A     -0.626196    20A     -0.619515    21A     -0.595393
      22A     -0.586682    23A     -0.555441    24A     -0.542683
      25A     -0.515216    26A     -0.506982    27A     -0.500699
      28A     -0.472885    29A     -0.467666    30A     -0.460019
      31A     -0.453798    32A     -0.451465    33A     -0.418992

  @DF-RHF Final Energy:  -349.24736730554190

   => Energetics <=

    Nuclear Repulsion Energy =            384.4527582622186515
    One-Electron Energy =               -1235.3478448333671622
    Two-Electron Energy =                 501.6477192656063835
    DFT Exchange-Correlation Energy =       0.0000000000000000
    Empirical Dispersion Energy =           0.0000000000000000
    PCM Polarization Energy =               0.0000000000000000
    EFP Energy =                            0.0000000000000000
    Total Energy =                       -349.2473673055421841
    Molecular point group: c1
  Basis Set: 6-31G*
  Basis Set:

  -Total Gradient:
     Atom            X                  Y                   Z
    ------   -----------------  -----------------  -----------------
       1       -0.000000884611     0.000004355938    -0.000001546067
       2       -0.000014612002     0.000009734342     0.000008627811
       3        0.000007658188    -0.000026539543    -0.000003219906
       4        0.000004725110     0.000022113459    -0.000007932529
       5       -0.000001397370    -0.000004350877    -0.000002684492
       6        0.000001450842    -0.000001260028    -0.000000551688
       7        0.000004637811    -0.000899925406     0.000753404022
       8        0.000000520026     0.000004307883    -0.000003512153
       9       -0.000000062097     0.000007336132    -0.000003579600
      10        0.000250515099     0.001487408731    -0.000950252438
      11        0.000001137840     0.000004383604     0.000014867296
      12        0.000000353701    -0.000006262941    -0.000000960486
      13       -0.001330420825    -0.001717138786    -0.000259895172
      14       -0.000016409469    -0.000005285809    -0.000009583156
      15        0.000020686911     0.000002043759    -0.000001525257
      16        0.000002909083    -0.000006102565     0.000012573475
      17        0.001072963522     0.001116100189     0.000458187513
      18       -0.000007162644     0.000009326446    -0.000004903630
      19       -0.000003239485     0.000000639578     0.000000689246
      20        0.000002721850    -0.000002491464    -0.000001044828
      21       -0.000000760747    -0.000000324006     0.000001473742
      22       -0.000003126542     0.000000334177     0.000001367182
      23        0.000000138876    -0.000000314414    -0.000002011729
      24        0.000007656935     0.000001911602     0.000002012845

  **** Optimization is complete! (in 6 steps) ****
    Final optimized geometry and variables:
    Molecular point group: c1

    Geometry (in Angstrom), charge = 0, multiplicity = 1:

    H           -3.421787865300     1.266345215724    -1.125010340705
    O           -3.459555623018     0.325013184712    -1.025928996922
    C           -3.187703330905    -0.011929386995     0.310618709635
    C           -1.769218738874     0.345339481118     0.740678323462
    H           -3.340991771781    -1.081751867120     0.380548209297
    H           -3.907781061556     0.462430457369     0.975202453658
    C           -0.687175576988    -0.372381517156    -0.067032840560
    H           -1.634591801548     1.424196843859     0.658058244263
    H           -1.661748289233     0.106882555689     1.797531673582
    C            0.732252590473     0.001608086794     0.365030659542
    H           -0.822341195986    -0.149439037367    -1.121142258983
    H           -0.821531710204    -1.447632167260     0.036749209408
    C            1.811535887746    -0.701074467081    -0.465077650954
    H            0.856338753266     1.079696255691     0.298232284064
    H            0.863449125837    -0.255762607140     1.415570113903
    C            3.228092923813    -0.591314510967     0.111060380695
    H            1.811315631506    -0.291237874139    -1.473763618030
    H            1.557124379961    -1.754381168895    -0.558609603945
    C            3.778757202887     0.834713378139     0.167330647458
    H            3.895398086383    -1.200421096424    -0.493939277815
    H            3.244282622598    -1.023767383863     1.109500374047
    H            3.762748075285     1.298324296490    -0.815549128529
    H            4.806762537329     0.838512612883     0.516613725924
    H            3.204498823829     1.464153671337     0.839268607074

  Mulliken Charges: (a.u.)
   Center  Symbol    Alpha    Beta     Spin     Total
       1     H     0.28339  0.28339  0.00000  0.43322
       2     O     4.36830  4.36830  0.00000 -0.73660
       3     C     2.99615  2.99615  0.00000  0.00771
       4     C     3.16913  3.16913  0.00000 -0.33827
       5     H     0.41633  0.41633  0.00000  0.16733
       6     H     0.42816  0.42816  0.00000  0.14367
       7     C     3.15186  3.15186  0.00000 -0.30373
       8     H     0.42829  0.42829  0.00000  0.14343
       9     H     0.42240  0.42240  0.00000  0.15520
      10     C     3.15384  3.15384  0.00000 -0.30769
      11     H     0.41220  0.41220  0.00000  0.17560
      12     H     0.42344  0.42344  0.00000  0.15312
      13     C     3.15222  3.15222  0.00000 -0.30444
      14     H     0.42259  0.42259  0.00000  0.15483
      15     H     0.42559  0.42559  0.00000  0.14882
      16     C     3.15239  3.15239  0.00000 -0.30479
      17     H     0.42352  0.42352  0.00000  0.15296
      18     H     0.42157  0.42157  0.00000  0.15686
      19     C     3.24125  3.24125  0.00000 -0.48249
      20     H     0.42128  0.42128  0.00000  0.15745
      21     H     0.42381  0.42381  0.00000  0.15239
      22     H     0.42248  0.42248  0.00000  0.15503
      23     H     0.41954  0.41954  0.00000  0.16091
      24     H     0.42026  0.42026  0.00000  0.15948

   Total alpha = 33.00000, Total beta = 33.00000, Total charge =  0.00000
