  ==> Input File <==

--------------------------------------------------------------------------
set {
	reference rhf
	basis cc-pvtz
}

set_num_threads( 4 )
memory 2 gb

molecule MOL {
0 1

H	 -2.757000	 -0.661000	 1.132000
C	 -2.707000	 -0.468000	 0.063000
O	 -1.393000	 -0.313000	 -0.366000
H	 -3.126000	 -1.313000	 -0.466000
H	 -3.306000	 0.415000	 -0.157000
C	 -0.720000	 0.751000	 0.229000
C	 0.720000	 0.751000	 -0.229000
H	 -1.185000	 1.697000	 -0.051000
H	 -0.751000	 0.670000	 1.313000
O	 1.393000	 -0.313000	 0.366000
H	 0.751000	 0.670000	 -1.313000
H	 1.185000	 1.697000	 0.051000
C	 2.707000	 -0.468000	 -0.063000
H	 2.757000	 -0.661000	 -1.132000
H	 3.306000	 0.415000	 0.156000
H	 3.126000	 -1.313000	 0.466000

	symmetry c1
}
ee = optimize('scf')
oeprop('DIPOLE', 'QUADRUPOLE', 'MULLIKEN_CHARGES')
f=open( 'psi4out.xyz', 'w' )
f.write( "16  " )
f.write( str(ee) + "\n" )
f.write( MOL.save_string_xyz() )
f.close()
--------------------------------------------------------------------------

    Molecular point group: c1
  Charge       = 0
  Multiplicity = 1
  Basis Set: CC-PVTZ
  Basis Set:
  @DF-RHF Final Energy:  -307.09790171827797
    Total Energy =                       -307.0979017182780808
    Molecular point group: c1
  Basis Set: CC-PVTZ
  Basis Set:
  Basis Set: CC-PVTZ
  Basis Set:
  @DF-RHF Final Energy:  -307.09795217224274
    Total Energy =                       -307.0979521722429695
  Basis Set: CC-PVTZ
  Basis Set:
  Basis Set: CC-PVTZ
  Basis Set:
  @DF-RHF Final Energy:  -307.09795502109148
    Total Energy =                       -307.0979550210915932
  Basis Set: CC-PVTZ
  Basis Set:
  Charge       = 0
  Multiplicity = 1
  Basis Set: CC-PVTZ
  Basis Set:

    Orbital Energies (a.u.)
    -----------------------

    Doubly Occupied:

       1A    -20.547861     2A    -20.547860     3A    -11.267609
       4A    -11.266931     5A    -11.261640     6A    -11.261640
       7A     -1.391830     8A     -1.374629     9A     -1.032115
      10A     -0.937234    11A     -0.892234    12A     -0.824454
      13A     -0.686520    14A     -0.682881    15A     -0.659540
      16A     -0.638206    17A     -0.632345    18A     -0.598647
      19A     -0.550694    20A     -0.536162    21A     -0.509948
      22A     -0.479834    23A     -0.464840    24A     -0.423337
      25A     -0.413786

  @DF-RHF Final Energy:  -307.09795539036691

   => Energetics <=

    Nuclear Repulsion Energy =            258.9148721054078806
    One-Electron Energy =                -932.2601046493659851
    Two-Electron Energy =                 366.2472771535910852
    DFT Exchange-Correlation Energy =       0.0000000000000000
    Empirical Dispersion Energy =           0.0000000000000000
    PCM Polarization Energy =               0.0000000000000000
    EFP Energy =                            0.0000000000000000
    Total Energy =                       -307.0979553903670194
    Molecular point group: c1
  Basis Set: CC-PVTZ
  Basis Set:

  -Total Gradient:
     Atom            X                  Y                   Z
    ------   -----------------  -----------------  -----------------
       1       -0.000003146354    -0.000004237653     0.000006051214
       2        0.000011510274     0.000015936882    -0.000009300523
       3       -0.000017900729    -0.000016538466    -0.000009926665
       4       -0.000000988988    -0.000004180367    -0.000000242197
       5       -0.000000377860    -0.000004123349     0.000002898033
       6        0.000006099729     0.000020444819    -0.000003374847
       7       -0.000005359459     0.000020815375     0.000003583549
       8        0.000005167969    -0.000010574203     0.000002665602
       9       -0.000003869283     0.000002886112     0.000016895699
      10        0.000015764516    -0.000016758946     0.000009658565
      11        0.000003907704     0.000002794820    -0.000016785379
      12       -0.000005041622    -0.000010334979    -0.000002856270
      13       -0.000012906869     0.000017404507     0.000005908340
      14        0.000002734820    -0.000004076965    -0.000003545225
      15        0.000001787756    -0.000004797208    -0.000002433472
      16        0.000002618397    -0.000004660382     0.000000803576

  **** Optimization is complete! (in 4 steps) ****
    Final optimized geometry and variables:
    Molecular point group: c1

    Geometry (in Angstrom), charge = 0, multiplicity = 1:

    H           -2.765296841219    -0.641519697475     1.128893191052
    C           -2.714315186249    -0.441631504263     0.061031258980
    O           -1.401605891951    -0.295182930858    -0.366623773912
    H           -3.143718049102    -1.278525640535    -0.470108937394
    H           -3.305651810239     0.447336935568    -0.150962406490
    C           -0.718529809146     0.758692663865     0.228682366792
    C            0.718529488192     0.758686547731    -0.228709293451
    H           -1.176497816600     1.708665049079    -0.046615400879
    H           -0.748705302421     0.673524345660     1.312779051225
    O            1.401605599581    -0.295166464211     0.366635569433
    H            0.748705102890     0.673477023393    -1.312802648874
    H            1.176495720877     1.708670666390     0.046551734238
    C            2.714315125478    -0.441627723581    -0.061017075010
    H            2.765292289583    -0.641548173672    -1.128869127638
    H            3.305660967199     0.447340978210     0.150952480766
    H            3.143724924299    -1.278506192327     0.470146585527

  Mulliken Charges: (a.u.)
   Center  Symbol    Alpha    Beta     Spin     Total
       1     H     0.47018  0.47018  0.00000  0.05963
       2     C     3.03198  3.03198  0.00000 -0.06396
       3     O     4.17049  4.17049  0.00000 -0.34097
       4     H     0.44634  0.44634  0.00000  0.10732
       5     H     0.47368  0.47368  0.00000  0.05263
       6     C     2.96053  2.96053  0.00000  0.07895
       7     C     2.96053  2.96053  0.00000  0.07895
       8     H     0.47608  0.47608  0.00000  0.04784
       9     H     0.47072  0.47072  0.00000  0.05856
      10     O     4.17049  4.17049  0.00000 -0.34097
      11     H     0.47072  0.47072  0.00000  0.05856
      12     H     0.47608  0.47608  0.00000  0.04784
      13     C     3.03198  3.03198  0.00000 -0.06396
      14     H     0.47018  0.47018  0.00000  0.05963
      15     H     0.47368  0.47368  0.00000  0.05263
      16     H     0.44634  0.44634  0.00000  0.10731

   Total alpha = 25.00000, Total beta = 25.00000, Total charge =  0.00000
