                              Psi4 1.0.54 Driver

  ==> Input File <==

--------------------------------------------------------------------------
set {
	reference rhf
	basis cc-pvtz
}

set_num_threads( 4 )
memory 2 gb

molecule MOL {
0 1

H	 -2.757488	 0.447977	 -0.375946
C	 -2.129349	 0.756289	 -1.200935
C	 -0.851178	 -0.066274	 -1.250764
H	 -1.909758	 1.807175	 -1.068146
H	 -2.689128	 0.636915	 -2.120881
C	 0.000000	 0.039916	 0.000014
H	 -0.234157	 0.229447	 -2.094999
H	 -1.074492	 -1.117954	 -1.408851
C	 1.286532	 -0.763243	 0.000268
O	 -0.321848	 0.712256	 0.924542
C	 2.547023	 0.087626	 -0.000114
H	 1.264245	 -1.421103	 -0.864380
H	 1.264290	 -1.420353	 0.865489
H	 2.584452	 0.725630	 -0.872909
H	 3.427035	 -0.544422	 0.000125
H	 2.584484	 0.726356	 0.872143

	symmetry c1
}
set optking {
	frozen_dihedral = ("
		3 6 9 12
	")
}

ee,wfn = optimize('scf', return_wfn=True)
oeprop( wfn, 'DIPOLE', 'QUADRUPOLE', 'MULLIKEN_CHARGES')
f=open( 'psi4out.xyz', 'w' )
f.write( "16  " )
f.write( str(ee) + "\n" )
f.write( MOL.save_string_xyz() )
f.close()
--------------------------------------------------------------------------

    Molecular point group: c1
  Charge       = 0
  Multiplicity = 1
  Basis Set: CC-PVTZ
  Basis Set:
  @DF-RHF Final Energy:  -270.12921927593243
    Total Energy =                       -270.1292192759325417
    Molecular point group: c1
  Basis Set: CC-PVTZ
  Basis Set:
  Basis Set: CC-PVTZ
  Basis Set:
  @DF-RHF Final Energy:  -270.12687635461839
    Total Energy =                       -270.1268763546182754
  Basis Set: CC-PVTZ
  Basis Set:
  Basis Set: CC-PVTZ
  Basis Set:
  @DF-RHF Final Energy:  -270.12988157926856
    Total Energy =                       -270.1298815792683286
  Basis Set: CC-PVTZ
  Basis Set:
  Basis Set: CC-PVTZ
  Basis Set:
  @DF-RHF Final Energy:  -270.00767778271694
    Total Energy =                       -270.0076777827167120
  Basis Set: CC-PVTZ
  Basis Set:
  @DF-RHF Final Energy:  -270.10802059812454
    Total Energy =                       -270.1080205981245399
  @DF-RHF Final Energy:  -270.12844399750168
    Total Energy =                       -270.1284439975016767
  @DF-RHF Final Energy:  -269.39849918347568
    Total Energy =                       -269.3984991834757921
  @DF-RHF Final Energy:  -269.73306064674892
    Total Energy =                       -269.7330606467490384
  @DF-RHF Final Energy:  -269.99650020477031
    Total Energy =                       -269.9965002047704274
  @DF-RHF Final Energy:  -270.10956020635183
    Total Energy =                       -270.1095602063518868
  @DF-RHF Final Energy:  -270.12750801403183
    Total Energy =                       -270.1275080140316618
  @DF-RHF Final Energy:  -269.90757926877097
    Total Energy =                       -269.9075792687707462
  @DF-RHF Final Energy:  -270.08503727170688
    Total Energy =                       -270.0850372717065966
  @DF-RHF Final Energy:  -270.12732356452864
    Total Energy =                       -270.1273235645287514
  @DF-RHF Final Energy:  -269.64355846936166
    Total Energy =                       -269.6435584693615510
  @DF-RHF Final Energy:  -269.94656221326431
    Total Energy =                       -269.9465622132643148
  @DF-RHF Final Energy:  -270.09297464092037
    Total Energy =                       -270.0929746409206018
  @DF-RHF Final Energy:  -270.12883375327203
    Total Energy =                       -270.1288337532719197
  @DF-RHF Final Energy:  -270.12959986096985
    Total Energy =                       -270.1295998609698472
  Basis Set: CC-PVTZ
  Basis Set:
  @DF-RHF Final Energy:  -270.12994740047304
    Total Energy =                       -270.1299474004732701
  Basis Set: CC-PVTZ
  Basis Set:
  Basis Set: CC-PVTZ
  Basis Set:
  @DF-RHF Final Energy:  -270.12999207377936
    Total Energy =                       -270.1299920737795333
  Basis Set: CC-PVTZ
  Basis Set:
  Basis Set: CC-PVTZ
  Basis Set:
  @DF-RHF Final Energy:  -270.12999453587975
    Total Energy =                       -270.1299945358797459
  Basis Set: CC-PVTZ
  Basis Set:
  Charge       = 0
  Multiplicity = 1
  Basis Set: CC-PVTZ
  Basis Set:

    Orbital Energies (a.u.)
    -----------------------

    Doubly Occupied:

       1A    -20.537234     2A    -11.317520     3A    -11.233153
       4A    -11.230405     5A    -11.221689     6A    -11.211833
       7A     -1.398024     8A     -1.070728     9A     -1.037968
      10A     -0.914214    11A     -0.852974    12A     -0.727454
      13A     -0.667148    14A     -0.644214    15A     -0.624964
      16A     -0.602396    17A     -0.567539    18A     -0.538430
      19A     -0.530704    20A     -0.512869    21A     -0.503358
      22A     -0.498238    23A     -0.480033    24A     -0.398375

  @DF-RHF Final Energy:  -270.12999470710474

   => Energetics <=

    Nuclear Repulsion Energy =            240.6970475011997053
    One-Electron Energy =                -843.0111608413143358
    Two-Electron Energy =                 332.1841186330096320
    DFT Exchange-Correlation Energy =       0.0000000000000000
    Empirical Dispersion Energy =           0.0000000000000000
    PCM Polarization Energy =               0.0000000000000000
    EFP Energy =                            0.0000000000000000
    Total Energy =                       -270.1299947071050269
    Molecular point group: c1
  Basis Set: CC-PVTZ
  Basis Set:

  -Total Gradient:
     Atom            X                  Y                   Z
    ------   -----------------  -----------------  -----------------
       1       -0.000006359498    -0.000008040133    -0.000000062870
       2       -0.000002965001     0.000008895352    -0.000025716268
       3       -0.000022489140    -0.000072861142    -0.000006798877
       4        0.000001389880     0.000013574447     0.000012035657
       5        0.000000514205    -0.000003697730     0.000002288042
       6        0.000061672502     0.000133441587    -0.000179361441
       7        0.000009955840    -0.000000239534    -0.000003520931
       8        0.000003199777    -0.000012451454    -0.000010112145
       9       -0.000040801436    -0.000162204061     0.000020063476
      10       -0.000032541052     0.000000319692     0.000219096080
      11       -0.000004953485     0.000000484789    -0.000025569869
      12        0.000045201590     0.000097492372    -0.000028976438
      13       -0.000007859671     0.000001155114    -0.000001556096
      14        0.000008166701    -0.000002156085     0.000004509834
      15       -0.000004301009    -0.000001137993     0.000007137075
      16       -0.000007830205     0.000007424779     0.000016544768

  **** Optimization is complete! (in 23 steps) ****
    Final optimized geometry and variables:
    Molecular point group: c1

    Geometry (in Angstrom), charge = 0, multiplicity = 1:

    H           -2.069909016178     1.633592584310    -1.102228724774
    C           -2.305552584628     0.782671993497    -0.477384983045
    C           -1.187798001345     0.511284370991     0.516130582337
    H           -2.459624959865    -0.067058742353    -1.129179698605
    H           -3.232925308453     0.986470707330     0.044467829129
    C            0.153497458199     0.219832068342    -0.120508081117
    H           -1.431561744086    -0.329388923057     1.161634420435
    H           -1.047405695225     1.356066674254     1.186494072042
    C            1.302046936642    -0.124284741706     0.812252830045
    O            0.315461025644     0.244767800520    -1.297121661898
    C            1.745246999773    -1.577546944568     0.633786842587
    H            1.023395411072     0.060639315484     1.842736401567
    H            2.122885445692     0.539227021392     0.566703571779
    H            0.945084648802    -2.266757900108     0.881155114741
    H            2.585051964233    -1.799534405943     1.280296424049
    H            2.041866023965    -1.758900145291    -0.390032126043

  Mulliken Charges: (a.u.)
   Center  Symbol    Alpha    Beta     Spin     Total
       1     H     0.44709  0.44709  0.00000  0.10582
       2     C     3.14098  3.14098  0.00000 -0.28197
       3     C     3.10385  3.10385  0.00000 -0.20769
       4     H     0.44838  0.44838  0.00000  0.10325
       5     H     0.45078  0.45078  0.00000  0.09843
       6     C     2.86451  2.86451  0.00000  0.27097
       7     H     0.44550  0.44550  0.00000  0.10900
       8     H     0.44494  0.44494  0.00000  0.11013
       9     C     3.09530  3.09530  0.00000 -0.19059
      10     O     4.17801  4.17801  0.00000 -0.35603
      11     C     3.14591  3.14591  0.00000 -0.29181
      12     H     0.44844  0.44844  0.00000  0.10313
      13     H     0.44172  0.44172  0.00000  0.11656
      14     H     0.45554  0.45554  0.00000  0.08891
      15     H     0.44797  0.44797  0.00000  0.10406
      16     H     0.44108  0.44108  0.00000  0.11784

   Total alpha = 24.00000, Total beta = 24.00000, Total charge = -0.00000

*** Psi4 exiting successfully. Buy a developer a beer!
