                              Psi4 1.0.54 Driver

  ==> Input File <==

--------------------------------------------------------------------------
set {
	reference rhf
	basis cc-pvtz
}

set_num_threads( 4 )
memory 2 gb

molecule MOL {
0 1

H	 -3.162190	 0.493205	 -0.000107
C	 -2.363908	 -0.234727	 0.000005
O	 -1.158738	 0.454634	 -0.000087
H	 -2.464314	 -0.863616	 -0.882153
H	 -2.464327	 -0.863359	 0.882345
C	 -1.276896	 1.822641	 0.234243
C	 0.100338	 2.454277	 0.208623
H	 -1.752250	 1.996877	 1.199810
H	 -1.913429	 2.278332	 -0.524581
C	 0.056207	 3.957659	 0.458115
H	 0.716770	 1.969275	 0.957429
H	 0.556841	 2.248537	 -0.753264
H	 -0.375471	 4.185131	 1.427134
H	 1.052176	 4.382523	 0.434513
H	 -0.536211	 4.466289	 -0.295148

	symmetry c1
}
set optking {
	frozen_dihedral = ("
		6 3 2 4
	")
}

ee,wfn = optimize('scf', return_wfn=True)
oeprop( wfn, 'DIPOLE', 'QUADRUPOLE', 'MULLIKEN_CHARGES')
f=open( 'psi4out.xyz', 'w' )
f.write( "15  " )
f.write( str(ee) + "\n" )
f.write( MOL.save_string_xyz() )
f.close()
--------------------------------------------------------------------------

    Molecular point group: c1
  Charge       = 0
  Multiplicity = 1
  Basis Set: CC-PVTZ
  Basis Set:
  @DF-RHF Final Energy:  -232.22376848288025
    Total Energy =                       -232.2237684828801889
    Molecular point group: c1
  Basis Set: CC-PVTZ
  Basis Set:
  Basis Set: CC-PVTZ
  Basis Set:
  @DF-RHF Final Energy:  -232.22454777065997
    Total Energy =                       -232.2245477706600809
  Basis Set: CC-PVTZ
  Basis Set:
  Basis Set: CC-PVTZ
  Basis Set:
  @DF-RHF Final Energy:  -232.22481167666183
    Total Energy =                       -232.2248116766618864
  Basis Set: CC-PVTZ
  Basis Set:
  Charge       = 0
  Multiplicity = 1
  Basis Set: CC-PVTZ
  Basis Set:

    Orbital Energies (a.u.)
    -----------------------

    Doubly Occupied:

       1A    -20.544107     2A    -11.264868     3A    -11.261283
       4A    -11.212232     5A    -11.210457     6A     -1.377146
       7A     -1.058043     8A     -0.956101     9A     -0.877406
      10A     -0.809209    11A     -0.673493    12A     -0.653918
      13A     -0.631362    14A     -0.608693    15A     -0.563388
      16A     -0.545808    17A     -0.502938    18A     -0.489013
      19A     -0.479246    20A     -0.461991    21A     -0.411507

  @DF-RHF Final Energy:  -232.22481390141976

   => Energetics <=

    Nuclear Repulsion Energy =            189.6905946467291244
    One-Electron Energy =                -690.6463970677771158
    Two-Electron Energy =                 268.7309885196282266
    DFT Exchange-Correlation Energy =       0.0000000000000000
    Empirical Dispersion Energy =           0.0000000000000000
    PCM Polarization Energy =               0.0000000000000000
    EFP Energy =                            0.0000000000000000
    Total Energy =                       -232.2248139014197932
    Molecular point group: c1
  Basis Set: CC-PVTZ
  Basis Set:

  -Total Gradient:
     Atom            X                  Y                   Z
    ------   -----------------  -----------------  -----------------
       1       -0.000029345651    -0.000014111933    -0.000004005936
       2        0.000905757338    -0.001086568822     0.000436547253
       3       -0.000155489680    -0.000113975351     0.001456537465
       4       -0.000612352155     0.001086131598    -0.000715831807
       5       -0.000017663921    -0.000055964471     0.000005674558
       6       -0.000107407679     0.000237609487    -0.001164460348
       7        0.000005462368    -0.000023315999    -0.000004977018
       8        0.000003155433    -0.000033206019    -0.000018771023
       9       -0.000000913663    -0.000032368120     0.000001786835
      10        0.000010185343     0.000020166774     0.000005676379
      11       -0.000000268341     0.000003075564    -0.000004197669
      12       -0.000002603908    -0.000000891690     0.000004899700
      13        0.000000158210     0.000002284991    -0.000001374002
      14       -0.000000391756     0.000011397920     0.000001990372
      15        0.000001718062    -0.000000263929     0.000000505240

  **** Optimization is complete! (in 4 steps) ****
    Final optimized geometry and variables:
    Molecular point group: c1

    Geometry (in Angstrom), charge = 0, multiplicity = 1:

    H           -2.268698138591    -1.284127051000    -0.169899168252
    C           -1.398639721267    -1.933396922806    -0.167328644567
    O           -0.209037511156    -1.207238008808    -0.168781960931
    H           -1.442042976861    -2.549970234687    -1.056828595812
    H           -1.453469295048    -2.572155664883     0.707967763871
    C           -0.326808945504     0.163161458812     0.058532816058
    C            1.052319635468     0.790051367986     0.023808267604
    H           -0.796064608981     0.347949990214     1.024755036382
    H           -0.962697643367     0.615930952610    -0.701564798959
    C            1.013260105248     2.295994943043     0.259386526592
    H            1.669361646806     0.310192605167     0.775486255914
    H            1.505776522363     0.573667302123    -0.937255906076
    H            0.584555298254     2.533891941098     1.227277065494
    H            2.010428105387     2.717866335202     0.229480238721
    H            0.420545659401     2.799362759185    -0.497264296286

  Mulliken Charges: (a.u.)
   Center  Symbol    Alpha    Beta     Spin     Total
       1     H     0.47369  0.47369  0.00000  0.05263
       2     C     3.02891  3.02891  0.00000 -0.05782
       3     O     4.17643  4.17643  0.00000 -0.35285
       4     H     0.45556  0.45556  0.00000  0.08888
       5     H     0.46020  0.46020  0.00000  0.07959
       6     C     2.95536  2.95536  0.00000  0.08927
       7     C     3.08209  3.08209  0.00000 -0.16418
       8     H     0.47602  0.47602  0.00000  0.04797
       9     H     0.47542  0.47542  0.00000  0.04915
      10     C     3.15592  3.15592  0.00000 -0.31184
      11     H     0.45112  0.45112  0.00000  0.09776
      12     H     0.45124  0.45124  0.00000  0.09753
      13     H     0.45585  0.45585  0.00000  0.08830
      14     H     0.44629  0.44629  0.00000  0.10742
      15     H     0.45590  0.45590  0.00000  0.08820

   Total alpha = 21.00000, Total beta = 21.00000, Total charge = -0.00000

*** Psi4 exiting successfully. Buy a developer a beer!
