  ==> Input File <==

--------------------------------------------------------------------------
set {
	reference rhf
	basis 6-31G*
}

set_num_threads( 1 )
memory 2 gb

molecule MOL {
0 1

H	 -2.698709	 -0.000305	 0.034435
C	 -1.693833	 0.000034	 0.434417
O	 -0.828952	 -0.000968	 -0.659236
H	 -1.574200	 0.882896	 1.055746
H	 -1.574147	 -0.881698	 1.057355
C	 -1.153977	 -0.797037	 -1.775093
C	 -1.164194	 -2.288690	 -1.446788
C	 -2.441204	 -0.344924	 -2.461823
H	 -0.332057	 -0.612994	 -2.456714
H	 -0.258879	 -2.563294	 -0.916179
H	 -1.211867	 -2.869821	 -2.362347
H	 -2.017484	 -2.569606	 -0.837569
H	 -2.420100	 0.725905	 -2.633102
H	 -2.543717	 -0.841313	 -3.421799
H	 -3.324120	 -0.581407	 -1.876693

	symmetry c1
}
set optking {
	frozen_dihedral = ("
		9 6 3 2
	")
}

ee = energy('scf')
oeprop('DIPOLE', 'QUADRUPOLE', 'MULLIKEN_CHARGES')
f=open( 'psi4out.xyz', 'w' )
f.write( "15  " )
f.write( str(ee) + "\n" )
f.write( MOL.save_string_xyz() )
f.close()
--------------------------------------------------------------------------

    Molecular point group: c1

    Geometry (in Angstrom), charge = 0, multiplicity = 1:

       Center              X                  Y                   Z               Mass
    ------------   -----------------  -----------------  -----------------  -----------------
           H         -1.229981516933     0.682363115724     1.195306517830     1.007825032070
           C         -0.225105516933     0.682702115724     1.595288517830    12.000000000000
           O          0.639775483067     0.681700115724     0.501635517830    15.994914619560
           H         -0.105472516933     1.565564115724     2.216617517830     1.007825032070
           H         -0.105419516933    -0.199029884276     2.218226517830     1.007825032070
           C          0.314750483067    -0.114368884276    -0.614221482170    12.000000000000
           C          0.304533483067    -1.606021884276    -0.285916482170    12.000000000000
           C         -0.972476516933     0.337744115724    -1.300951482170    12.000000000000
           H          1.136670483067     0.069674115724    -1.295842482170     1.007825032070
           H          1.209848483067    -1.880625884276     0.244692517830     1.007825032070
           H          0.256860483067    -2.187152884276    -1.201475482170     1.007825032070
           H         -0.548756516933    -1.886937884276     0.323302517830     1.007825032070
           H         -0.951372516933     1.408573115724    -1.472230482170     1.007825032070
           H         -1.074989516933    -0.158644884276    -2.260927482170     1.007825032070
           H         -1.855392516933     0.101261115724    -0.715821482170     1.007825032070

  Charge       = 0
  Multiplicity = 1
  Basis Set: 6-31G*
  Basis Set:

    Orbital Energies (a.u.)
    -----------------------

    Doubly Occupied:

       1A    -20.546138     2A    -11.275415     3A    -11.261132
       4A    -11.211119     5A    -11.210670     6A     -1.369726
       7A     -1.050400     8A     -0.940181     9A     -0.931271
      10A     -0.781475    11A     -0.675191    12A     -0.640394
      13A     -0.632891    14A     -0.575977    15A     -0.565645
      16A     -0.550482    17A     -0.534536    18A     -0.500764
      19A     -0.496829    20A     -0.439803    21A     -0.404961

  @DF-RHF Final Energy:  -232.13448504338402

   => Energetics <=

    Nuclear Repulsion Energy =            198.9460468638112616
    One-Electron Energy =                -708.9709754968293964
    Two-Electron Energy =                 277.8904435896344580
    DFT Exchange-Correlation Energy =       0.0000000000000000
    Empirical Dispersion Energy =           0.0000000000000000
    PCM Polarization Energy =               0.0000000000000000
    EFP Energy =                            0.0000000000000000
    Total Energy =                       -232.1344850433836768

  Mulliken Charges: (a.u.)
   Center  Symbol    Alpha    Beta     Spin     Total
       1     H     0.43193  0.43193  0.00000  0.13613
       2     C     3.07892  3.07892  0.00000 -0.15783
       3     O     4.31356  4.31356  0.00000 -0.62712
       4     H     0.41362  0.41362  0.00000  0.17276
       5     H     0.42800  0.42800  0.00000  0.14399
       6     C     2.90989  2.90989  0.00000  0.18022
       7     C     3.25255  3.25255  0.00000 -0.50510
       8     C     3.25434  3.25434  0.00000 -0.50869
       9     H     0.41454  0.41454  0.00000  0.17092
      10     H     0.41122  0.41122  0.00000  0.17755
      11     H     0.41958  0.41958  0.00000  0.16085
      12     H     0.42159  0.42159  0.00000  0.15682
      13     H     0.41093  0.41093  0.00000  0.17814
      14     H     0.41867  0.41867  0.00000  0.16267
      15     H     0.42065  0.42065  0.00000  0.15870

   Total alpha = 21.00000, Total beta = 21.00000, Total charge =  0.00000
