                              Psi4 1.0.54 Driver

  ==> Input File <==

--------------------------------------------------------------------------
set {
	reference rhf
	basis cc-pvtz
}

set_num_threads( 4 )
memory 2 gb

molecule MOL {
0 1

O	 -2.081319	 -0.951530	 -0.502732
N	 -1.613558	 0.006676	 0.014756
C	 -0.329345	 -0.171618	 0.743966
O	 -2.068523	 1.100482	 -0.024385
C	 0.835904	 0.041968	 -0.213982
H	 -0.346048	 -1.174374	 1.137184
H	 -0.333613	 0.555559	 1.538590
C	 0.791210	 1.432148	 -0.842925
H	 1.765372	 -0.090243	 0.327465
H	 0.798792	 -0.716164	 -0.987672
C	 1.943654	 1.669482	 -1.812475
H	 0.817255	 2.183799	 -0.059484
H	 -0.152465	 1.562207	 -1.364431
H	 2.900889	 1.579037	 -1.311259
H	 1.925227	 0.951352	 -2.624673
H	 1.887815	 2.660994	 -2.244851

	symmetry c1
}
set optking {
	frozen_dihedral = ("
		9 5 3 2
	")
}

ee,wfn = optimize('scf', return_wfn=True)
oeprop( wfn, 'DIPOLE', 'QUADRUPOLE', 'MULLIKEN_CHARGES')
f=open( 'psi4out.xyz', 'w' )
f.write( "16  " )
f.write( str(ee) + "\n" )
f.write( MOL.save_string_xyz() )
f.close()
--------------------------------------------------------------------------

    Molecular point group: c1
  Charge       = 0
  Multiplicity = 1
  Basis Set: CC-PVTZ
  Basis Set:
  @DF-RHF Final Energy:  -360.90612119593322
    Total Energy =                       -360.9061211959331672
    Molecular point group: c1
  Basis Set: CC-PVTZ
  Basis Set:
  Basis Set: CC-PVTZ
  Basis Set:
  @DF-RHF Final Energy:  -360.90677918043241
    Total Energy =                       -360.9067791804318972
  Basis Set: CC-PVTZ
  Basis Set:
  Basis Set: CC-PVTZ
  Basis Set:
  @DF-RHF Final Energy:  -360.90106211410023
    Total Energy =                       -360.9010621140998865
  Basis Set: CC-PVTZ
  Basis Set:
  Basis Set: CC-PVTZ
  Basis Set:
  @DF-RHF Final Energy:  -360.90642873684010
    Total Energy =                       -360.9064287368402120
  Basis Set: CC-PVTZ
  Basis Set:
  @DF-RHF Final Energy:  -360.90849106471910
    Total Energy =                       -360.9084910647191577
  @DF-RHF Final Energy:  -360.90877749646779
    Total Energy =                       -360.9087774964677919
  @DF-RHF Final Energy:  -360.90898676714380
    Total Energy =                       -360.9089867671438583
  @DF-RHF Final Energy:  -360.90900883945233
    Total Energy =                       -360.9090088394521558
  Basis Set: CC-PVTZ
  Basis Set:
  @DF-RHF Final Energy:  -360.90918619159186
    Total Energy =                       -360.9091861915912887
  Basis Set: CC-PVTZ
  Basis Set:
  Basis Set: CC-PVTZ
  Basis Set:
  @DF-RHF Final Energy:  -360.90919808919557
    Total Energy =                       -360.9091980891955700
  Basis Set: CC-PVTZ
  Basis Set:
  Basis Set: CC-PVTZ
  Basis Set:
  @DF-RHF Final Energy:  -360.90920057051937
    Total Energy =                       -360.9092005705192605
  Basis Set: CC-PVTZ
  Basis Set:
  Charge       = 0
  Multiplicity = 1
  Basis Set: CC-PVTZ
  Basis Set:

    Orbital Energies (a.u.)
    -----------------------

    Doubly Occupied:

       1A    -20.592610     2A    -20.588452     3A    -15.836589
       4A    -11.296908     5A    -11.248670     6A    -11.234093
       7A    -11.221402     8A     -1.636051     9A     -1.420243
      10A     -1.134881    11A     -1.054467    12A     -0.947851
      13A     -0.854650    14A     -0.815085    15A     -0.758455
      16A     -0.740382    17A     -0.729678    18A     -0.660947
      19A     -0.622087    20A     -0.602740    21A     -0.573131
      22A     -0.546013    23A     -0.507642    24A     -0.493381
      25A     -0.490737    26A     -0.486614    27A     -0.472919
      28A     -0.453977

  @DF-RHF Final Energy:  -360.90920095486115

   => Energetics <=

    Nuclear Repulsion Energy =            320.6764614901518371
    One-Electron Energy =               -1127.1300177466432615
    Two-Electron Energy =                 445.5443553016297074
    DFT Exchange-Correlation Energy =       0.0000000000000000
    Empirical Dispersion Energy =           0.0000000000000000
    PCM Polarization Energy =               0.0000000000000000
    EFP Energy =                            0.0000000000000000
    Total Energy =                       -360.9092009548617170
    Molecular point group: c1
  Basis Set: CC-PVTZ
  Basis Set:

  -Total Gradient:
     Atom            X                  Y                   Z
    ------   -----------------  -----------------  -----------------
       1       -0.000001119673    -0.000021571699    -0.000038360796
       2       -0.000033532140     0.000816444254     0.000268915810
       3        0.000086872863    -0.000859814171    -0.000229507740
       4       -0.000015356941     0.000006945148    -0.000005641299
       5        0.000063286077    -0.000998807137    -0.000257396569
       6       -0.000005995771    -0.000007629582    -0.000000593147
       7       -0.000013060134    -0.000001938861    -0.000007973093
       8        0.000005937934     0.000005729229     0.000002886218
       9       -0.000086797013     0.001050441327     0.000281189250
      10        0.000002995199    -0.000001010006    -0.000001653251
      11       -0.000009679210     0.000008524990    -0.000008404347
      12        0.000001980798     0.000000359085    -0.000000722472
      13        0.000009656936     0.000000148674    -0.000002833192
      14       -0.000008556489    -0.000000574472     0.000002306739
      15        0.000000955412    -0.000000803288     0.000003731855
      16        0.000002412150     0.000003556509    -0.000005943963

  **** Optimization is complete! (in 12 steps) ****
    Final optimized geometry and variables:
    Molecular point group: c1

    Geometry (in Angstrom), charge = 0, multiplicity = 1:

    O           -1.395827904027    -1.296311891916    -0.433969781983
    N           -1.177637666543    -0.564058369403     0.473234325699
    C            0.187326348549    -0.616961330692     1.071388974291
    O           -1.953457481359     0.199578752811     0.939211340788
    C            1.255178499635    -0.262937140956     0.046503848890
    H            0.302743224476    -1.630516282098     1.423863830339
    H            0.167530582416     0.067946914329     1.901397479194
    C            1.102098650934     1.131423129832    -0.557530717239
    H            2.206310961946    -0.326864962395     0.565441903979
    H            1.262144718825    -1.012613744744    -0.733716761732
    C            2.226482090298     1.463723960343    -1.532148105270
    H            1.079772377985     1.869518025265     0.238718449087
    H            0.150320857941     1.204997109939    -1.072566322228
    H            3.193501953288     1.434655981755    -1.041348879449
    H            2.250660901331     0.758205602312    -2.355286915488
    H            2.096615484092     2.454675258380    -1.949447035752

  Mulliken Charges: (a.u.)
   Center  Symbol    Alpha    Beta     Spin     Total
       1     O     4.17453  4.17453  0.00000 -0.34907
       2     N     3.27978  3.27978  0.00000  0.44045
       3     C     3.05187  3.05187  0.00000 -0.10374
       4     O     4.16879  4.16879  0.00000 -0.33758
       5     C     3.10497  3.10497  0.00000 -0.20994
       6     H     0.42685  0.42685  0.00000  0.14629
       7     H     0.43054  0.43054  0.00000  0.13891
       8     C     3.08739  3.08739  0.00000 -0.17477
       9     H     0.44457  0.44457  0.00000  0.11087
      10     H     0.43731  0.43731  0.00000  0.12537
      11     C     3.14976  3.14976  0.00000 -0.29953
      12     H     0.44991  0.44991  0.00000  0.10017
      13     H     0.44260  0.44260  0.00000  0.11480
      14     H     0.45519  0.45519  0.00000  0.08963
      15     H     0.45147  0.45147  0.00000  0.09706
      16     H     0.44445  0.44445  0.00000  0.11110

   Total alpha = 28.00000, Total beta = 28.00000, Total charge = -0.00000

*** Psi4 exiting successfully. Buy a developer a beer!
