  ==> Input File <==

--------------------------------------------------------------------------
set {
	reference rhf
	basis 6-31G*
}

set_num_threads( 1 )
memory 2 gb

molecule MOL {
0 1

H	 1.733232	 -0.354886	 -1.544096
C	 1.431010	 0.624055	 -1.152767
C	 0.692068	 0.589600	 0.160137
O	 1.690318	 1.614081	 -1.756702
C	 -0.558097	 -0.297372	 0.091132
H	 0.440164	 1.607152	 0.435113
H	 1.372695	 0.195462	 0.913950
C	 -1.850991	 0.512573	 -0.019058
H	 -0.476753	 -0.965681	 -0.762987
H	 -0.604799	 -0.930658	 0.975228
C	 -3.096943	 -0.368295	 -0.099594
H	 -1.800724	 1.150330	 -0.898172
H	 -1.931651	 1.177355	 0.838044
H	 -3.060452	 -1.020287	 -0.967456
H	 -3.996858	 0.233488	 -0.175704
H	 -3.191959	 -0.995686	 0.782074

	symmetry c1
}
set optking {
	frozen_dihedral = ("
		9 5 8 12,
		4 2 3 6
	")
}

ee = energy('scf')
oeprop('DIPOLE', 'QUADRUPOLE', 'MULLIKEN_CHARGES')
f=open( 'psi4out.xyz', 'w' )
f.write( "16  " )
f.write( str(ee) + "\n" )
f.write( MOL.save_string_xyz() )
f.close()
--------------------------------------------------------------------------

    Molecular point group: c1

    Geometry (in Angstrom), charge = 0, multiplicity = 1:

       Center              X                  Y                   Z               Mass
    ------------   -----------------  -----------------  -----------------  -----------------
           H          2.025613146244    -0.803819934553    -1.070693332744     1.007825032070
           C          1.723391146244     0.175121065447    -0.679364332744    12.000000000000
           C          0.984449146244     0.140666065447     0.633539667256    12.000000000000
           O          1.982699146244     1.165147065447    -1.283299332744    15.994914619560
           C         -0.265715853756    -0.746305934553     0.564534667256    12.000000000000
           H          0.732545146244     1.158218065447     0.908515667256     1.007825032070
           H          1.665076146244    -0.253471934553     1.387352667256     1.007825032070
           C         -1.558609853756     0.063639065447     0.454344667256    12.000000000000
           H         -0.184371853756    -1.414614934553    -0.289584332744     1.007825032070
           H         -0.312417853756    -1.379591934553     1.448630667256     1.007825032070
           C         -2.804561853756    -0.817228934553     0.373808667256    12.000000000000
           H         -1.508342853756     0.701396065447    -0.424769332744     1.007825032070
           H         -1.639269853756     0.728421065447     1.311446667256     1.007825032070
           H         -2.768070853756    -1.469220934553    -0.494053332744     1.007825032070
           H         -3.704476853756    -0.215445934553     0.297698667256     1.007825032070
           H         -2.899577853756    -1.444619934553     1.255476667256     1.007825032070

  Charge       = 0
  Multiplicity = 1
  Basis Set: 6-31G*
  Basis Set:

    Orbital Energies (a.u.)
    -----------------------

    Doubly Occupied:

       1A    -20.562642     2A    -11.326859     3A    -11.235348
       4A    -11.234081     5A    -11.226692     6A    -11.216496
       7A     -1.402576     8A     -1.095950     9A     -1.017115
      10A     -0.904476    11A     -0.813381    12A     -0.794314
      13A     -0.671365    14A     -0.653456    15A     -0.617340
      16A     -0.605479    17A     -0.591533    18A     -0.535413
      19A     -0.528649    20A     -0.523928    21A     -0.485387
      22A     -0.481721    23A     -0.465809    24A     -0.410827

  @DF-RHF Final Energy:  -270.01587816936097

   => Energetics <=

    Nuclear Repulsion Energy =            231.6201149235935191
    One-Electron Energy =                -824.4698732958884193
    Two-Electron Energy =                 322.8338802029342673
    DFT Exchange-Correlation Energy =       0.0000000000000000
    Empirical Dispersion Energy =           0.0000000000000000
    PCM Polarization Energy =               0.0000000000000000
    EFP Energy =                            0.0000000000000000
    Total Energy =                       -270.0158781693606329

  Mulliken Charges: (a.u.)
   Center  Symbol    Alpha    Beta     Spin     Total
       1     H     0.43124  0.43124  0.00000  0.13752
       2     C     2.83381  2.83381  0.00000  0.33238
       3     C     3.20924  3.20924  0.00000 -0.41848
       4     O     4.23655  4.23655  0.00000 -0.47311
       5     C     3.16643  3.16643  0.00000 -0.33287
       6     H     0.39746  0.39746  0.00000  0.20507
       7     H     0.40647  0.40647  0.00000  0.18707
       8     C     3.15342  3.15342  0.00000 -0.30685
       9     H     0.41790  0.41790  0.00000  0.16419
      10     H     0.41449  0.41449  0.00000  0.17103
      11     C     3.24083  3.24083  0.00000 -0.48167
      12     H     0.41575  0.41575  0.00000  0.16851
      13     H     0.41894  0.41894  0.00000  0.16212
      14     H     0.42037  0.42037  0.00000  0.15925
      15     H     0.41613  0.41613  0.00000  0.16774
      16     H     0.42095  0.42095  0.00000  0.15810

   Total alpha = 24.00000, Total beta = 24.00000, Total charge =  0.00000
