  ==> Input File <==

--------------------------------------------------------------------------
set {
	reference rhf
	basis 6-31G*
}

set_num_threads( 1 )
memory 2 gb

molecule MOL {
0 1

H	 2.614305	 3.946116	 -3.716770
C	 2.344699	 3.219642	 -2.970894
C	 1.296946	 3.479006	 -2.100208
C	 3.045805	 2.027288	 -2.883276
H	 0.754029	 4.404124	 -2.169236
C	 0.950874	 2.544420	 -1.141425
H	 3.857707	 1.827984	 -3.559070
C	 2.701149	 1.090287	 -1.924311
H	 0.142973	 2.728144	 -0.459359
C	 1.651546	 1.347233	 -1.050197
H	 3.240967	 0.166262	 -1.852920
C	 1.239129	 0.373821	 0.000060
O	 1.970282	 -0.730723	 0.000018
O	 0.345774	 0.559564	 0.765745
C	 3.377318	 -0.566646	 -0.000065
H	 3.695437	 -0.028981	 -0.881264
H	 3.789299	 -1.563704	 0.000236
H	 3.695516	 -0.028316	 0.880770

	symmetry c1
}
set optking {
	frozen_dihedral = ("
		12 13 15 16,
		13 12 10 6
	")
}

ee = energy('scf')
oeprop('DIPOLE', 'QUADRUPOLE', 'MULLIKEN_CHARGES')
f=open( 'psi4out.xyz', 'w' )
f.write( "18  " )
f.write( str(ee) + "\n" )
f.write( MOL.save_string_xyz() )
f.close()
--------------------------------------------------------------------------

    Molecular point group: c1

    Geometry (in Angstrom), charge = 0, multiplicity = 1:

       Center              X                  Y                   Z               Mass
    ------------   -----------------  -----------------  -----------------  -----------------
           H          0.715805625872     2.689363897839    -2.655083006020     1.007825032070
           C          0.446199625872     1.962889897839    -1.909207006020    12.000000000000
           C         -0.601553374128     2.222253897839    -1.038521006020    12.000000000000
           C          1.147305625872     0.770535897839    -1.821589006020    12.000000000000
           H         -1.144470374128     3.147371897839    -1.107549006020     1.007825032070
           C         -0.947625374128     1.287667897839    -0.079738006020    12.000000000000
           H          1.959207625872     0.571231897839    -2.497383006020     1.007825032070
           C          0.802649625872    -0.166465102161    -0.862624006020    12.000000000000
           H         -1.755526374128     1.471391897839     0.602327993980     1.007825032070
           C         -0.246953374128     0.090480897839     0.011489993980    12.000000000000
           H          1.342467625872    -1.090490102161    -0.791233006020     1.007825032070
           C         -0.659370374128    -0.882931102161     1.061746993980    12.000000000000
           O          0.071782625872    -1.987475102161     1.061704993980    15.994914619560
           O         -1.552725374128    -0.697188102161     1.827431993980    15.994914619560
           C          1.478818625872    -1.823398102161     1.061621993980    12.000000000000
           H          1.796937625872    -1.285733102161     0.180422993980     1.007825032070
           H          1.890799625872    -2.820456102161     1.061922993980     1.007825032070
           H          1.797016625872    -1.285068102161     1.942456993980     1.007825032070

  Charge       = 0
  Multiplicity = 1
  Basis Set: 6-31G*
  Basis Set:

    Orbital Energies (a.u.)
    -----------------------

    Doubly Occupied:

       1A    -20.599200     2A    -20.550522     3A    -11.380037
       4A    -11.282284     5A    -11.253548     6A    -11.252684
       7A    -11.251522     8A    -11.249158     9A    -11.247483
      10A    -11.244777    11A     -1.468534    12A     -1.370431
      13A     -1.175432    14A     -1.051577    15A     -1.039708
      16A     -0.993424    17A     -0.876690    18A     -0.860512
      19A     -0.792647    20A     -0.740103    21A     -0.715016
      22A     -0.676665    23A     -0.669852    24A     -0.651769
      25A     -0.629680    26A     -0.615871    27A     -0.568609
      28A     -0.562433    29A     -0.553323    30A     -0.524242
      31A     -0.513362    32A     -0.484867    33A     -0.450653
      34A     -0.438154    35A     -0.351711    36A     -0.349252

  @DF-RHF Final Energy:  -457.26737347730443

   => Energetics <=

    Nuclear Repulsion Energy =            504.5375748790477246
    One-Electron Energy =               -1622.7384740555830831
    Two-Electron Energy =                 660.9335256992308132
    DFT Exchange-Correlation Energy =       0.0000000000000000
    Empirical Dispersion Energy =           0.0000000000000000
    PCM Polarization Energy =               0.0000000000000000
    EFP Energy =                            0.0000000000000000
    Total Energy =                       -457.2673734773045453

  Mulliken Charges: (a.u.)
   Center  Symbol    Alpha    Beta     Spin     Total
       1     H     0.39379  0.39379  0.00000  0.21243
       2     C     3.09016  3.09016  0.00000 -0.18031
       3     C     3.10577  3.10577  0.00000 -0.21154
       4     C     3.10717  3.10717  0.00000 -0.21434
       5     H     0.39323  0.39323  0.00000  0.21354
       6     C     3.08415  3.08415  0.00000 -0.16829
       7     H     0.39528  0.39528  0.00000  0.20945
       8     C     3.11312  3.11312  0.00000 -0.22623
       9     H     0.37335  0.37335  0.00000  0.25331
      10     C     3.07759  3.07759  0.00000 -0.15517
      11     H     0.37121  0.37121  0.00000  0.25758
      12     C     2.58196  2.58196  0.00000  0.83607
      13     O     4.31129  4.31129  0.00000 -0.62259
      14     O     4.26836  4.26836  0.00000 -0.53671
      15     C     3.09862  3.09862  0.00000 -0.19723
      16     H     0.42429  0.42429  0.00000  0.15142
      17     H     0.40217  0.40217  0.00000  0.19565
      18     H     0.40852  0.40852  0.00000  0.18297

   Total alpha = 36.00000, Total beta = 36.00000, Total charge =  0.00000
