                              Psi4 1.0.54 Driver

  ==> Input File <==

--------------------------------------------------------------------------
set {
	reference rhf
	basis cc-pvtz
}

set_num_threads( 4 )
memory 2 gb

molecule MOL {
0 1

H	 3.459101	 0.139266	 -0.762951
C	 2.749156	 -0.051729	 0.031265
C	 1.322304	 0.099773	 -0.484271
H	 2.929445	 -1.053887	 0.403481
H	 2.954281	 0.646699	 0.834672
C	 0.308557	 -0.162619	 0.622645
H	 1.143368	 -0.594400	 -1.295960
H	 1.169532	 1.100095	 -0.870217
N	 -1.069352	 -0.004081	 0.085342
H	 0.371632	 -1.172932	 0.991288
H	 0.400391	 0.548875	 1.426218
O	 -1.755335	 0.822132	 0.586714
O	 -1.398520	 -0.734178	 -0.788471

	symmetry c1
}
set optking {
	frozen_dihedral = ("
		12 9 6 3
	")
}

ee,wfn = optimize('scf', return_wfn=True)
oeprop( wfn, 'DIPOLE', 'QUADRUPOLE', 'MULLIKEN_CHARGES')
f=open( 'psi4out.xyz', 'w' )
f.write( "13  " )
f.write( str(ee) + "\n" )
f.write( MOL.save_string_xyz() )
f.close()
--------------------------------------------------------------------------

    Molecular point group: c1
  Charge       = 0
  Multiplicity = 1
  Basis Set: CC-PVTZ
  Basis Set:
  @DF-RHF Final Energy:  -321.86104454398617
    Total Energy =                       -321.8610445439861678
    Molecular point group: c1
  Basis Set: CC-PVTZ
  Basis Set:
  Basis Set: CC-PVTZ
  Basis Set:
  @DF-RHF Final Energy:  -321.85424971925374
    Total Energy =                       -321.8542497192537439
  Basis Set: CC-PVTZ
  Basis Set:
  Basis Set: CC-PVTZ
  Basis Set:
  @DF-RHF Final Energy:  -321.86073369405460
    Total Energy =                       -321.8607336940546020
  Basis Set: CC-PVTZ
  Basis Set:
  Basis Set: CC-PVTZ
  Basis Set:
  @DF-RHF Final Energy:  -321.86124920149734
    Total Energy =                       -321.8612492014974578
  Basis Set: CC-PVTZ
  Basis Set:
  Basis Set: CC-PVTZ
  Basis Set:
  @DF-RHF Final Energy:  -321.86123588005944
    Total Energy =                       -321.8612358800595530
  Basis Set: CC-PVTZ
  Basis Set:
  Basis Set: CC-PVTZ
  Basis Set:
  @DF-RHF Final Energy:  -321.86125883294653
    Total Energy =                       -321.8612588329465325
  Basis Set: CC-PVTZ
  Basis Set:
  Basis Set: CC-PVTZ
  Basis Set:
  @DF-RHF Final Energy:  -321.86126035374957
    Total Energy =                       -321.8612603537495147
  Basis Set: CC-PVTZ
  Basis Set:
  Charge       = 0
  Multiplicity = 1
  Basis Set: CC-PVTZ
  Basis Set:

    Orbital Energies (a.u.)
    -----------------------

    Doubly Occupied:

       1A    -20.592536     2A    -20.588963     3A    -15.837405
       4A    -11.297741     5A    -11.251970     6A    -11.236458
       7A     -1.636448     8A     -1.420644     9A     -1.133318
      10A     -1.027585    11A     -0.884343    12A     -0.832370
      13A     -0.762687    14A     -0.741268    15A     -0.728862
      16A     -0.669715    17A     -0.604691    18A     -0.585607
      19A     -0.551380    20A     -0.521707    21A     -0.511995
      22A     -0.487641    23A     -0.474678    24A     -0.453790

  @DF-RHF Final Energy:  -321.86126041747497

   => Energetics <=

    Nuclear Repulsion Energy =            247.8279445569650647
    One-Electron Energy =                -929.7108046840353381
    Two-Electron Energy =                 360.0215997095954208
    DFT Exchange-Correlation Energy =       0.0000000000000000
    Empirical Dispersion Energy =           0.0000000000000000
    PCM Polarization Energy =               0.0000000000000000
    EFP Energy =                            0.0000000000000000
    Total Energy =                       -321.8612604174747958
    Molecular point group: c1
  Basis Set: CC-PVTZ
  Basis Set:

  -Total Gradient:
     Atom            X                  Y                   Z
    ------   -----------------  -----------------  -----------------
       1        0.000006163775    -0.000002218441     0.000002674895
       2        0.000004813756     0.000000534196    -0.000010043141
       3        0.000007521376    -0.000348593264    -0.000087131305
       4       -0.000001972711     0.000002032852     0.000000731625
       5        0.000003851502     0.000003333716     0.000000215321
       6       -0.000062178635     0.000348235394     0.000232357981
       7        0.000003742244     0.000004982638    -0.000009863361
       8       -0.000001195261    -0.000005506142     0.000006741559
       9        0.000202587570     0.000297124000    -0.000441046721
      10       -0.000004221238     0.000008196366    -0.000005030080
      11       -0.000010008351     0.000000437676    -0.000000604647
      12       -0.000146644204    -0.000325618623     0.000302806166
      13       -0.000002459827     0.000017059631     0.000008191707

  **** Optimization is complete! (in 8 steps) ****
    Final optimized geometry and variables:
    Molecular point group: c1

    Geometry (in Angstrom), charge = 0, multiplicity = 1:

    H            3.466610508845     0.149508884075    -0.803625063666
    C            2.759695017633    -0.025102959624    -0.002993530768
    C            1.330446842407     0.097718232431    -0.520708874766
    H            2.949644495644    -1.015185837186     0.396367614140
    H            2.961593178549     0.696370447525     0.780675231337
    C            0.325595978578    -0.142968564070     0.595877816336
    H            1.154650165217    -0.614741055356    -1.314122519009
    H            1.170672466508     1.087749548458    -0.933226909991
    N           -1.071398656420    -0.006892631154     0.096719861851
    H            0.394804139498    -1.151438642234     0.976396017816
    H            0.422146942392     0.565805587655     1.399807308531
    O           -1.754005413135     0.821840991758     0.596768922512
    O           -1.409754622137    -0.745260732649    -0.767240747393

  Mulliken Charges: (a.u.)
   Center  Symbol    Alpha    Beta     Spin     Total
       1     H     0.44157  0.44157  0.00000  0.11685
       2     C     3.15132  3.15132  0.00000 -0.30263
       3     C     3.09620  3.09620  0.00000 -0.19239
       4     H     0.45205  0.45205  0.00000  0.09590
       5     H     0.45197  0.45197  0.00000  0.09607
       6     C     3.04009  3.04009  0.00000 -0.08018
       7     H     0.43362  0.43362  0.00000  0.13275
       8     H     0.44284  0.44284  0.00000  0.11431
       9     N     3.27685  3.27685  0.00000  0.44630
      10     H     0.43710  0.43710  0.00000  0.12580
      11     H     0.43266  0.43266  0.00000  0.13468
      12     O     4.16906  4.16906  0.00000 -0.33812
      13     O     4.17468  4.17468  0.00000 -0.34936

   Total alpha = 24.00000, Total beta = 24.00000, Total charge = -0.00000

*** Psi4 exiting successfully. Buy a developer a beer!
