                              Psi4 1.0.54 Driver

  ==> Input File <==

--------------------------------------------------------------------------
set {
	reference rhf
	basis cc-pvtz
}

set_num_threads( 4 )
memory 2 gb

molecule MOL {
0 1

H	 2.828711	 -0.346904	 0.001083
C	 1.876752	 0.015931	 -0.363450
C	 0.776285	 -0.474665	 0.563092
H	 1.728113	 -0.357244	 -1.367440
H	 1.906171	 1.096574	 -0.386153
N	 -0.540022	 0.017605	 0.071630
H	 0.707111	 -1.548969	 0.573035
H	 0.886169	 -0.084184	 1.560432
O	 -1.488871	 -0.656082	 0.295295
O	 -0.545461	 1.035767	 -0.534763

	symmetry c1
}
set optking {
	frozen_dihedral = ("
		9 6 3 2
	")
}

ee,wfn = optimize('scf', return_wfn=True)
oeprop( wfn, 'DIPOLE', 'QUADRUPOLE', 'MULLIKEN_CHARGES')
f=open( 'psi4out.xyz', 'w' )
f.write( "10  " )
f.write( str(ee) + "\n" )
f.write( MOL.save_string_xyz() )
f.close()
--------------------------------------------------------------------------

    Molecular point group: c1
  Charge       = 0
  Multiplicity = 1
  Basis Set: CC-PVTZ
  Basis Set:
  @DF-RHF Final Energy:  -282.81161798201384
    Total Energy =                       -282.8116179820138996
    Molecular point group: c1
  Basis Set: CC-PVTZ
  Basis Set:
  Basis Set: CC-PVTZ
  Basis Set:
  @DF-RHF Final Energy:  -282.52529859644955
    Total Energy =                       -282.5252985964494883
  Basis Set: CC-PVTZ
  Basis Set:
  Basis Set: CC-PVTZ
  Basis Set:
  @DF-RHF Final Energy:  -282.67539811386428
    Total Energy =                       -282.6753981138642757
  Basis Set: CC-PVTZ
  Basis Set:
  Basis Set: CC-PVTZ
  Basis Set:
  @DF-RHF Final Energy:  -282.78896808237420
    Total Energy =                       -282.7889680823741969
  Basis Set: CC-PVTZ
  Basis Set:
  @DF-RHF Final Energy:  -282.79948417146340
    Total Energy =                       -282.7994841714634617
  @DF-RHF Final Energy:  -282.81211836625630
    Total Energy =                       -282.8121183662562999
  @DF-RHF Final Energy:  -282.80787795216793
    Total Energy =                       -282.8078779521680417
  @DF-RHF Final Energy:  -282.81279077726413
    Total Energy =                       -282.8127907772641265
  Basis Set: CC-PVTZ
  Basis Set:
  @DF-RHF Final Energy:  -282.81278832593551
    Total Energy =                       -282.8127883259356850
  Basis Set: CC-PVTZ
  Basis Set:
  Basis Set: CC-PVTZ
  Basis Set:
  @DF-RHF Final Energy:  -282.81284156654874
    Total Energy =                       -282.8128415665487978
  Basis Set: CC-PVTZ
  Basis Set:
  Basis Set: CC-PVTZ
  Basis Set:
  @DF-RHF Final Energy:  -282.81297745070015
    Total Energy =                       -282.8129774507000889
  Basis Set: CC-PVTZ
  Basis Set:
  Charge       = 0
  Multiplicity = 1
  Basis Set: CC-PVTZ
  Basis Set:

    Orbital Energies (a.u.)
    -----------------------

    Doubly Occupied:

       1A    -20.592694     2A    -20.591527     3A    -15.839379
       4A    -11.302985     5A    -11.244912     6A     -1.638500
       7A     -1.422700     8A     -1.124362     9A     -0.966996
      10A     -0.836046    11A     -0.764440    12A     -0.748434
      13A     -0.731946    14A     -0.644909    15A     -0.592976
      16A     -0.564029    17A     -0.539495    18A     -0.489882
      19A     -0.479683    20A     -0.455859

  @DF-RHF Final Energy:  -282.81297770994263

   => Energetics <=

    Nuclear Repulsion Energy =            186.5706000244784377
    One-Electron Energy =                -755.6236451857963630
    Two-Electron Energy =                 286.2400674513752392
    DFT Exchange-Correlation Energy =       0.0000000000000000
    Empirical Dispersion Energy =           0.0000000000000000
    PCM Polarization Energy =               0.0000000000000000
    EFP Energy =                            0.0000000000000000
    Total Energy =                       -282.8129777099426292
    Molecular point group: c1
  Basis Set: CC-PVTZ
  Basis Set:

  -Total Gradient:
     Atom            X                  Y                   Z
    ------   -----------------  -----------------  -----------------
       1       -0.000014576125     0.000014364838     0.000013104333
       2        0.000055835812     0.000062873207     0.000106802039
       3       -0.000028891652    -0.000127381518    -0.000121401986
       4        0.000019120823    -0.000002016889     0.000013141507
       5        0.000001591641    -0.000018347874    -0.000014199291
       6       -0.000096254279    -0.000172455871    -0.000160361854
       7        0.000013217123     0.000012522634     0.000001034246
       8       -0.000022587567     0.000006261137    -0.000010552540
       9        0.000142755292     0.000150409403     0.000140075717
      10       -0.000070211069     0.000073770930     0.000032357828

  **** Optimization is complete! (in 12 steps) ****
    Final optimized geometry and variables:
    Molecular point group: c1

    Geometry (in Angstrom), charge = 0, multiplicity = 1:

    H            2.259901084453    -0.006681914110    -1.779445696266
    C            1.375231103651     0.423657770768    -1.326845012704
    C            0.832950262913    -0.560266286573    -0.313593542671
    H            0.652666012401     0.617070073688    -2.108463827458
    H            1.641219287711     1.360464732467    -0.863005075596
    N           -0.411116742142    -0.075807523513     0.356849907734
    H            0.569441584846    -1.511297927732    -0.742973317232
    H            1.525848418366    -0.726370604798     0.499589173295
    O           -1.180400030343    -0.904492545866     0.710115504465
    O           -0.535294270652     1.090160559956     0.522879279069

  Mulliken Charges: (a.u.)
   Center  Symbol    Alpha    Beta     Spin     Total
       1     H     0.44931  0.44931  0.00000  0.10139
       2     C     3.14003  3.14003  0.00000 -0.28006
       3     C     3.04156  3.04156  0.00000 -0.08313
       4     H     0.44495  0.44495  0.00000  0.11009
       5     H     0.43725  0.43725  0.00000  0.12550
       6     N     3.27701  3.27701  0.00000  0.44598
       7     H     0.43127  0.43127  0.00000  0.13745
       8     H     0.43634  0.43634  0.00000  0.12733
       9     O     4.17092  4.17092  0.00000 -0.34184
      10     O     4.17136  4.17136  0.00000 -0.34272

   Total alpha = 20.00000, Total beta = 20.00000, Total charge = -0.00000

*** Psi4 exiting successfully. Buy a developer a beer!
