  ==> Input File <==

--------------------------------------------------------------------------
set {
	reference rhf
	basis 6-31G*
}

set_num_threads( 4 )
memory 2 gb

molecule MOL {
0 1

H	 3.302550	 -0.414129	 -0.010500
C	 2.242072	 -0.235798	 -0.008243
C	 1.389618	 -1.151638	 0.596255
C	 1.734569	 0.904874	 -0.607649
H	 1.791177	 -2.034672	 1.059428
C	 0.027196	 -0.925704	 0.600960
H	 2.397050	 1.611023	 -1.074251
C	 0.367571	 1.130388	 -0.602258
H	 -0.648457	 -1.621014	 1.062683
C	 -0.488460	 0.219100	 0.000000
H	 -0.032958	 2.015231	 -1.066560
C	 -1.949954	 0.470334	 0.000000
O	 -2.781584	 -0.381627	 0.000000
H	 -2.238022	 1.526388	 0.000000

	symmetry c1
}
set optking {
	frozen_dihedral = ("
		8 10 12 14
	")
}

ee = optimize('scf')
oeprop('DIPOLE', 'QUADRUPOLE', 'MULLIKEN_CHARGES')
f=open( 'psi4out.xyz', 'w' )
f.write( "14  " )
f.write( str(ee) + "\n" )
f.write( MOL.save_string_xyz() )
f.close()
--------------------------------------------------------------------------

    Molecular point group: c1
  Charge       = 0
  Multiplicity = 1
  Basis Set: 6-31G*
  Basis Set:
  @DF-RHF Final Energy:  -343.42962258482584
    Total Energy =                       -343.4296225848258928
    Molecular point group: c1
  Basis Set: 6-31G*
  Basis Set:
  Basis Set: 6-31G*
  Basis Set:
  @DF-RHF Final Energy:  -343.42669699390325
    Total Energy =                       -343.4266969939033629
  Basis Set: 6-31G*
  Basis Set:
  Basis Set: 6-31G*
  Basis Set:
  @DF-RHF Final Energy:  -343.43005171644768
    Total Energy =                       -343.4300517164476787
  Basis Set: 6-31G*
  Basis Set:
  Basis Set: 6-31G*
  Basis Set:
  @DF-RHF Final Energy:  -343.43012752487596
    Total Energy =                       -343.4301275248760135
  Basis Set: 6-31G*
  Basis Set:
  Charge       = 0
  Multiplicity = 1
  Basis Set: 6-31G*
  Basis Set:

    Orbital Energies (a.u.)
    -----------------------

    Doubly Occupied:

       1A    -20.563844     2A    -11.331937     3A    -11.253289
       4A    -11.249894     5A    -11.247537     6A    -11.246296
       7A    -11.244796     8A    -11.242958     9A     -1.404164
      10A     -1.170643    11A     -1.046633    12A     -1.030973
      13A     -0.888818    14A     -0.843212    15A     -0.791420
      16A     -0.720759    17A     -0.677256    18A     -0.651648
      19A     -0.621083    20A     -0.617536    21A     -0.602254
      22A     -0.549869    23A     -0.526203    24A     -0.506263
      25A     -0.501938    26A     -0.421896    27A     -0.349213
      28A     -0.346459

  @DF-RHF Final Energy:  -343.43012813997967

   => Energetics <=

    Nuclear Repulsion Energy =            323.1994955627215518
    One-Electron Energy =               -1105.9616637165656812
    Two-Electron Energy =                 439.3320400138646846
    DFT Exchange-Correlation Energy =       0.0000000000000000
    Empirical Dispersion Energy =           0.0000000000000000
    PCM Polarization Energy =               0.0000000000000000
    EFP Energy =                            0.0000000000000000
    Total Energy =                       -343.4301281399795016
    Molecular point group: c1
  Basis Set: 6-31G*
  Basis Set:

  -Total Gradient:
     Atom            X                  Y                   Z
    ------   -----------------  -----------------  -----------------
       1       -0.000001754161    -0.000013117427    -0.000029085085
       2        0.000008744284     0.000043486152     0.000079742932
       3        0.000009390191     0.000034521107     0.000060355764
       4       -0.000006856775    -0.000039672629    -0.000075006151
       5        0.000000781832    -0.000001417857    -0.000006886626
       6       -0.000005801657    -0.000070006526    -0.000145347231
       7        0.000007110975     0.000004581638     0.000011607559
       8       -0.000235604636    -0.002363709704    -0.003834079809
       9        0.000002422569     0.000035975522     0.000040044034
      10        0.000283045650     0.003522054415     0.007420675222
      11       -0.000001433004    -0.000004591936     0.000004755110
      12        0.000089847382    -0.001325690322    -0.009071167986
      13       -0.000006726941    -0.000004258266    -0.000000251357
      14       -0.000143165703     0.000181845832     0.005544643626

  **** Optimization is complete! (in 5 steps) ****
    Final optimized geometry and variables:
    Molecular point group: c1

    Geometry (in Angstrom), charge = 0, multiplicity = 1:

    H            3.298886621903    -0.424445462971    -0.026600397221
    C            2.239608471928    -0.239418157002    -0.017279077253
    C            1.384617359259    -1.150429308977     0.589599262681
    C            1.734491182178     0.903560202601    -0.614427971787
    H            1.782312651396    -2.037972181564     1.047476320919
    C            0.022160870295    -0.920624195350     0.594284186041
    H            2.397118578925     1.601921354606    -1.092504408205
    C            0.370148770525     1.143742549258    -0.590894989607
    H           -0.654983390430    -1.624805077136     1.040352755143
    C           -0.487477817602     0.239862578663     0.020528226130
    H           -0.026278556190     2.034696455141    -1.047336832931
    C           -1.954937244066     0.466885733333    -0.025260806211
    O           -2.767745589587    -0.399871388507     0.041916306764
    H           -2.265996308359     1.515230073553    -0.069264006602

  Mulliken Charges: (a.u.)
   Center  Symbol    Alpha    Beta     Spin     Total
       1     H     0.39445  0.39445  0.00000  0.21110
       2     C     3.09221  3.09221  0.00000 -0.18442
       3     C     3.10384  3.10384  0.00000 -0.20768
       4     C     3.10336  3.10336  0.00000 -0.20672
       5     H     0.39416  0.39416  0.00000  0.21167
       6     C     3.08869  3.08869  0.00000 -0.17738
       7     H     0.39488  0.39488  0.00000  0.21025
       8     C     3.10225  3.10225  0.00000 -0.20451
       9     H     0.37976  0.37976  0.00000  0.24047
      10     C     3.04945  3.04945  0.00000 -0.09890
      11     H     0.39324  0.39324  0.00000  0.21352
      12     C     2.83711  2.83711  0.00000  0.32579
      13     O     4.24279  4.24279  0.00000 -0.48558
      14     H     0.42381  0.42381  0.00000  0.15237

   Total alpha = 28.00000, Total beta = 28.00000, Total charge =  0.00000
