  ==> Input File <==

--------------------------------------------------------------------------
set {
	reference rhf
	basis 6-31G*
}

set_num_threads( 4 )
memory 2 gb

molecule MOL {
0 1

H	 -3.420663	 1.227371	 -1.044276
O	 -3.452007	 0.283848	 -0.965577
C	 -3.181085	 -0.079926	 0.364119
C	 -1.765924	 0.277073	 0.805136
H	 -3.327791	 -1.152017	 0.410903
H	 -3.905698	 0.375695	 1.036898
C	 -0.677594	 -0.417312	 -0.014550
H	 -1.637766	 1.358238	 0.744969
H	 -1.659588	 0.017670	 1.857098
C	 0.738335	 -0.034840	 0.421385
H	 -0.814977	 -0.178223	 -1.064632
H	 -0.802730	 -1.495410	 0.071702
C	 1.822265	 -0.738362	 -0.399735
H	 0.853533	 1.043532	 0.342250
H	 0.871597	 -0.279636	 1.474438
C	 3.183260	 -0.850719	 0.296845
H	 1.947342	 -0.220067	 -1.349167
H	 1.476958	 -1.740450	 -0.645499
C	 3.884191	 0.486712	 0.542564
H	 3.831102	 -1.476369	 -0.312378
H	 3.060700	 -1.373443	 1.243388
H	 4.009235	 1.037806	 -0.385767
H	 4.870528	 0.332320	 0.969342
H	 3.328502	 1.116821	 1.229104

	symmetry c1
}
set optking {
	frozen_dihedral = ("
		17 13 10 7
	")
}

ee = optimize('scf')
oeprop('DIPOLE', 'QUADRUPOLE', 'MULLIKEN_CHARGES')
f=open( 'psi4out.xyz', 'w' )
f.write( "24  " )
f.write( str(ee) + "\n" )
f.write( MOL.save_string_xyz() )
f.close()
--------------------------------------------------------------------------

    Molecular point group: c1
  Charge       = 0
  Multiplicity = 1
  Basis Set: 6-31G*
  Basis Set:
  @DF-RHF Final Energy:  -349.24633723948159
    Total Energy =                       -349.2463372394812495
    Molecular point group: c1
  Basis Set: 6-31G*
  Basis Set:
  Basis Set: 6-31G*
  Basis Set:
  @DF-RHF Final Energy:  -349.24628452098011
    Total Energy =                       -349.2462845209800548
  Basis Set: 6-31G*
  Basis Set:
  Basis Set: 6-31G*
  Basis Set:
  @DF-RHF Final Energy:  -349.24650453727998
    Total Energy =                       -349.2465045372797476
  Basis Set: 6-31G*
  Basis Set:
  Basis Set: 6-31G*
  Basis Set:
  @DF-RHF Final Energy:  -349.24654365597070
    Total Energy =                       -349.2465436559707541
  Basis Set: 6-31G*
  Basis Set:
  Basis Set: 6-31G*
  Basis Set:
  @DF-RHF Final Energy:  -349.24654316226002
    Total Energy =                       -349.2465431622601955
  Basis Set: 6-31G*
  Basis Set:
  Basis Set: 6-31G*
  Basis Set:
  @DF-RHF Final Energy:  -349.24655059230088
    Total Energy =                       -349.2465505923008777
  Basis Set: 6-31G*
  Basis Set:
  Charge       = 0
  Multiplicity = 1
  Basis Set: 6-31G*
  Basis Set:

    Orbital Energies (a.u.)
    -----------------------

    Doubly Occupied:

       1A    -20.553554     2A    -11.267735     3A    -11.217445
       4A    -11.213763     5A    -11.212617     6A    -11.211532
       7A    -11.211283     8A    -11.207303     9A     -1.360171
      10A     -1.088379    11A     -1.048456    12A     -0.984914
      13A     -0.914709    14A     -0.850763    15A     -0.801469
      16A     -0.775405    17A     -0.679406    18A     -0.652393
      19A     -0.626820    20A     -0.619247    21A     -0.593694
      22A     -0.588870    23A     -0.553444    24A     -0.544224
      25A     -0.515526    26A     -0.505168    27A     -0.501843
      28A     -0.473268    29A     -0.467772    30A     -0.460191
      31A     -0.452064    32A     -0.451878    33A     -0.418972

  @DF-RHF Final Energy:  -349.24655047445742

   => Energetics <=

    Nuclear Repulsion Energy =            384.4662585143536262
    One-Electron Energy =               -1235.3770595099622369
    Two-Electron Energy =                 501.6642505211513026
    DFT Exchange-Correlation Energy =       0.0000000000000000
    Empirical Dispersion Energy =           0.0000000000000000
    PCM Polarization Energy =               0.0000000000000000
    EFP Energy =                            0.0000000000000000
    Total Energy =                       -349.2465504744573082
    Molecular point group: c1
  Basis Set: 6-31G*
  Basis Set:

  -Total Gradient:
     Atom            X                  Y                   Z
    ------   -----------------  -----------------  -----------------
       1        0.000001375634    -0.000005229662     0.000004480169
       2        0.000017258843    -0.000017528796    -0.000013380878
       3       -0.000008752599     0.000043425865     0.000003575503
       4       -0.000004884237    -0.000023207103     0.000006206349
       5        0.000002730906     0.000003481959     0.000000394734
       6       -0.000002682862     0.000001056887     0.000002233395
       7        0.000005625953    -0.001731960915     0.001473719085
       8       -0.000005769728    -0.000003634431     0.000002549789
       9        0.000003285771    -0.000006933588    -0.000000063250
      10        0.000500605063     0.002850503625    -0.001724954289
      11        0.000005487044    -0.000001272709    -0.000009965809
      12       -0.000006979637     0.000002212613     0.000011638907
      13       -0.002663534887    -0.002893702946    -0.001052393696
      14       -0.000015467078     0.000004717963     0.000011184052
      15       -0.000013459283    -0.000004679531    -0.000006113332
      16       -0.000009842882     0.000010462840     0.000009953507
      17        0.002179493145     0.001788867042     0.001293887406
      18        0.000011583220    -0.000006640831    -0.000005919841
      19        0.000005811860    -0.000007934827    -0.000015925364
      20        0.000009683927     0.000009237587     0.000008898429
      21       -0.000013545580    -0.000002173706    -0.000001310772
      22       -0.000013554884     0.000004131532     0.000003118013
      23        0.000008014862    -0.000001091347    -0.000009088212
      24        0.000007517429    -0.000012107521     0.000007276107

  **** Optimization is complete! (in 7 steps) ****
    Final optimized geometry and variables:
    Molecular point group: c1

    Geometry (in Angstrom), charge = 0, multiplicity = 1:

    H           -3.413691752396     1.329895699459    -1.187176484967
    O           -3.458245871246     0.389679661630    -1.080625711103
    C           -3.188361337936     0.061369973632     0.258448443337
    C           -1.767476323775     0.412644266578     0.685492773296
    H           -3.348535478067    -1.006873992351     0.336584873946
    H           -3.905212391161     0.545419108135     0.919528317380
    C           -0.690232465764    -0.314565203034    -0.119921704287
    H           -1.626885832892     1.490324293209     0.597815654972
    H           -1.660247927370     0.178449554877     1.743377093885
    C            0.731884348746     0.050164077985     0.311631439913
    H           -0.824600147020    -0.095051817972    -1.175031404235
    H           -0.830114748595    -1.388593239281    -0.012050103499
    C            1.810249860240    -0.649275150731    -0.527528606006
    H            0.863523333275     1.128205388513     0.262224617753
    H            0.858321996293    -0.222667175078     1.358832857987
    C            3.179777392738    -0.738030467117     0.156303529380
    H            1.933696759815    -0.117553310045    -1.469304003223
    H            1.479757171541    -1.655230877116    -0.773900925041
    C            3.824956918601     0.618562676069     0.444162750893
    H            3.847780641808    -1.317365935789    -0.476590181984
    H            3.081671893746    -1.295463154386     1.085716067459
    H            3.931339276770     1.201092803979    -0.467218359067
    H            4.814546299251     0.494146842198     0.873153998773
    H            3.237384275556     1.204229855511     1.143894480722

  Mulliken Charges: (a.u.)
   Center  Symbol    Alpha    Beta     Spin     Total
       1     H     0.28339  0.28339  0.00000  0.43322
       2     O     4.36827  4.36827  0.00000 -0.73654
       3     C     2.99612  2.99612  0.00000  0.00777
       4     C     3.16937  3.16937  0.00000 -0.33874
       5     H     0.41636  0.41636  0.00000  0.16729
       6     H     0.42815  0.42815  0.00000  0.14369
       7     C     3.15230  3.15230  0.00000 -0.30460
       8     H     0.42825  0.42825  0.00000  0.14350
       9     H     0.42241  0.42241  0.00000  0.15518
      10     C     3.15414  3.15414  0.00000 -0.30828
      11     H     0.41218  0.41218  0.00000  0.17564
      12     H     0.42331  0.42331  0.00000  0.15338
      13     C     3.15267  3.15267  0.00000 -0.30534
      14     H     0.42229  0.42229  0.00000  0.15543
      15     H     0.42531  0.42531  0.00000  0.14938
      16     C     3.15274  3.15274  0.00000 -0.30548
      17     H     0.42322  0.42322  0.00000  0.15356
      18     H     0.42067  0.42067  0.00000  0.15866
      19     C     3.24125  3.24125  0.00000 -0.48250
      20     H     0.42155  0.42155  0.00000  0.15690
      21     H     0.42387  0.42387  0.00000  0.15226
      22     H     0.42261  0.42261  0.00000  0.15479
      23     H     0.41956  0.41956  0.00000  0.16087
      24     H     0.42002  0.42002  0.00000  0.15996

   Total alpha = 33.00000, Total beta = 33.00000, Total charge =  0.00000
