  ==> Input File <==

--------------------------------------------------------------------------
set {
	reference rhf
	basis 6-31G*
}

set_num_threads( 1 )
memory 2 gb

molecule MOL {
0 1

H	 -3.161837	 0.500524	 -0.000234
C	 -2.367097	 -0.232926	 -0.000000
O	 -1.158440	 0.455814	 -0.000122
H	 -2.468853	 -0.861886	 -0.882833
H	 -2.468942	 -0.861421	 0.883154
C	 -0.029776	 -0.365156	 0.000148
C	 0.802676	 -0.054457	 -1.231579
H	 -0.328662	 -1.414235	 0.000408
H	 0.555920	 -0.197807	 0.905058
C	 2.065264	 -0.911080	 -1.314950
H	 0.186067	 -0.208877	 -2.111698
H	 1.064538	 0.999012	 -1.213406
H	 1.824033	 -1.969526	 -1.358798
H	 2.639979	 -0.668310	 -2.202425
H	 2.708532	 -0.753590	 -0.453668

	symmetry c1
}
set optking {
	frozen_dihedral = ("
		6 3 2 4,
		11 7 6 8
	")
}

ee = energy('scf')
oeprop('DIPOLE', 'QUADRUPOLE', 'MULLIKEN_CHARGES')
f=open( 'psi4out.xyz', 'w' )
f.write( "15  " )
f.write( str(ee) + "\n" )
f.write( MOL.save_string_xyz() )
f.close()
--------------------------------------------------------------------------

    Molecular point group: c1

    Geometry (in Angstrom), charge = 0, multiplicity = 1:

       Center              X                  Y                   Z               Mass
    ------------   -----------------  -----------------  -----------------  -----------------
           H         -2.995497947662     0.729370381592     0.499856891546     1.007825032070
           C         -2.200757947662    -0.004079618408     0.500090891546    12.000000000000
           O         -0.992100947662     0.684660381592     0.499968891546    15.994914619560
           H         -2.302513947662    -0.633039618408    -0.382742108454     1.007825032070
           H         -2.302602947662    -0.632574618408     1.383244891546     1.007825032070
           C          0.136563052338    -0.136309618408     0.500238891546    12.000000000000
           C          0.969015052338     0.174389381592    -0.731488108454    12.000000000000
           H         -0.162322947662    -1.185388618408     0.500498891546     1.007825032070
           H          0.722259052338     0.031039381592     1.405148891546     1.007825032070
           C          2.231603052338    -0.682233618408    -0.814859108454    12.000000000000
           H          0.352406052338     0.019969381592    -1.611607108454     1.007825032070
           H          1.230877052338     1.227858381592    -0.713315108454     1.007825032070
           H          1.990372052338    -1.740679618408    -0.858707108454     1.007825032070
           H          2.806318052338    -0.439463618408    -1.702334108454     1.007825032070
           H          2.874871052338    -0.524743618408     0.046422891546     1.007825032070

  Charge       = 0
  Multiplicity = 1
  Basis Set: 6-31G*
  Basis Set:

    Orbital Energies (a.u.)
    -----------------------

    Doubly Occupied:

       1A    -20.551025     2A    -11.265654     3A    -11.265195
       4A    -11.212985     5A    -11.212117     6A     -1.377948
       7A     -1.056009     8A     -0.955845     9A     -0.879637
      10A     -0.808709    11A     -0.672052    12A     -0.653157
      13A     -0.636249    14A     -0.600367    15A     -0.568604
      16A     -0.537352    17A     -0.505024    18A     -0.493175
      19A     -0.482171    20A     -0.463881    21A     -0.404484

  @DF-RHF Final Energy:  -232.13510529367173

   => Energetics <=

    Nuclear Repulsion Energy =            190.8281901065955992
    One-Electron Energy =                -692.7233488230772309
    Two-Electron Energy =                 269.7600534228105289
    DFT Exchange-Correlation Energy =       0.0000000000000000
    Empirical Dispersion Energy =           0.0000000000000000
    PCM Polarization Energy =               0.0000000000000000
    EFP Energy =                            0.0000000000000000
    Total Energy =                       -232.1351052936711312

  Mulliken Charges: (a.u.)
   Center  Symbol    Alpha    Beta     Spin     Total
       1     H     0.41289  0.41289  0.00000  0.17423
       2     C     3.08103  3.08103  0.00000 -0.16206
       3     O     4.30527  4.30527  0.00000 -0.61054
       4     H     0.43057  0.43057  0.00000  0.13886
       5     H     0.42923  0.42923  0.00000  0.14154
       6     C     2.98791  2.98791  0.00000  0.02417
       7     C     3.15606  3.15606  0.00000 -0.31212
       8     H     0.43215  0.43215  0.00000  0.13571
       9     H     0.42379  0.42379  0.00000  0.15242
      10     C     3.24912  3.24912  0.00000 -0.49824
      11     H     0.41979  0.41979  0.00000  0.16042
      12     H     0.41382  0.41382  0.00000  0.17237
      13     H     0.42191  0.42191  0.00000  0.15619
      14     H     0.41598  0.41598  0.00000  0.16803
      15     H     0.42049  0.42049  0.00000  0.15903

   Total alpha = 21.00000, Total beta = 21.00000, Total charge = -0.00000
