  ==> Input File <==

--------------------------------------------------------------------------
set {
	reference rhf
	basis cc-pvtz
}

set_num_threads( 4 )
memory 2 gb

molecule MOL {
0 1

H	 -2.698799	 -0.000846	 0.036018
C	 -1.694291	 -0.000483	 0.434279
O	 -0.828718	 -0.000608	 -0.655022
H	 -1.576855	 0.881100	 1.056504
H	 -1.576401	 -0.881658	 1.057001
C	 0.499835	 -0.421517	 -0.466184
C	 1.275133	 0.491853	 0.476652
C	 0.597640	 -1.888208	 -0.061833
H	 0.933711	 -0.321687	 -1.453303
H	 1.153356	 1.527295	 0.183243
H	 2.330748	 0.249107	 0.437942
H	 0.953626	 0.386187	 1.506239
H	 0.006097	 -2.503341	 -0.728715
H	 1.628647	 -2.217471	 -0.120004
H	 0.258057	 -2.057032	 0.953413

	symmetry c1
}
set optking {
	frozen_dihedral = ("
		6 3 2 1
	")
}

ee = optimize('scf')
oeprop('DIPOLE', 'QUADRUPOLE', 'MULLIKEN_CHARGES')
f=open( 'psi4out.xyz', 'w' )
f.write( "15  " )
f.write( str(ee) + "\n" )
f.write( MOL.save_string_xyz() )
f.close()
--------------------------------------------------------------------------

    Molecular point group: c1
  Charge       = 0
  Multiplicity = 1
  Basis Set: CC-PVTZ
  Basis Set:
  @DF-RHF Final Energy:  -232.22548717458952
    Total Energy =                       -232.2254871745894320
    Molecular point group: c1
  Basis Set: CC-PVTZ
  Basis Set:
  Basis Set: CC-PVTZ
  Basis Set:
  @DF-RHF Final Energy:  -232.22539184657617
    Total Energy =                       -232.2253918465761444
  Basis Set: CC-PVTZ
  Basis Set:
  Basis Set: CC-PVTZ
  Basis Set:
  @DF-RHF Final Energy:  -232.22573395908054
    Total Energy =                       -232.2257339590806851
  Basis Set: CC-PVTZ
  Basis Set:
  Basis Set: CC-PVTZ
  Basis Set:
  @DF-RHF Final Energy:  -232.22574393655125
    Total Energy =                       -232.2257439365512255
  Basis Set: CC-PVTZ
  Basis Set:
  Basis Set: CC-PVTZ
  Basis Set:
  @DF-RHF Final Energy:  -232.22574575899148
    Total Energy =                       -232.2257457589913656
  Basis Set: CC-PVTZ
  Basis Set:
  Charge       = 0
  Multiplicity = 1
  Basis Set: CC-PVTZ
  Basis Set:

    Orbital Energies (a.u.)
    -----------------------

    Doubly Occupied:

       1A    -20.541284     2A    -11.272766     3A    -11.258798
       4A    -11.209460     5A    -11.207935     6A     -1.373077
       7A     -1.051366     8A     -0.940706     9A     -0.931232
      10A     -0.781587    11A     -0.676223    12A     -0.642367
      13A     -0.634537    14A     -0.572587    15A     -0.564630
      16A     -0.552825    17A     -0.535158    18A     -0.499492
      19A     -0.497777    20A     -0.444589    21A     -0.408537

  @DF-RHF Final Energy:  -232.22574597849575

   => Energetics <=

    Nuclear Repulsion Energy =            199.0575061788966309
    One-Electron Energy =                -709.3726412270719948
    Two-Electron Energy =                 278.0893890696793278
    DFT Exchange-Correlation Energy =       0.0000000000000000
    Empirical Dispersion Energy =           0.0000000000000000
    PCM Polarization Energy =               0.0000000000000000
    EFP Energy =                            0.0000000000000000
    Total Energy =                       -232.2257459784960361
    Molecular point group: c1
  Basis Set: CC-PVTZ
  Basis Set:

  -Total Gradient:
     Atom            X                  Y                   Z
    ------   -----------------  -----------------  -----------------
       1        0.000020549715    -0.001369565859     0.000148837559
       2       -0.000193009526     0.001168497883    -0.000242657710
       3        0.000442596201     0.001330170383     0.000211647154
       4       -0.000015312403    -0.000016997255    -0.000008132926
       5        0.000006273379    -0.000007546324     0.000010576360
       6       -0.000323046865    -0.001088679222    -0.000110208984
       7        0.000036853101    -0.000003876269     0.000002892502
       8        0.000013290831     0.000001594977    -0.000010819151
       9        0.000018065927    -0.000016829997     0.000002466176
      10        0.000000474028    -0.000001704487    -0.000001423960
      11       -0.000007960408     0.000006309944     0.000003206876
      12        0.000009003873    -0.000000897038     0.000000241699
      13       -0.000005269968    -0.000004208309     0.000003232461
      14       -0.000000817801    -0.000003538923    -0.000001204819
      15       -0.000001690083     0.000007270499    -0.000008653234

  **** Optimization is complete! (in 6 steps) ****
    Final optimized geometry and variables:
    Molecular point group: c1

    Geometry (in Angstrom), charge = 0, multiplicity = 1:

    H           -2.644801860979     0.363511077401     0.130829315414
    C           -1.626335671035     0.416580085269     0.489268946326
    O           -0.791951315614     0.317148320926    -0.620985311514
    H           -1.490076140048     1.356592669709     1.015084266866
    H           -1.482436117634    -0.394828910341     1.194850921381
    C            0.547749058055    -0.065304517404    -0.429329707271
    C            1.289596269817     0.853530088217     0.534216093956
    C            0.678313157306    -1.536228342549    -0.049484528115
    H            0.986951714532     0.059960164220    -1.411246070175
    H            1.165198692873     1.889052415285     0.241545368479
    H            2.348382981996     0.622583208220     0.524029320311
    H            0.938771178792     0.741154756804     1.553869928963
    H            0.117395090572    -2.151779639119    -0.741589306278
    H            1.718991893393    -1.837155548098    -0.091144562284
    H            0.321450257697    -1.736271046395     0.953956386091

  Mulliken Charges: (a.u.)
   Center  Symbol    Alpha    Beta     Spin     Total
       1     H     0.44294  0.44294  0.00000  0.11413
       2     C     3.03997  3.03997  0.00000 -0.07994
       3     O     4.18423  4.18423  0.00000 -0.36846
       4     H     0.46555  0.46555  0.00000  0.06890
       5     H     0.47094  0.47094  0.00000  0.05812
       6     C     2.93612  2.93612  0.00000  0.12775
       7     C     3.16035  3.16035  0.00000 -0.32070
       8     C     3.15370  3.15370  0.00000 -0.30740
       9     H     0.44686  0.44686  0.00000  0.10628
      10     H     0.44401  0.44401  0.00000  0.11198
      11     H     0.44822  0.44822  0.00000  0.10355
      12     H     0.45498  0.45498  0.00000  0.09003
      13     H     0.44466  0.44466  0.00000  0.11068
      14     H     0.45131  0.45131  0.00000  0.09737
      15     H     0.45615  0.45615  0.00000  0.08770

   Total alpha = 21.00000, Total beta = 21.00000, Total charge = -0.00000
