  ==> Input File <==

--------------------------------------------------------------------------
set {
	reference rhf
	basis 6-31G*
}

set_num_threads( 4 )
memory 2 gb

molecule MOL {
0 1

H	 -2.646374	 -0.642757	 1.268656
C	 -2.083525	 -0.384536	 0.393091
O	 -0.807605	 -0.127164	 0.768327
F	 -2.118945	 -1.383102	 -0.486752
F	 -2.621877	 0.670592	 -0.209486
C	 0.084052	 0.273579	 -0.209957
C	 1.256999	 0.935445	 0.501584
Cl	 -0.681624	 1.405833	 -1.336436
H	 0.460650	 -0.554340	 -0.784847
F	 2.158419	 1.333468	 -0.370860
F	 1.822286	 0.051945	 1.299905
F	 0.882144	 1.964999	 1.220941

	symmetry c1
}
set optking {
	frozen_dihedral = ("
		9 6 3 2
	")
}

ee = optimize('scf')
oeprop('DIPOLE', 'QUADRUPOLE', 'MULLIKEN_CHARGES')
f=open( 'psi4out.xyz', 'w' )
f.write( "12  " )
f.write( str(ee) + "\n" )
f.write( MOL.save_string_xyz() )
f.close()
--------------------------------------------------------------------------

    Molecular point group: c1
  Charge       = 0
  Multiplicity = 1
  Basis Set: 6-31G*
  Basis Set:
  @DF-RHF Final Energy: -1146.28623487543655
    Total Energy =                      -1146.2862348754370032
    Molecular point group: c1
  Basis Set: 6-31G*
  Basis Set:
  Basis Set: 6-31G*
  Basis Set:
  @DF-RHF Final Energy: -1146.30162791015391
    Total Energy =                      -1146.3016279101539112
  Basis Set: 6-31G*
  Basis Set:
  Basis Set: 6-31G*
  Basis Set:
  @DF-RHF Final Energy: -1146.30560085947673
    Total Energy =                      -1146.3056008594767263
  Basis Set: 6-31G*
  Basis Set:
  Basis Set: 6-31G*
  Basis Set:
  @DF-RHF Final Energy: -1146.30738708621584
    Total Energy =                      -1146.3073870862147032
  Basis Set: 6-31G*
  Basis Set:
  @DF-RHF Final Energy: -1146.30781535783490
    Total Energy =                      -1146.3078153578344427
  @DF-RHF Final Energy: -1146.30789782453098
    Total Energy =                      -1146.3078978245303006
  Basis Set: 6-31G*
  Basis Set:
  @DF-RHF Final Energy: -1146.30791681166806
    Total Energy =                      -1146.3079168116673827
  Basis Set: 6-31G*
  Basis Set:
  Basis Set: 6-31G*
  Basis Set:
  @DF-RHF Final Energy: -1146.30792155676158
    Total Energy =                      -1146.3079215567613574
  Basis Set: 6-31G*
  Basis Set:
  Basis Set: 6-31G*
  Basis Set:
  @DF-RHF Final Energy: -1146.30792942103290
    Total Energy =                      -1146.3079294210331227
  Basis Set: 6-31G*
  Basis Set:
  Charge       = 0
  Multiplicity = 1
  Basis Set: 6-31G*
  Basis Set:

    Orbital Energies (a.u.)
    -----------------------

    Doubly Occupied:

       1A   -104.846242     2A    -26.358904     3A    -26.357239
       4A    -26.356479     5A    -26.344220     6A    -26.337026
       7A    -20.645671     8A    -11.526516     9A    -11.486670
      10A    -11.401654    11A    -10.581315    12A     -8.050689
      13A     -8.047098    14A     -8.046972    15A     -1.760069
      16A     -1.711768    17A     -1.656459    18A     -1.654924
      19A     -1.634331    20A     -1.479050    21A     -1.181657
      22A     -1.058170    23A     -0.982704    24A     -0.915685
      25A     -0.853237    26A     -0.848214    27A     -0.843376
      28A     -0.817620    29A     -0.806686    30A     -0.786443
      31A     -0.730483    32A     -0.723787    33A     -0.705425
      34A     -0.691858    35A     -0.678940    36A     -0.673284
      37A     -0.657976    38A     -0.656480    39A     -0.646387
      40A     -0.633031    41A     -0.595426    42A     -0.560520
      43A     -0.530134    44A     -0.477807    45A     -0.468770

  @DF-RHF Final Energy: -1146.30792980422098

   => Energetics <=

    Nuclear Repulsion Energy =            740.6354243063435661
    One-Electron Energy =               -3064.2719186478389020
    Two-Electron Energy =                1177.3285645372748149
    DFT Exchange-Correlation Energy =       0.0000000000000000
    Empirical Dispersion Energy =           0.0000000000000000
    PCM Polarization Energy =               0.0000000000000000
    EFP Energy =                            0.0000000000000000
    Total Energy =                      -1146.3079298042207483
    Molecular point group: c1
  Basis Set: 6-31G*
  Basis Set:

  -Total Gradient:
     Atom            X                  Y                   Z
    ------   -----------------  -----------------  -----------------
       1        0.000025218225    -0.000008292715     0.000000370723
       2       -0.001277338282     0.004452955098     0.000311356491
       3        0.002973424820    -0.006912661380     0.000461620636
       4        0.000016048683    -0.000015730497     0.000029385733
       5       -0.000020588980     0.000044283738     0.000014330472
       6       -0.005580059382     0.002537876055    -0.004370401304
       7        0.000005905315     0.000014699839    -0.000040852430
       8        0.000020576678     0.000025585077    -0.000029309843
       9        0.003838567368    -0.000128186929     0.003591595896
      10       -0.000012142971    -0.000003051373     0.000028437030
      11        0.000000753255    -0.000001486092     0.000009097170
      12        0.000009635292    -0.000005990826    -0.000005630547

  **** Optimization is complete! (in 10 steps) ****
    Final optimized geometry and variables:
    Molecular point group: c1

    Geometry (in Angstrom), charge = 0, multiplicity = 1:

    H           -2.261862102928    -1.503927582694     1.285579895264
    C           -1.865049062357    -0.989436495186     0.431235304679
    O           -0.583184100848    -0.648189392134     0.717477240292
    F           -1.910800675517    -1.781213262636    -0.637502891232
    F           -2.608476919986     0.075272359043     0.173772166550
    C            0.344630901935    -0.314618251764    -0.255925059516
    C            1.487805047255     0.347413456293     0.509411106775
    CL          -0.228348259423     0.766463315836    -1.533515133635
    H            0.747795212272    -1.201118431299    -0.717181457509
    F            2.479799574724     0.626302921759    -0.309895825459
    F            1.939608011757    -0.489011664459     1.422039202495
    F            1.112077623966     1.451339775921     1.107512559013

  Mulliken Charges: (a.u.)
   Center  Symbol    Alpha    Beta     Spin     Total
       1     H     0.40489  0.40489  0.00000  0.19021
       2     C     2.55764  2.55764  0.00000  0.88472
       3     O     4.31574  4.31574  0.00000 -0.63148
       4     F     4.68708  4.68708  0.00000 -0.37416
       5     F     4.67793  4.67793  0.00000 -0.35586
       6     C     3.02597  3.02597  0.00000 -0.05193
       7     C     2.43773  2.43773  0.00000  1.12455
       8    CL     8.50017  8.50017  0.00000 -0.00033
       9     H     0.37288  0.37288  0.00000  0.25425
      10     F     4.67524  4.67524  0.00000 -0.35048
      11     F     4.67681  4.67681  0.00000 -0.35361
      12     F     4.66794  4.66794  0.00000 -0.33589

   Total alpha = 45.00000, Total beta = 45.00000, Total charge =  0.00000
