  ==> Input File <==

--------------------------------------------------------------------------
set {
	reference rhf
	basis cc-pvtz
}

set_num_threads( 4 )
memory 2 gb

molecule MOL {
0 1

H	 -0.000342	 -0.223902	 -3.352295
C	 -0.027146	 0.371068	 -2.446756
C	 0.024493	 -0.518541	 -1.216015
H	 -0.932586	 0.964979	 -2.449855
H	 0.819708	 1.049865	 -2.473332
N	 -0.042516	 0.263377	 -0.000000
H	 -0.822211	 -1.197105	 -1.225584
H	 0.921114	 -1.142847	 -1.255206
C	 0.024493	 -0.518541	 1.216015
H	 0.682568	 0.950412	 -0.000000
C	 0.841210	 -1.783724	 1.013337
H	 0.490000	 0.092438	 1.982472
H	 -0.967955	 -0.781884	 1.591409
H	 1.844280	 -1.541236	 0.685296
H	 0.905955	 -2.350958	 1.934621
H	 0.388301	 -2.424479	 0.263044

	symmetry c1
}
set optking {
	frozen_dihedral = ("
		12 9 6 3
	")
}

ee = optimize('scf')
oeprop('DIPOLE', 'QUADRUPOLE', 'MULLIKEN_CHARGES')
f=open( 'psi4out.xyz', 'w' )
f.write( "16  " )
f.write( str(ee) + "\n" )
f.write( MOL.save_string_xyz() )
f.close()
--------------------------------------------------------------------------

    Molecular point group: c1
  Charge       = 0
  Multiplicity = 1
  Basis Set: CC-PVTZ
  Basis Set:
  @DF-RHF Final Energy:  -212.38178608825021
    Total Energy =                       -212.3817860882501805
    Molecular point group: c1
  Basis Set: CC-PVTZ
  Basis Set:
  Basis Set: CC-PVTZ
  Basis Set:
  @DF-RHF Final Energy:  -212.38246077631993
    Total Energy =                       -212.3824607763199879
  Basis Set: CC-PVTZ
  Basis Set:
  Basis Set: CC-PVTZ
  Basis Set:
  @DF-RHF Final Energy:  -212.38677994292527
    Total Energy =                       -212.3867799429252159
  Basis Set: CC-PVTZ
  Basis Set:
  Basis Set: CC-PVTZ
  Basis Set:
  @DF-RHF Final Energy:  -212.38754163648937
    Total Energy =                       -212.3875416364894022
  Basis Set: CC-PVTZ
  Basis Set:
  @DF-RHF Final Energy:  -212.38765020388396
    Total Energy =                       -212.3876502038840499
  @DF-RHF Final Energy:  -212.38767616422498
    Total Energy =                       -212.3876761642251267
  @DF-RHF Final Energy:  -212.38767816493140
    Total Energy =                       -212.3876781649311738
  @DF-RHF Final Energy:  -212.37574125747147
    Total Energy =                       -212.3757412574717023
  @DF-RHF Final Energy:  -212.38617749947818
    Total Energy =                       -212.3861774994783218
  Basis Set: CC-PVTZ
  Basis Set:
  @DF-RHF Final Energy:  -212.38764540346116
    Total Energy =                       -212.3876454034610788
  Basis Set: CC-PVTZ
  Basis Set:
  Basis Set: CC-PVTZ
  Basis Set:
  @DF-RHF Final Energy:  -212.38767189806782
    Total Energy =                       -212.3876718980677651
  Basis Set: CC-PVTZ
  Basis Set:
  Basis Set: CC-PVTZ
  Basis Set:
  @DF-RHF Final Energy:  -212.38767774508514
    Total Energy =                       -212.3876777450850568
  Basis Set: CC-PVTZ
  Basis Set:
  Charge       = 0
  Multiplicity = 1
  Basis Set: CC-PVTZ
  Basis Set:

    Orbital Energies (a.u.)
    -----------------------

    Doubly Occupied:

       1A    -15.526854     2A    -11.240058     3A    -11.237953
       4A    -11.206625     5A    -11.205117     6A     -1.201591
       7A     -1.024525     8A     -0.968312     9A     -0.853031
      10A     -0.798286    11A     -0.662814    12A     -0.628408
      13A     -0.605172    14A     -0.585295    15A     -0.540933
      16A     -0.533863    17A     -0.510941    18A     -0.492057
      19A     -0.480679    20A     -0.471866    21A     -0.356777

  @DF-RHF Final Energy:  -212.38767828092060

   => Energetics <=

    Nuclear Repulsion Energy =            191.7552119837946236
    One-Electron Energy =                -666.0234655591511910
    Two-Electron Energy =                 261.8805752944360847
    DFT Exchange-Correlation Energy =       0.0000000000000000
    Empirical Dispersion Energy =           0.0000000000000000
    PCM Polarization Energy =               0.0000000000000000
    EFP Energy =                            0.0000000000000000
    Total Energy =                       -212.3876782809204542
    Molecular point group: c1
  Basis Set: CC-PVTZ
  Basis Set:

  -Total Gradient:
     Atom            X                  Y                   Z
    ------   -----------------  -----------------  -----------------
       1        0.000002467069     0.000000851884    -0.000002121316
       2        0.000005905231    -0.000002267710    -0.000012935521
       3        0.004809624753     0.000365273510     0.000045292655
       4        0.000001719984    -0.000001922126     0.000003122487
       5       -0.000000862301     0.000001728502    -0.000000245495
       6       -0.005994995062    -0.000946574619    -0.000330978493
       7        0.000003784204     0.000010811386     0.000016244605
       8        0.000007347134    -0.000008867388     0.000001413882
       9       -0.004086258185     0.002734042603     0.001856947239
      10        0.000012340143    -0.000032623313    -0.000025408169
      11       -0.000012658648    -0.000026930276    -0.000020772041
      12        0.005246940545    -0.002126448991    -0.001542662441
      13        0.000006147075     0.000031837673     0.000011012112
      14       -0.000001077078     0.000002464006     0.000005000016
      15       -0.000010495823     0.000001281246     0.000002248526
      16        0.000010070957    -0.000002656387    -0.000006158045

  **** Optimization is complete! (in 13 steps) ****
    Final optimized geometry and variables:
    Molecular point group: c1

    Geometry (in Angstrom), charge = 0, multiplicity = 1:

    H           -0.252095876421     0.364225398179    -3.116615298219
    C           -0.275152372711     0.902673954609    -2.175997047381
    C           -0.135441043639    -0.054567612538    -1.003397223798
    H           -1.206245484156     1.451415706300    -2.112359938050
    H            0.537578149391     1.622639935144    -2.188749126347
    N           -0.186121525180     0.670863358577     0.249787971450
    H           -0.957371244784    -0.763425375939    -1.023651651673
    H            0.778280042988    -0.635399871774    -1.123897631639
    C           -0.131024000666    -0.093667150584     1.490482457428
    H            0.536544675566     1.357436118556     0.252464994559
    C            0.656920885108    -1.404680731633     1.466839341978
    H            0.344030465916     0.538601514077     2.231299116133
    H           -1.141454750970    -0.297465328359     1.829995454050
    H            1.688565639837    -1.243296312574     1.172303414883
    H            0.659793603998    -1.839785010914     2.460251869954
    H            0.225513800770    -2.133842637410     0.792496104960

  Mulliken Charges: (a.u.)
   Center  Symbol    Alpha    Beta     Spin     Total
       1     H     0.45477  0.45477  0.00000  0.09046
       2     C     3.14279  3.14279  0.00000 -0.28559
       3     C     3.02421  3.02421  0.00000 -0.04842
       4     H     0.44930  0.44930  0.00000  0.10141
       5     H     0.45995  0.45995  0.00000  0.08009
       6     N     3.63951  3.63951  0.00000 -0.27902
       7     H     0.45838  0.45838  0.00000  0.08324
       8     H     0.46889  0.46889  0.00000  0.06221
       9     C     3.03511  3.03511  0.00000 -0.07021
      10     H     0.44397  0.44397  0.00000  0.11207
      11     C     3.15646  3.15646  0.00000 -0.31292
      12     H     0.45746  0.45746  0.00000  0.08509
      13     H     0.45426  0.45426  0.00000  0.09147
      14     H     0.45605  0.45605  0.00000  0.08791
      15     H     0.44731  0.44731  0.00000  0.10538
      16     H     0.45158  0.45158  0.00000  0.09683

   Total alpha = 21.00000, Total beta = 21.00000, Total charge = -0.00000
