  ==> Input File <==

--------------------------------------------------------------------------
set {
	reference rhf
	basis cc-pvtz
}

set_num_threads( 4 )
memory 2 gb

molecule MOL {
0 1

H	 2.253433	 -1.280794	 -0.146189
O	 1.675515	 -0.612943	 -0.465627
C	 1.135873	 0.113391	 0.608264
C	 0.027642	 1.012027	 0.090274
H	 1.902972	 0.727968	 1.072615
H	 0.756163	 -0.561896	 1.370018
C	 -1.138737	 0.285728	 -0.581921
H	 0.464661	 1.708096	 -0.618252
H	 -0.340737	 1.603071	 0.925246
C	 -1.933983	 -0.631436	 0.343653
H	 -0.763151	 -0.285569	 -1.422081
H	 -1.808359	 1.035291	 -0.992333
H	 -2.789188	 -1.049673	 -0.174718
H	 -1.335629	 -1.461368	 0.700418
H	 -2.305435	 -0.092167	 1.209725

	symmetry c1
}
set optking {
	frozen_dihedral = ("
		1 2 3 4
	")
}

ee = optimize('scf')
oeprop('DIPOLE', 'QUADRUPOLE', 'MULLIKEN_CHARGES')
f=open( 'psi4out.xyz', 'w' )
f.write( "15  " )
f.write( str(ee) + "\n" )
f.write( MOL.save_string_xyz() )
f.close()
--------------------------------------------------------------------------

    Molecular point group: c1
  Charge       = 0
  Multiplicity = 1
  Basis Set: CC-PVTZ
  Basis Set:
  @DF-RHF Final Energy:  -232.23753388654234
    Total Energy =                       -232.2375338865424510
    Molecular point group: c1
  Basis Set: CC-PVTZ
  Basis Set:
  Basis Set: CC-PVTZ
  Basis Set:
  @DF-RHF Final Energy:  -232.23753762075236
    Total Energy =                       -232.2375376207523914
  Basis Set: CC-PVTZ
  Basis Set:
  Charge       = 0
  Multiplicity = 1
  Basis Set: CC-PVTZ
  Basis Set:

    Orbital Energies (a.u.)
    -----------------------

    Doubly Occupied:

       1A    -20.546497     2A    -11.265420     3A    -11.210974
       4A    -11.207661     5A    -11.203818     6A     -1.364273
       7A     -1.065624     8A     -0.972024     9A     -0.869820
      10A     -0.775564    11A     -0.707464    12A     -0.650161
      13A     -0.609078    14A     -0.576452    15A     -0.565444
      16A     -0.533922    17A     -0.510847    18A     -0.476091
      19A     -0.468189    20A     -0.453563    21A     -0.433336

  @DF-RHF Final Energy:  -232.23753806969407

   => Energetics <=

    Nuclear Repulsion Energy =            191.8227091999549714
    One-Electron Energy =                -695.1880493126584497
    Two-Electron Energy =                 271.1278020430095808
    DFT Exchange-Correlation Energy =       0.0000000000000000
    Empirical Dispersion Energy =           0.0000000000000000
    PCM Polarization Energy =               0.0000000000000000
    EFP Energy =                            0.0000000000000000
    Total Energy =                       -232.2375380696939260
    Molecular point group: c1
  Basis Set: CC-PVTZ
  Basis Set:

  -Total Gradient:
     Atom            X                  Y                   Z
    ------   -----------------  -----------------  -----------------
       1       -0.000557689229    -0.000436438435     0.000005391207
       2        0.000578992683     0.000411144354     0.000013833737
       3        0.000317897604     0.000384254050    -0.000095536356
       4       -0.000337882147    -0.000380961403     0.000116555365
       5        0.000026736039    -0.000013976719     0.000014037527
       6       -0.000008734562     0.000067199626    -0.000035174773
       7        0.000019282399    -0.000022952436    -0.000024419898
       8       -0.000014331628     0.000002731547     0.000006716622
       9        0.000017956449    -0.000011302833     0.000016270618
      10       -0.000025463318    -0.000008966817     0.000000070164
      11       -0.000008793669    -0.000028926814     0.000014087363
      12        0.000018097225     0.000011619800    -0.000010749897
      13       -0.000003672759     0.000012982301     0.000007237846
      14       -0.000015863882     0.000016091501    -0.000036310017
      15       -0.000006531200    -0.000002497723     0.000007990491

  **** Optimization is complete! (in 3 steps) ****
    Final optimized geometry and variables:
    Molecular point group: c1

    Geometry (in Angstrom), charge = 0, multiplicity = 1:

    H            2.271087924337    -1.267218608861    -0.156547721135
    O            1.690365648954    -0.600031194329    -0.471549543532
    C            1.137939420489     0.110605956972     0.606505624515
    C            0.026332827203     1.007291000901     0.092236495246
    H            1.898846357944     0.722825077108     1.083914406657
    H            0.755990895181    -0.575276037860     1.357233866363
    C           -1.139267384250     0.280439806042    -0.580330995962
    H            0.460965052270     1.706107769556    -0.615162970832
    H           -0.341680554459     1.596352502330     0.928753713428
    C           -1.943342897908    -0.626526561946     0.347687777410
    H           -0.761694525816    -0.298225912846    -1.414488986210
    H           -1.804013711262     1.029434243562    -0.999490193231
    H           -2.796951503742    -1.045874186522    -0.172348991049
    H           -1.350608971173    -1.455943478807     0.715031054965
    H           -2.317948146489    -0.079062732915     1.207179505615

  Mulliken Charges: (a.u.)
   Center  Symbol    Alpha    Beta     Spin     Total
       1     H     0.39535  0.39535  0.00000  0.20929
       2     O     4.19977  4.19977  0.00000 -0.39954
       3     C     2.97597  2.97597  0.00000  0.04806
       4     C     3.09496  3.09496  0.00000 -0.18992
       5     H     0.46281  0.46281  0.00000  0.07439
       6     H     0.47232  0.47232  0.00000  0.05536
       7     C     3.08660  3.08660  0.00000 -0.17320
       8     H     0.44786  0.44786  0.00000  0.10428
       9     H     0.45443  0.45443  0.00000  0.09114
      10     C     3.15478  3.15478  0.00000 -0.30957
      11     H     0.44637  0.44637  0.00000  0.10725
      12     H     0.45083  0.45083  0.00000  0.09835
      13     H     0.44657  0.44657  0.00000  0.10687
      14     H     0.45459  0.45459  0.00000  0.09082
      15     H     0.45679  0.45679  0.00000  0.08642

   Total alpha = 21.00000, Total beta = 21.00000, Total charge = -0.00000
