  ==> Input File <==

--------------------------------------------------------------------------
set {
	reference rhf
	basis 6-31G*
}

set_num_threads( 4 )
memory 2 gb

molecule MOL {
0 1

H	 0.892894	 -0.753294	 2.149922
C	 -0.056012	 -0.828979	 1.636936
O	 0.000000	 0.000000	 0.521119
H	 -0.221768	 -1.867411	 1.354317
H	 -0.849870	 -0.527254	 2.318436
C	 -1.165642	 0.000000	 -0.238270
H	 -1.228672	 0.883184	 -0.872070
H	 -2.003012	 0.000000	 0.445920
H	 -1.228672	 -0.883184	 -0.872070

	symmetry c1
}
set optking {
	frozen_dihedral = ("
		2 3 6 7
	")
}

ee = optimize('scf')
oeprop('DIPOLE', 'QUADRUPOLE', 'MULLIKEN_CHARGES')
f=open( 'psi4out.xyz', 'w' )
f.write( "9  " )
f.write( str(ee) + "\n" )
f.write( MOL.save_string_xyz() )
f.close()
--------------------------------------------------------------------------

    Molecular point group: c1
  Charge       = 0
  Multiplicity = 1
  Basis Set: 6-31G*
  Basis Set:
  @DF-RHF Final Energy:  -154.06249623045517
    Total Energy =                       -154.0624962304551957
    Molecular point group: c1
  Basis Set: 6-31G*
  Basis Set:
  Basis Set: 6-31G*
  Basis Set:
  @DF-RHF Final Energy:  -154.06337951047382
    Total Energy =                       -154.0633795104737942
  Basis Set: 6-31G*
  Basis Set:
  Basis Set: 6-31G*
  Basis Set:
  @DF-RHF Final Energy:  -154.06362625306383
    Total Energy =                       -154.0636262530637453
  Basis Set: 6-31G*
  Basis Set:
  Charge       = 0
  Multiplicity = 1
  Basis Set: 6-31G*
  Basis Set:

    Orbital Energies (a.u.)
    -----------------------

    Doubly Occupied:

       1A    -20.555372     2A    -11.265368     3A    -11.265064
       4A     -1.378254     5A     -0.974916     6A     -0.872960
       7A     -0.660925     8A     -0.653614     9A     -0.644666
      10A     -0.554560    11A     -0.528215    12A     -0.474132
      13A     -0.416305

  @DF-RHF Final Energy:  -154.06362760045027

   => Energetics <=

    Nuclear Repulsion Energy =             84.7027604418083229
    One-Electron Energy =                -377.0440735442547862
    Two-Electron Energy =                 138.2776855019961886
    DFT Exchange-Correlation Energy =       0.0000000000000000
    Empirical Dispersion Energy =           0.0000000000000000
    PCM Polarization Energy =               0.0000000000000000
    EFP Energy =                            0.0000000000000000
    Total Energy =                       -154.0636276004502747
    Molecular point group: c1
  Basis Set: 6-31G*
  Basis Set:

  -Total Gradient:
     Atom            X                  Y                   Z
    ------   -----------------  -----------------  -----------------
       1        0.000008523514     0.000072159747    -0.000088421430
       2       -0.000976007521     0.001621345406     0.001126635549
       3        0.000830729760    -0.002016270813    -0.001293837487
       4        0.000019162571    -0.000002202967     0.000001178695
       5       -0.000005610061     0.000022005495     0.000002524357
       6        0.001255858182    -0.001027784144    -0.001884073515
       7       -0.001198729627     0.001341156024     0.002039033853
       8       -0.000001291627    -0.000011159586     0.000053689941
       9        0.000067364810     0.000000750838     0.000043270036

  **** Optimization is complete! (in 4 steps) ****
    Final optimized geometry and variables:
    Molecular point group: c1

    Geometry (in Angstrom), charge = 0, multiplicity = 1:

    H            1.330213622588    -0.454396899823     1.495704002214
    C            0.376195866006    -0.540977093615     0.994044714402
    O            0.415474681869     0.283362185349    -0.126167690471
    H            0.216510590684    -1.583449394748     0.722512965008
    H           -0.412422464401    -0.239343506484     1.680935282537
    C           -0.755361274555     0.280508872138    -0.880205046503
    H           -0.761523160019     1.177035846021    -1.485440347441
    H           -1.638316999810     0.299445331414    -0.243680331788
    H           -0.813688730472    -0.595104398064    -1.523128188212

  Mulliken Charges: (a.u.)
   Center  Symbol    Alpha    Beta     Spin     Total
       1     H     0.41204  0.41204  0.00000  0.17593
       2     C     3.07999  3.07999  0.00000 -0.15998
       3     O     4.29629  4.29629  0.00000 -0.59258
       4     H     0.43057  0.43057  0.00000  0.13887
       5     H     0.42970  0.42970  0.00000  0.14059
       6     C     3.07937  3.07937  0.00000 -0.15874
       7     H     0.41287  0.41287  0.00000  0.17426
       8     H     0.43171  0.43171  0.00000  0.13657
       9     H     0.42746  0.42746  0.00000  0.14509

   Total alpha = 13.00000, Total beta = 13.00000, Total charge = -0.00000
