  ==> Input File <==

--------------------------------------------------------------------------
set {
	reference rhf
	basis 6-31G*
}

set_num_threads( 1 )
memory 2 gb

molecule MOL {
0 1

H	 -0.000158	 1.970498	 0.756846
O	 -0.000074	 1.880206	 -0.189275
C	 -0.000015	 0.544847	 -0.545111
C	 -1.278788	 -0.123820	 -0.051541
C	 1.278802	 -0.123718	 -0.051505
H	 -0.000001	 0.490777	 -1.623619
F	 -1.018640	 -0.835943	 1.023982
F	 -2.212903	 0.751192	 0.255287
F	 -1.766059	 -0.942740	 -0.969981
F	 2.323327	 0.466644	 -0.591854
F	 1.326242	 -1.401483	 -0.363667
F	 1.388946	 -0.015632	 1.262939

	symmetry c1
}
set optking {
	frozen_dihedral = ("
		6 3 2 1
	")
}

ee = energy('scf')
oeprop('DIPOLE', 'QUADRUPOLE', 'MULLIKEN_CHARGES')
f=open( 'psi4out.xyz', 'w' )
f.write( "12  " )
f.write( str(ee) + "\n" )
f.write( MOL.save_string_xyz() )
f.close()
--------------------------------------------------------------------------

    Molecular point group: c1

    Geometry (in Angstrom), charge = 0, multiplicity = 1:

       Center              X                  Y                   Z               Mass
    ------------   -----------------  -----------------  -----------------  -----------------
           H         -0.004776578919     1.979165464975     0.756622475907     1.007825032070
           O         -0.004692578919     1.888873464975    -0.189498524093    15.994914619560
           C         -0.004633578919     0.553514464975    -0.545334524093    12.000000000000
           C         -1.283406578919    -0.115152535025    -0.051764524093    12.000000000000
           C          1.274183421081    -0.115050535025    -0.051728524093    12.000000000000
           H         -0.004619578919     0.499444464975    -1.623842524093     1.007825032070
           F         -1.023258578919    -0.827275535025     1.023758475907    18.998403224000
           F         -2.217521578919     0.759859464975     0.255063475907    18.998403224000
           F         -1.770677578919    -0.934072535025    -0.970204524093    18.998403224000
           F          2.318708421081     0.475311464975    -0.592077524093    18.998403224000
           F          1.321623421081    -1.392815535025    -0.363890524093    18.998403224000
           F          1.384327421081    -0.006964535025     1.262715475907    18.998403224000

  Charge       = 0
  Multiplicity = 1
  Basis Set: 6-31G*
  Basis Set:

    Orbital Energies (a.u.)
    -----------------------

    Doubly Occupied:

       1A    -26.362531     2A    -26.361828     3A    -26.360648
       4A    -26.360248     5A    -26.358136     6A    -26.357993
       7A    -20.614913     8A    -11.525955     9A    -11.525285
      10A    -11.347464    11A     -1.764996    12A     -1.757977
      13A     -1.660980    14A     -1.659290    15A     -1.656139
      16A     -1.654076    17A     -1.434309    18A     -1.101297
      19A     -0.997036    20A     -0.937189    21A     -0.865600
      22A     -0.861120    23A     -0.850585    24A     -0.845291
      25A     -0.834664    26A     -0.811876    27A     -0.736722
      28A     -0.729919    29A     -0.726477    30A     -0.721569
      31A     -0.687756    32A     -0.684956    33A     -0.683723
      34A     -0.676503    35A     -0.667320    36A     -0.660743
      37A     -0.656865    38A     -0.650983    39A     -0.617881
      40A     -0.547437    41A     -0.506762

  @DF-RHF Final Energy:  -786.27127368389711

   => Energetics <=

    Nuclear Repulsion Energy =            671.6626080411781459
    One-Electron Energy =               -2430.2214156398340492
    Two-Electron Energy =                 972.2875339147609566
    DFT Exchange-Correlation Energy =       0.0000000000000000
    Empirical Dispersion Energy =           0.0000000000000000
    PCM Polarization Energy =               0.0000000000000000
    EFP Energy =                            0.0000000000000000
    Total Energy =                       -786.2712736838949468

  Mulliken Charges: (a.u.)
   Center  Symbol    Alpha    Beta     Spin     Total
       1     H     0.26793  0.26793  0.00000  0.46413
       2     O     4.35998  4.35998  0.00000 -0.71996
       3     C     3.06564  3.06564  0.00000 -0.13127
       4     C     2.43598  2.43598  0.00000  1.12804
       5     C     2.43697  2.43697  0.00000  1.12605
       6     H     0.37286  0.37286  0.00000  0.25427
       7     F     4.67662  4.67662  0.00000 -0.35324
       8     F     4.67291  4.67291  0.00000 -0.34582
       9     F     4.67890  4.67890  0.00000 -0.35781
      10     F     4.67480  4.67480  0.00000 -0.34960
      11     F     4.67508  4.67508  0.00000 -0.35016
      12     F     4.68232  4.68232  0.00000 -0.36464

   Total alpha = 41.00000, Total beta = 41.00000, Total charge = -0.00000
