  ==> Input File <==

--------------------------------------------------------------------------
set {
	reference rhf
	basis 6-31G*
}

set_num_threads( 4 )
memory 2 gb

molecule MOL {
0 1

H	 -3.407059	 -1.043082	 0.000000
O	 -3.119761	 -0.140267	 0.000000
C	 -1.777559	 -0.059267	 0.000000
C	 -1.061713	 0.387502	 -1.106781
C	 -1.114864	 -0.442055	 1.159472
H	 -1.583074	 0.682296	 -2.001538
C	 0.314759	 0.449700	 -1.049546
H	 -1.689168	 -0.783118	 1.999783
C	 0.262119	 -0.374217	 1.201326
H	 0.879732	 0.792431	 -1.895974
C	 0.993137	 0.069985	 0.104093
H	 0.776153	 -0.670738	 2.099606
C	 2.466550	 0.137170	 0.163697
O	 3.166323	 0.504718	 -0.728483
H	 2.905356	 -0.183052	 1.114526

	symmetry c1
}
set optking {
	frozen_dihedral = ("
		5 3 2 1
	")
}

ee = optimize('scf')
oeprop('DIPOLE', 'QUADRUPOLE', 'MULLIKEN_CHARGES')
f=open( 'psi4out.xyz', 'w' )
f.write( "15  " )
f.write( str(ee) + "\n" )
f.write( MOL.save_string_xyz() )
f.close()
--------------------------------------------------------------------------

    Molecular point group: c1
  Charge       = 0
  Multiplicity = 1
  Basis Set: 6-31G*
  Basis Set:
  @DF-RHF Final Energy:  -418.28335730630170
    Total Energy =                       -418.2833573063018093
    Molecular point group: c1
  Basis Set: 6-31G*
  Basis Set:
  Basis Set: 6-31G*
  Basis Set:
  @DF-RHF Final Energy:  -418.28467470143454
    Total Energy =                       -418.2846747014341418
  Basis Set: 6-31G*
  Basis Set:
  Basis Set: 6-31G*
  Basis Set:
  @DF-RHF Final Energy:  -418.28461217245325
    Total Energy =                       -418.2846121724530803
  Basis Set: 6-31G*
  Basis Set:
  Basis Set: 6-31G*
  Basis Set:
  @DF-RHF Final Energy:  -418.28450199802421
    Total Energy =                       -418.2845019980246661
  Basis Set: 6-31G*
  Basis Set:
  Basis Set: 6-31G*
  Basis Set:
  @DF-RHF Final Energy:  -418.28477429825671
    Total Energy =                       -418.2847742982561385
  Basis Set: 6-31G*
  Basis Set:
  Charge       = 0
  Multiplicity = 1
  Basis Set: 6-31G*
  Basis Set:

    Orbital Energies (a.u.)
    -----------------------

    Doubly Occupied:

       1A    -20.595229     2A    -20.560373     3A    -11.331097
       4A    -11.314069     5A    -11.260808     6A    -11.253125
       7A    -11.244369     8A    -11.244286     9A    -11.240626
      10A     -1.412798    11A     -1.401403    12A     -1.170634
      13A     -1.041547    14A     -1.036653    15A     -0.888726
      16A     -0.856256    17A     -0.798477    18A     -0.751244
      19A     -0.702023    20A     -0.676508    21A     -0.644204
      22A     -0.630297    23A     -0.617710    24A     -0.606968
      25A     -0.560161    26A     -0.552665    27A     -0.538020
      28A     -0.497824    29A     -0.482756    30A     -0.421676
      31A     -0.355055    32A     -0.339320

  @DF-RHF Final Energy:  -418.28477588265133

   => Energetics <=

    Nuclear Repulsion Energy =            400.8163730580208153
    One-Electron Energy =               -1364.1484845309996672
    Two-Electron Energy =                 545.0473355903277479
    DFT Exchange-Correlation Energy =       0.0000000000000000
    Empirical Dispersion Energy =           0.0000000000000000
    PCM Polarization Energy =               0.0000000000000000
    EFP Energy =                            0.0000000000000000
    Total Energy =                       -418.2847758826510471
    Molecular point group: c1
  Basis Set: 6-31G*
  Basis Set:

  -Total Gradient:
     Atom            X                  Y                   Z
    ------   -----------------  -----------------  -----------------
       1        0.000066668361    -0.000061260524    -0.002057674684
       2       -0.000163526393     0.000780341521     0.002797739174
       3        0.000144396697    -0.002026155597    -0.001466367649
       4       -0.000233274530    -0.000063050766     0.000104732742
       5        0.000149238276     0.001413016551     0.000593660603
       6        0.000002458311     0.000006011966    -0.000001028647
       7        0.000202040933    -0.000088953818     0.000115791937
       8        0.000003610791     0.000011407566    -0.000010841618
       9       -0.000155680841    -0.000103815350     0.000078081231
      10       -0.000021211610     0.000011071708    -0.000002100585
      11       -0.000007108563     0.000101364179    -0.000191495895
      12        0.000024883474     0.000014875806    -0.000000366763
      13        0.000018787217     0.000036139703     0.000060426817
      14       -0.000022010553    -0.000015212588    -0.000016803845
      15       -0.000009271565    -0.000015780359    -0.000003752816

  **** Optimization is complete! (in 6 steps) ****
    Final optimized geometry and variables:
    Molecular point group: c1

    Geometry (in Angstrom), charge = 0, multiplicity = 1:

    H           -3.450065439532    -1.056724101047     0.004285487485
    O           -3.129224966188    -0.164527982253    -0.006498480342
    C           -1.767132566787    -0.141842515230     0.047715224021
    C           -1.062325612497     0.316940902237    -1.057888177052
    C           -1.102196058367    -0.508365864685     1.207018905914
    H           -1.606519038824     0.608237518702    -1.936663645284
    C            0.313745783407     0.394035944187    -1.005274803133
    H           -1.666582677240    -0.835651906455     2.061065539563
    C            0.278833751642    -0.435550639260     1.248193023895
    H            0.875795711572     0.744822751779    -1.850257408272
    C            0.995949087919     0.013869715495     0.147898029953
    H            0.798829894909    -0.721937288483     2.146227954464
    C            2.472547599838     0.091630548190     0.206285281063
    O            3.166552871268     0.460007817301    -0.688827158277
    H            2.915115202165    -0.221932822290     1.157267858594

  Mulliken Charges: (a.u.)
   Center  Symbol    Alpha    Beta     Spin     Total
       1     H     0.26871  0.26871  0.00000  0.46258
       2     O     4.38351  4.38351  0.00000 -0.76701
       3     C     2.80727  2.80727  0.00000  0.38546
       4     C     3.12045  3.12045  0.00000 -0.24090
       5     C     3.12733  3.12733  0.00000 -0.25465
       6     H     0.38681  0.38681  0.00000  0.22638
       7     C     3.08441  3.08441  0.00000 -0.16882
       8     H     0.39162  0.39162  0.00000  0.21677
       9     C     3.09801  3.09801  0.00000 -0.19603
      10     H     0.37491  0.37491  0.00000  0.25017
      11     C     3.06105  3.06105  0.00000 -0.12209
      12     H     0.39008  0.39008  0.00000  0.21984
      13     C     2.83091  2.83091  0.00000  0.33818
      14     O     4.25111  4.25111  0.00000 -0.50222
      15     H     0.42383  0.42383  0.00000  0.15234

   Total alpha = 32.00000, Total beta = 32.00000, Total charge = -0.00000
