                              Psi4 1.0.54 Driver

  ==> Input File <==

--------------------------------------------------------------------------
set {
	reference rhf
	basis cc-pvtz
}

set_num_threads( 4 )
memory 2 gb

molecule MOL {
0 1

H	 -2.816458	 -0.841657	 -0.064679
N	 -1.878861	 -0.711874	 0.250184
C	 -1.341419	 0.551458	 -0.220231
H	 -1.333674	 -1.468530	 -0.105118
C	 0.168576	 0.542862	 -0.153243
H	 -1.638686	 0.796304	 -1.239165
H	 -1.704637	 1.344641	 0.423963
O	 0.653261	 -0.415203	 -1.044813
H	 0.555703	 1.526741	 -0.414564
H	 0.488133	 0.308783	 0.859683
C	 2.033381	 -0.570895	 -1.029041
H	 2.290713	 -1.329054	 -1.754548
H	 2.540978	 0.353809	 -1.295429
H	 2.386878	 -0.887594	 -0.050621

	symmetry c1
}
set optking {
	frozen_dihedral = ("
		6 3 2 4
	")
}

ee,wfn = optimize('scf', return_wfn=True)
oeprop( wfn, 'DIPOLE', 'QUADRUPOLE', 'MULLIKEN_CHARGES')
f=open( 'psi4out.xyz', 'w' )
f.write( "14  " )
f.write( str(ee) + "\n" )
f.write( MOL.save_string_xyz() )
f.close()
--------------------------------------------------------------------------

    Molecular point group: c1
  Charge       = 0
  Multiplicity = 1
  Basis Set: CC-PVTZ
  Basis Set:
  @DF-RHF Final Energy:  -248.22515415244456
    Total Energy =                       -248.2251541524447020
    Molecular point group: c1
  Basis Set: CC-PVTZ
  Basis Set:
  Basis Set: CC-PVTZ
  Basis Set:
  @DF-RHF Final Energy:  -248.22525606092861
    Total Energy =                       -248.2252560609286434
  Basis Set: CC-PVTZ
  Basis Set:
  Basis Set: CC-PVTZ
  Basis Set:
  @DF-RHF Final Energy:  -248.22526655769605
    Total Energy =                       -248.2252665576959885
  Basis Set: CC-PVTZ
  Basis Set:
  Charge       = 0
  Multiplicity = 1
  Basis Set: CC-PVTZ
  Basis Set:

    Orbital Energies (a.u.)
    -----------------------

    Doubly Occupied:

       1A    -20.553179     2A    -15.521341     3A    -11.266921
       4A    -11.265602     5A    -11.239697     6A     -1.387061
       7A     -1.174604     8A     -1.001503     9A     -0.909736
      10A     -0.817650    11A     -0.688674    12A     -0.673935
      13A     -0.651192    14A     -0.616339    15A     -0.600136
      16A     -0.547005    17A     -0.533049    18A     -0.499750
      19A     -0.474431    20A     -0.422502    21A     -0.380894

  @DF-RHF Final Energy:  -248.22526726734594

   => Energetics <=

    Nuclear Repulsion Energy =            194.7729475951537665
    One-Electron Energy =                -723.5460160251770958
    Two-Electron Energy =                 280.5478011626773878
    DFT Exchange-Correlation Energy =       0.0000000000000000
    Empirical Dispersion Energy =           0.0000000000000000
    PCM Polarization Energy =               0.0000000000000000
    EFP Energy =                            0.0000000000000000
    Total Energy =                       -248.2252672673459983
    Molecular point group: c1
  Basis Set: CC-PVTZ
  Basis Set:

  -Total Gradient:
     Atom            X                  Y                   Z
    ------   -----------------  -----------------  -----------------
       1       -0.000001899910     0.000012398646    -0.000013463358
       2       -0.002994796925     0.000308421875    -0.002618393132
       3        0.003452174453    -0.001757020095    -0.000876037968
       4        0.001859770837     0.000051379253     0.002413908661
       5       -0.000078629011    -0.000007337247    -0.000008244644
       6       -0.002251999913     0.001386444439     0.001086491122
       7       -0.000009975718    -0.000002214591     0.000023383108
       8        0.000010058329     0.000024124093     0.000018317912
       9        0.000018190471    -0.000007254501    -0.000016692102
      10       -0.000004778489    -0.000010944031    -0.000012319300
      11       -0.000002744049     0.000006818387    -0.000003246129
      12        0.000003382126    -0.000002224812     0.000001749426
      13       -0.000000906513    -0.000001507035     0.000001225741
      14        0.000002154309    -0.000001084380     0.000003320662

  **** Optimization is complete! (in 4 steps) ****
    Final optimized geometry and variables:
    Molecular point group: c1

    Geometry (in Angstrom), charge = 0, multiplicity = 1:

    H           -2.789108442865    -0.648993192155     0.393473804543
    N           -1.837352105293    -0.552182272720     0.672135193882
    C           -1.270736718359     0.706927254406     0.224525422547
    H           -1.320466923502    -1.316196218610     0.292982665236
    C            0.237957434119     0.675484848326     0.298747053780
    H           -1.576174584994     0.981408098696    -0.783771397619
    H           -1.616023927293     1.500363154761     0.880368784557
    O            0.722603646323    -0.291696441781    -0.582561570955
    H            0.637578496376     1.654196089722     0.039440954103
    H            0.548419222942     0.442890215437     1.315580182788
    C            2.103412664783    -0.444375361074    -0.566775050030
    H            2.360714503270    -1.213023771282    -1.281027836243
    H            2.608323168005     0.477178138526    -0.848089796518
    H            2.459459712379    -0.745217177929     0.415813405629

  Mulliken Charges: (a.u.)
   Center  Symbol    Alpha    Beta     Spin     Total
       1     H     0.42967  0.42967  0.00000  0.14065
       2     N     3.69677  3.69677  0.00000 -0.39353
       3     C     3.01510  3.01510  0.00000 -0.03020
       4     H     0.42231  0.42231  0.00000  0.15539
       5     C     2.97522  2.97522  0.00000  0.04956
       6     H     0.46487  0.46487  0.00000  0.07027
       7     H     0.46239  0.46239  0.00000  0.07522
       8     O     4.17934  4.17934  0.00000 -0.35868
       9     H     0.46744  0.46744  0.00000  0.06511
      10     H     0.46723  0.46723  0.00000  0.06554
      11     C     3.03253  3.03253  0.00000 -0.06506
      12     H     0.44716  0.44716  0.00000  0.10568
      13     H     0.47011  0.47011  0.00000  0.05978
      14     H     0.46987  0.46987  0.00000  0.06027

   Total alpha = 21.00000, Total beta = 21.00000, Total charge =  0.00000

*** Psi4 exiting successfully. Buy a developer a beer!
