  ==> Input File <==

--------------------------------------------------------------------------
set {
	reference rhf
	basis 6-31G*
}

set_num_threads( 1 )
memory 2 gb

molecule MOL {
0 1

H	 -2.324303	 -0.340251	 -0.364213
O	 -1.422729	 -0.573567	 -0.196946
C	 -0.731407	 0.539437	 0.309156
C	 0.680193	 0.672443	 -0.251532
H	 -1.319765	 1.404033	 0.030086
H	 -0.700012	 0.506517	 1.397677
C	 1.599139	 -0.492137	 0.118598
H	 0.616402	 0.758534	 -1.332349
H	 1.107032	 1.602637	 0.117369
H	 1.239738	 -1.428634	 -0.297334
H	 2.601428	 -0.335055	 -0.265730
H	 1.674954	 -0.608418	 1.197020

	symmetry c1
}
set optking {
	frozen_dihedral = ("
		8 4 3 2
	")
}

ee = energy('scf')
oeprop('DIPOLE', 'QUADRUPOLE', 'MULLIKEN_CHARGES')
f=open( 'psi4out.xyz', 'w' )
f.write( "12  " )
f.write( str(ee) + "\n" )
f.write( MOL.save_string_xyz() )
f.close()
--------------------------------------------------------------------------

    Molecular point group: c1

    Geometry (in Angstrom), charge = 0, multiplicity = 1:

       Center              X                  Y                   Z               Mass
    ------------   -----------------  -----------------  -----------------  -----------------
           H         -2.303269866886    -0.357473255600    -0.355068954090     1.007825032070
           O         -1.401695866886    -0.590789255600    -0.187801954090    15.994914619560
           C         -0.710373866886     0.522214744400     0.318300045910    12.000000000000
           C          0.701226133114     0.655220744400    -0.242387954090    12.000000000000
           H         -1.298731866886     1.386810744400     0.039230045910     1.007825032070
           H         -0.678978866886     0.489294744400     1.406821045910     1.007825032070
           C          1.620172133114    -0.509359255600     0.127742045910    12.000000000000
           H          0.637435133114     0.741311744400    -1.323204954090     1.007825032070
           H          1.128065133114     1.585414744400     0.126513045910     1.007825032070
           H          1.260771133114    -1.445856255600    -0.288189954090     1.007825032070
           H          2.622461133114    -0.352277255600    -0.256585954090     1.007825032070
           H          1.695987133114    -0.625640255600     1.206164045910     1.007825032070

  Charge       = 0
  Multiplicity = 1
  Basis Set: 6-31G*
  Basis Set:

    Orbital Energies (a.u.)
    -----------------------

    Doubly Occupied:

       1A    -20.550603     2A    -11.268289     3A    -11.216608
       4A    -11.204545     5A     -1.358829     6A     -1.046165
       7A     -0.917963     8A     -0.801211     9A     -0.700448
      10A     -0.643602    11A     -0.591026    12A     -0.573619
      13A     -0.538546    14A     -0.502184    15A     -0.481819
      16A     -0.462197    17A     -0.429174

  @DF-RHF Final Energy:  -193.10729638097777

   => Energetics <=

    Nuclear Repulsion Energy =            132.4567394517842160
    One-Electron Energy =                -524.5543615764969445
    Two-Electron Energy =                 198.9903257437349282
    DFT Exchange-Correlation Energy =       0.0000000000000000
    Empirical Dispersion Energy =           0.0000000000000000
    PCM Polarization Energy =               0.0000000000000000
    EFP Energy =                            0.0000000000000000
    Total Energy =                       -193.1072963809778287

  Mulliken Charges: (a.u.)
   Center  Symbol    Alpha    Beta     Spin     Total
       1     H     0.27887  0.27887  0.00000  0.44227
       2     O     4.37295  4.37295  0.00000 -0.74591
       3     C     2.99275  2.99275  0.00000  0.01450
       4     C     3.15806  3.15806  0.00000 -0.31613
       5     H     0.43314  0.43314  0.00000  0.13372
       6     H     0.42893  0.42893  0.00000  0.14215
       7     C     3.24233  3.24233  0.00000 -0.48466
       8     H     0.41791  0.41791  0.00000  0.16419
       9     H     0.42322  0.42322  0.00000  0.15357
      10     H     0.40821  0.40821  0.00000  0.18358
      11     H     0.42066  0.42066  0.00000  0.15868
      12     H     0.42298  0.42298  0.00000  0.15405

   Total alpha = 17.00000, Total beta = 17.00000, Total charge = -0.00000
