                              Psi4 1.0.54 Driver

  ==> Input File <==

--------------------------------------------------------------------------
set {
	reference rhf
	basis cc-pvtz
}

set_num_threads( 4 )
memory 2 gb

molecule MOL {
0 1

H	 1.128311	 0.207724	 1.465118
C	 1.134565	 0.093781	 0.372499
C	 0.062554	 0.862911	 -0.350953
O	 1.948932	 -0.587720	 -0.146651
C	 -1.255768	 0.088646	 -0.446635
H	 0.435087	 1.135628	 -1.329900
H	 -0.100344	 1.778296	 0.213502
C	 -1.169450	 -1.149616	 -1.334276
H	 -2.018096	 0.756388	 -0.830758
H	 -1.578598	 -0.197013	 0.550675
H	 -0.885139	 -0.882866	 -2.345992
H	 -2.124854	 -1.658357	 -1.379296
H	 -0.435856	 -1.857823	 -0.965065

	symmetry c1
}
set optking {
	frozen_dihedral = ("
		6 3 2 4
	")
}

ee,wfn = optimize('scf', return_wfn=True)
oeprop( wfn, 'DIPOLE', 'QUADRUPOLE', 'MULLIKEN_CHARGES')
f=open( 'psi4out.xyz', 'w' )
f.write( "13  " )
f.write( str(ee) + "\n" )
f.write( MOL.save_string_xyz() )
f.close()
--------------------------------------------------------------------------

    Molecular point group: c1
  Charge       = 0
  Multiplicity = 1
  Basis Set: CC-PVTZ
  Basis Set:
  @DF-RHF Final Energy:  -231.06919880105210
    Total Energy =                       -231.0691988010520959
    Molecular point group: c1
  Basis Set: CC-PVTZ
  Basis Set:
  Basis Set: CC-PVTZ
  Basis Set:
  @DF-RHF Final Energy:  -231.06724038784878
    Total Energy =                       -231.0672403878486989
  Basis Set: CC-PVTZ
  Basis Set:
  Basis Set: CC-PVTZ
  Basis Set:
  @DF-RHF Final Energy:  -231.06939268041540
    Total Energy =                       -231.0693926804154046
  Basis Set: CC-PVTZ
  Basis Set:
  Basis Set: CC-PVTZ
  Basis Set:
  @DF-RHF Final Energy:  -231.06944810107228
    Total Energy =                       -231.0694481010721688
  Basis Set: CC-PVTZ
  Basis Set:
  Basis Set: CC-PVTZ
  Basis Set:
  @DF-RHF Final Energy:  -231.06945043977379
    Total Energy =                       -231.0694504397737887
  Basis Set: CC-PVTZ
  Basis Set:
  Charge       = 0
  Multiplicity = 1
  Basis Set: CC-PVTZ
  Basis Set:

    Orbital Energies (a.u.)
    -----------------------

    Doubly Occupied:

       1A    -20.553035     2A    -11.322092     3A    -11.236803
       4A    -11.234511     5A    -11.213323     6A     -1.407930
       7A     -1.084155     8A     -0.972750     9A     -0.845848
      10A     -0.785624    11A     -0.677092    12A     -0.652911
      13A     -0.614439    14A     -0.594797    15A     -0.563153
      16A     -0.532183    17A     -0.504206    18A     -0.492491
      19A     -0.481935    20A     -0.411883

  @DF-RHF Final Energy:  -231.06945072878415

   => Energetics <=

    Nuclear Repulsion Energy =            175.4141590805490978
    One-Electron Energy =                -660.6048953920034137
    Two-Electron Energy =                 254.1212855826704526
    DFT Exchange-Correlation Energy =       0.0000000000000000
    Empirical Dispersion Energy =           0.0000000000000000
    PCM Polarization Energy =               0.0000000000000000
    EFP Energy =                            0.0000000000000000
    Total Energy =                       -231.0694507287838633
    Molecular point group: c1
  Basis Set: CC-PVTZ
  Basis Set:

  -Total Gradient:
     Atom            X                  Y                   Z
    ------   -----------------  -----------------  -----------------
       1        0.000001612266     0.000025122121     0.000027292332
       2        0.002099411288     0.002919158157    -0.000113612112
       3       -0.001521045042    -0.003035897685    -0.000900568478
       4       -0.001318279499    -0.001741849526     0.000190460190
       5       -0.000002444334     0.000013209270     0.000010241677
       6        0.000746718275     0.001802364775     0.000768757894
       7       -0.000025747728     0.000003442070     0.000022946835
       8       -0.000005193912    -0.000014840452    -0.000025025794
       9        0.000003142152     0.000014864349     0.000001375407
      10        0.000011428154     0.000005940246     0.000016521408
      11        0.000001564917    -0.000002766148    -0.000003424542
      12        0.000006037392     0.000021316467     0.000004956977
      13        0.000002796074    -0.000010063644     0.000000078207

  **** Optimization is complete! (in 6 steps) ****
    Final optimized geometry and variables:
    Molecular point group: c1

    Geometry (in Angstrom), charge = 0, multiplicity = 1:

    H            0.969326334644     0.345873134223     1.862424489283
    C            0.987325929711     0.273587474384     0.767228168415
    C           -0.105803123076     1.023491473393     0.052328656346
    O            1.802973252369    -0.396705153917     0.234166113098
    C           -1.399990416975     0.199036512338    -0.033449224301
    H            0.248008309771     1.298686301796    -0.933475157893
    H           -0.304718638694     1.937071539568     0.603965484468
    C           -1.310584812825    -1.000491237742    -0.971420031348
    H           -2.193726794340     0.858551855441    -0.365053771333
    H           -1.680147714690    -0.132801297306     0.962793164583
    H           -1.084259277029    -0.683781168598    -1.983322226412
    H           -2.252883254576    -1.535209307891    -0.992260477444
    H           -0.537879009502    -1.693705090014    -0.664974282726

  Mulliken Charges: (a.u.)
   Center  Symbol    Alpha    Beta     Spin     Total
       1     H     0.46013  0.46013  0.00000  0.07974
       2     C     2.90937  2.90937  0.00000  0.18127
       3     C     3.08826  3.08826  0.00000 -0.17652
       4     O     4.16734  4.16734  0.00000 -0.33468
       5     C     3.09786  3.09786  0.00000 -0.19571
       6     H     0.44393  0.44393  0.00000  0.11215
       7     H     0.44485  0.44485  0.00000  0.11030
       8     C     3.14157  3.14157  0.00000 -0.28313
       9     H     0.44459  0.44459  0.00000  0.11083
      10     H     0.45240  0.45240  0.00000  0.09519
      11     H     0.45384  0.45384  0.00000  0.09232
      12     H     0.44918  0.44918  0.00000  0.10164
      13     H     0.44670  0.44670  0.00000  0.10660

   Total alpha = 20.00000, Total beta = 20.00000, Total charge = -0.00000

*** Psi4 exiting successfully. Buy a developer a beer!
