  ==> Input File <==

--------------------------------------------------------------------------
set {
	reference rhf
	basis 6-31G*
}

set_num_threads( 4 )
memory 2 gb

molecule MOL {
0 1

O	 1.896399	 1.676523	 0.939899
C	 0.879763	 1.404146	 0.359411
C	 -0.181647	 2.466626	 0.143467
N	 0.623947	 0.147590	 -0.102813
H	 -1.123836	 2.186059	 0.601337
H	 0.176189	 3.377305	 0.599166
H	 -0.359815	 2.643820	 -0.911730
C	 1.665360	 -0.855771	 0.000151
C	 -0.466700	 -0.181134	 -0.994258
H	 2.465253	 -0.618490	 -0.692587
H	 1.257730	 -1.821716	 -0.242189
H	 2.081488	 -0.891645	 1.004627
H	 -0.797848	 -1.192605	 -0.791021
H	 -1.310669	 0.473935	 -0.847507
H	 -0.166720	 -0.130107	 -2.039352

	symmetry c1
}
set optking {
	frozen_dihedral = ("
		2 4 8 10
	")
}

ee = optimize('scf')
oeprop('DIPOLE', 'QUADRUPOLE', 'MULLIKEN_CHARGES')
f=open( 'psi4out.xyz', 'w' )
f.write( "15  " )
f.write( str(ee) + "\n" )
f.write( MOL.save_string_xyz() )
f.close()
--------------------------------------------------------------------------

    Molecular point group: c1
  Charge       = 0
  Multiplicity = 1
  Basis Set: 6-31G*
  Basis Set:
  @DF-RHF Final Energy:  -286.02864799187751
    Total Energy =                       -286.0286479918775058
    Molecular point group: c1
  Basis Set: 6-31G*
  Basis Set:
  Basis Set: 6-31G*
  Basis Set:
  @DF-RHF Final Energy:  -286.02925765321868
    Total Energy =                       -286.0292576532187923
  Basis Set: 6-31G*
  Basis Set:
  Basis Set: 6-31G*
  Basis Set:
  @DF-RHF Final Energy:  -286.02922171064012
    Total Energy =                       -286.0292217106402290
  Basis Set: 6-31G*
  Basis Set:
  Basis Set: 6-31G*
  Basis Set:
  @DF-RHF Final Energy:  -286.02939074276844
    Total Energy =                       -286.0293907427682143
  Basis Set: 6-31G*
  Basis Set:
  Basis Set: 6-31G*
  Basis Set:
  @DF-RHF Final Energy:  -286.02940578900768
    Total Energy =                       -286.0294057890076829
  Basis Set: 6-31G*
  Basis Set:
  Basis Set: 6-31G*
  Basis Set:
  @DF-RHF Final Energy:  -286.02941344602471
    Total Energy =                       -286.0294134460248188
  Basis Set: 6-31G*
  Basis Set:
  Basis Set: 6-31G*
  Basis Set:
  @DF-RHF Final Energy:  -286.02941816607085
    Total Energy =                       -286.0294181660706272
  Basis Set: 6-31G*
  Basis Set:
  Charge       = 0
  Multiplicity = 1
  Basis Set: 6-31G*
  Basis Set:

    Orbital Energies (a.u.)
    -----------------------

    Doubly Occupied:

       1A    -20.515541     2A    -15.582885     3A    -11.340020
       4A    -11.266646     5A    -11.248191     6A    -11.228463
       7A     -1.385239     8A     -1.242169     9A     -1.013814
      10A     -0.973067    11A     -0.917718    12A     -0.737226
      13A     -0.680026    14A     -0.658014    15A     -0.651219
      16A     -0.588192    17A     -0.575913    18A     -0.569750
      19A     -0.564105    20A     -0.545610    21A     -0.530122
      22A     -0.499935    23A     -0.411135    24A     -0.367395

  @DF-RHF Final Energy:  -286.02941891842477

   => Energetics <=

    Nuclear Repulsion Energy =            252.6142006159265350
    One-Electron Energy =                -889.1024452373180793
    Two-Electron Energy =                 350.4588257029666920
    DFT Exchange-Correlation Energy =       0.0000000000000000
    Empirical Dispersion Energy =           0.0000000000000000
    PCM Polarization Energy =               0.0000000000000000
    EFP Energy =                            0.0000000000000000
    Total Energy =                       -286.0294189184248808
    Molecular point group: c1
  Basis Set: 6-31G*
  Basis Set:

  -Total Gradient:
     Atom            X                  Y                   Z
    ------   -----------------  -----------------  -----------------
       1        0.000015433604    -0.000029986744    -0.000013014987
       2        0.000224560731     0.000192634284    -0.000746289796
       3       -0.000045268479    -0.000029974784     0.000064372060
       4       -0.000233786042    -0.000037974882     0.001225331835
       5       -0.000004906494     0.000017858048    -0.000017610066
       6        0.000004647612    -0.000005048706    -0.000009268666
       7        0.000011982661    -0.000002720131    -0.000018917260
       8       -0.000452305101    -0.000647804614    -0.001159680649
       9        0.000020705449    -0.000007803706     0.000036370607
      10        0.000440511744     0.000554827364     0.000652101376
      11        0.000004438321     0.000000519209     0.000006315198
      12        0.000011899298    -0.000008624390    -0.000000077710
      13       -0.000012673023    -0.000004651686     0.000008800034
      14        0.000001333047     0.000017110125    -0.000026336618
      15        0.000013426669    -0.000008359390    -0.000002095362

  **** Optimization is complete! (in 8 steps) ****
    Final optimized geometry and variables:
    Molecular point group: c1

    Geometry (in Angstrom), charge = 0, multiplicity = 1:

    O            1.181238653735     0.889542863247     0.844955985763
    C            0.140047299823     0.629612972499     0.304135490571
    C           -0.914767522806     1.702038919892     0.110959589725
    N           -0.139610913696    -0.633464090509    -0.125949403240
    H           -1.860215153114     1.418338724948     0.559670320104
    H           -0.551855676708     2.602268522730     0.583398790223
    H           -1.087959024329     1.901019976623    -0.941491637169
    C            0.937659365638    -1.603753598987    -0.032770974057
    C           -1.208702290795    -0.942738500917    -1.051961321985
    H            1.729780515008    -1.397491061752    -0.746816176196
    H            0.538000840663    -2.590996020350    -0.223496965077
    H            1.367356481268    -1.581255669684     0.956576090647
    H           -1.555478564030    -1.952601330560    -0.871922976207
    H           -2.049163649835    -0.281088476463    -0.913128080944
    H           -0.886054822652    -0.876247929391    -2.089613296076

  Mulliken Charges: (a.u.)
   Center  Symbol    Alpha    Beta     Spin     Total
       1     O     4.30292  4.30292  0.00000 -0.60585
       2     C     2.62635  2.62635  0.00000  0.74730
       3     C     3.29800  3.29800  0.00000 -0.59600
       4     N     3.82168  3.82168  0.00000 -0.64336
       5     H     0.40652  0.40652  0.00000  0.18696
       6     H     0.39070  0.39070  0.00000  0.21861
       7     H     0.40760  0.40760  0.00000  0.18480
       8     C     3.13849  3.13849  0.00000 -0.27699
       9     C     3.14290  3.14290  0.00000 -0.28580
      10     H     0.41474  0.41474  0.00000  0.17051
      11     H     0.41964  0.41964  0.00000  0.16071
      12     H     0.39603  0.39603  0.00000  0.20795
      13     H     0.40973  0.40973  0.00000  0.18055
      14     H     0.40756  0.40756  0.00000  0.18488
      15     H     0.41713  0.41713  0.00000  0.16573

   Total alpha = 24.00000, Total beta = 24.00000, Total charge = -0.00000
