  ==> Input File <==

--------------------------------------------------------------------------
set {
	reference rhf
	basis cc-pvtz
}

set_num_threads( 4 )
memory 2 gb

molecule MOL {
0 1

O	 -1.510770	 1.240811	 -0.054933
C	 -1.081510	 0.147522	 0.122720
C	 0.327029	 -0.064006	 0.641890
C	 -1.903028	 -1.084121	 -0.174656
C	 1.349460	 -0.017068	 -0.500215
H	 0.399029	 -1.014606	 1.159950
H	 0.538021	 0.726928	 1.350471
C	 1.660359	 1.407479	 -0.944906
H	 2.268493	 -0.505851	 -0.189882
H	 0.961066	 -0.587039	 -1.336045
H	 2.375450	 1.411699	 -1.758944
H	 2.079625	 1.990705	 -0.132000
H	 0.764170	 1.912747	 -1.287571
H	 -1.341891	 -1.779207	 -0.789259
H	 -2.820449	 -0.808163	 -0.671328
H	 -2.133314	 -1.593056	 0.755831

	symmetry c1
}
set optking {
	frozen_dihedral = ("
		9 5 3 2
	")
}

ee = optimize('scf')
oeprop('DIPOLE', 'QUADRUPOLE', 'MULLIKEN_CHARGES')
f=open( 'psi4out.xyz', 'w' )
f.write( "16  " )
f.write( str(ee) + "\n" )
f.write( MOL.save_string_xyz() )
f.close()
--------------------------------------------------------------------------

    Molecular point group: c1
  Charge       = 0
  Multiplicity = 1
  Basis Set: CC-PVTZ
  Basis Set:
  @DF-RHF Final Energy:  -270.12735473251405
    Total Energy =                       -270.1273547325145046
    Molecular point group: c1
  Basis Set: CC-PVTZ
  Basis Set:
  Basis Set: CC-PVTZ
  Basis Set:
  @DF-RHF Final Energy:  -270.12769986556725
    Total Energy =                       -270.1276998655674788
  Basis Set: CC-PVTZ
  Basis Set:
  Basis Set: CC-PVTZ
  Basis Set:
  @DF-RHF Final Energy:  -270.12678338704058
    Total Energy =                       -270.1267833870406321
  Basis Set: CC-PVTZ
  Basis Set:
  Basis Set: CC-PVTZ
  Basis Set:
  @DF-RHF Final Energy:  -270.12779563933123
    Total Energy =                       -270.1277956393313389
  Basis Set: CC-PVTZ
  Basis Set:
  Basis Set: CC-PVTZ
  Basis Set:
  @DF-RHF Final Energy:  -270.12783060856589
    Total Energy =                       -270.1278306085661143
  Basis Set: CC-PVTZ
  Basis Set:
  Basis Set: CC-PVTZ
  Basis Set:
  @DF-RHF Final Energy:  -270.12784990699606
    Total Energy =                       -270.1278499069956069
  Basis Set: CC-PVTZ
  Basis Set:
  Basis Set: CC-PVTZ
  Basis Set:
  @DF-RHF Final Energy:  -270.12785149676267
    Total Energy =                       -270.1278514967627871
  Basis Set: CC-PVTZ
  Basis Set:
  Charge       = 0
  Multiplicity = 1
  Basis Set: CC-PVTZ
  Basis Set:

    Orbital Energies (a.u.)
    -----------------------

    Doubly Occupied:

       1A    -20.537937     2A    -11.320107     3A    -11.232736
       4A    -11.228907     5A    -11.227234     6A    -11.210383
       7A     -1.397701     8A     -1.082527     9A     -1.012443
      10A     -0.948121    11A     -0.831923    12A     -0.734304
      13A     -0.659475    14A     -0.647106    15A     -0.620312
      16A     -0.591158    17A     -0.588655    18A     -0.562425
      19A     -0.540175    20A     -0.510276    21A     -0.498377
      22A     -0.488341    23A     -0.474094    24A     -0.399815

  @DF-RHF Final Energy:  -270.12785181911602

   => Energetics <=

    Nuclear Repulsion Energy =            241.4212247376090090
    One-Electron Energy =                -844.4090904093832251
    Two-Electron Energy =                 332.8600138526585397
    DFT Exchange-Correlation Energy =       0.0000000000000000
    Empirical Dispersion Energy =           0.0000000000000000
    PCM Polarization Energy =               0.0000000000000000
    EFP Energy =                            0.0000000000000000
    Total Energy =                       -270.1278518191156763
    Molecular point group: c1
  Basis Set: CC-PVTZ
  Basis Set:

  -Total Gradient:
     Atom            X                  Y                   Z
    ------   -----------------  -----------------  -----------------
       1       -0.000001968504     0.000003456980     0.000004960630
       2       -0.000175246298    -0.001449025574    -0.000185776679
       3        0.000088662522     0.001597057945     0.000067997021
       4       -0.000028765857     0.000001555471     0.000050607593
       5        0.000820341761     0.001576255133     0.000731359608
       6       -0.000010286756     0.000000168896     0.000001290432
       7       -0.000001455764    -0.000008230880     0.000003035858
       8       -0.000012440333     0.000015101400    -0.000011572391
       9       -0.000721561471    -0.001745895383    -0.000630596510
      10        0.000010500162     0.000012044434     0.000009731753
      11        0.000003434484     0.000002068812    -0.000011028569
      12       -0.000000594075    -0.000008955199     0.000002502750
      13        0.000004980593     0.000006735168    -0.000002110788
      14        0.000008772690     0.000001702945    -0.000015284693
      15        0.000007421100     0.000006992604    -0.000003611232
      16        0.000008205745    -0.000011032755    -0.000011504782

  **** Optimization is complete! (in 8 steps) ****
    Final optimized geometry and variables:
    Molecular point group: c1

    Geometry (in Angstrom), charge = 0, multiplicity = 1:

    O           -1.382866147961     0.957983468715     0.267404415567
    C           -0.889055026999    -0.121733120670     0.318933791866
    C            0.531940460874    -0.323668579347     0.805389748076
    C           -1.653294729982    -1.356503319697    -0.100415396138
    C            1.545894285713    -0.304660979823    -0.352972080328
    H            0.595766299888    -1.276192845099     1.320210488886
    H            0.761392838777     0.461356962290     1.513849476969
    C            1.862056098571     1.095522994563    -0.867280012776
    H            2.454736370362    -0.792176266747    -0.019065820693
    H            1.173371687965    -0.915186219566    -1.170674974651
    H            2.559970564427     1.050071584337    -1.695288749829
    H            2.309364324781     1.701283601188    -0.087124049898
    H            0.968627233744     1.604174134692    -1.206300749411
    H           -1.053208483768    -1.991552331564    -0.741090026043
    H           -2.563831155581    -1.073344797210    -0.605682337125
    H           -1.899382706566    -1.934010810222     0.785098383530

  Mulliken Charges: (a.u.)
   Center  Symbol    Alpha    Beta     Spin     Total
       1     O     4.17618  4.17618  0.00000 -0.35237
       2     C     2.85873  2.85873  0.00000  0.28253
       3     C     3.10469  3.10469  0.00000 -0.20939
       4     C     3.15412  3.15412  0.00000 -0.30824
       5     C     3.09642  3.09642  0.00000 -0.19285
       6     H     0.44270  0.44270  0.00000  0.11459
       7     H     0.44015  0.44015  0.00000  0.11969
       8     C     3.14250  3.14250  0.00000 -0.28501
       9     H     0.44553  0.44553  0.00000  0.10894
      10     H     0.45359  0.45359  0.00000  0.09283
      11     H     0.45016  0.45016  0.00000  0.09968
      12     H     0.45453  0.45453  0.00000  0.09094
      13     H     0.44516  0.44516  0.00000  0.10967
      14     H     0.45093  0.45093  0.00000  0.09814
      15     H     0.43644  0.43644  0.00000  0.12712
      16     H     0.44814  0.44814  0.00000  0.10372

   Total alpha = 24.00000, Total beta = 24.00000, Total charge = -0.00000
