  ==> Input File <==

--------------------------------------------------------------------------
set {
	reference rhf
	basis 6-31G*
}

set_num_threads( 1 )
memory 2 gb

molecule MOL {
0 1

H	 -3.420663	 1.227371	 -1.044276
O	 -3.452007	 0.283848	 -0.965577
C	 -3.181085	 -0.079926	 0.364119
C	 -1.765924	 0.277073	 0.805136
H	 -3.327791	 -1.152017	 0.410903
H	 -3.905698	 0.375695	 1.036898
C	 -0.677594	 -0.417312	 -0.014550
H	 -1.637766	 1.358238	 0.744969
H	 -1.659588	 0.017670	 1.857098
C	 0.738335	 -0.034840	 0.421385
H	 -0.814977	 -0.178223	 -1.064632
H	 -0.802730	 -1.495410	 0.071702
C	 0.752527	 1.000545	 1.549154
H	 1.266539	 -0.932326	 0.734335
H	 1.286360	 0.359491	 -0.433469
C	 2.148619	 1.482084	 1.960498
H	 0.243825	 0.590460	 2.420216
H	 0.168416	 1.863559	 1.236363
C	 3.030259	 0.406300	 2.597526
H	 2.035964	 2.302132	 2.665566
H	 2.656158	 1.897284	 1.092042
H	 2.542459	 -0.036068	 3.462107
H	 3.973098	 0.828587	 2.931541
H	 3.261255	 -0.394104	 1.902431

	symmetry c1
}
set optking {
	frozen_dihedral = ("
		20 16 13 17,
		17 13 10 7,
		11 7 4 3,
		1 2 3 5,
		7 4 3 2
	")
}

ee = energy('scf')
oeprop('DIPOLE', 'QUADRUPOLE', 'MULLIKEN_CHARGES')
f=open( 'psi4out.xyz', 'w' )
f.write( "24  " )
f.write( str(ee) + "\n" )
f.write( MOL.save_string_xyz() )
f.close()
--------------------------------------------------------------------------

    Molecular point group: c1

    Geometry (in Angstrom), charge = 0, multiplicity = 1:

       Center              X                  Y                   Z               Mass
    ------------   -----------------  -----------------  -----------------  -----------------
           H         -3.069359011131     0.858516303797    -1.861703066654     1.007825032070
           O         -3.100703011131    -0.085006696203    -1.783004066654    15.994914619560
           C         -2.829781011131    -0.448780696203    -0.453308066654    12.000000000000
           C         -1.414620011131    -0.091781696203    -0.012291066654    12.000000000000
           H         -2.976487011131    -1.520871696203    -0.406524066654     1.007825032070
           H         -3.554394011131     0.006840303797     0.219470933346     1.007825032070
           C         -0.326290011131    -0.786166696203    -0.831977066654    12.000000000000
           H         -1.286462011131     0.989383303797    -0.072458066654     1.007825032070
           H         -1.308284011131    -0.351184696203     1.039670933346     1.007825032070
           C          1.089638988869    -0.403694696203    -0.396042066654    12.000000000000
           H         -0.463673011131    -0.547077696203    -1.882059066654     1.007825032070
           H         -0.451426011131    -1.864264696203    -0.745725066654     1.007825032070
           C          1.103830988869     0.631690303797     0.731726933346    12.000000000000
           H          1.617842988869    -1.301180696203    -0.083092066654     1.007825032070
           H          1.637663988869    -0.009363696203    -1.250896066654     1.007825032070
           C          2.499922988869     1.113229303797     1.143070933346    12.000000000000
           H          0.595128988869     0.221605303797     1.602788933346     1.007825032070
           H          0.519719988869     1.494704303797     0.418935933346     1.007825032070
           C          3.381562988869     0.037445303797     1.780098933346    12.000000000000
           H          2.387267988869     1.933277303797     1.848138933346     1.007825032070
           H          3.007461988869     1.528429303797     0.274614933346     1.007825032070
           H          2.893762988869    -0.404922696203     2.644679933346     1.007825032070
           H          4.324401988869     0.459732303797     2.114113933346     1.007825032070
           H          3.612558988869    -0.762958696203     1.085003933346     1.007825032070

  Charge       = 0
  Multiplicity = 1
  Basis Set: 6-31G*
  Basis Set:

    Orbital Energies (a.u.)
    -----------------------

    Doubly Occupied:

       1A    -20.552484     2A    -11.265995     3A    -11.215088
       4A    -11.214254     5A    -11.212196     6A    -11.210920
       7A    -11.209646     8A    -11.207582     9A     -1.359048
      10A     -1.093405    11A     -1.044744    12A     -0.982463
      13A     -0.916678    14A     -0.855874    15A     -0.814192
      16A     -0.757224    17A     -0.675090    18A     -0.656794
      19A     -0.630437    20A     -0.619012    21A     -0.599511
      22A     -0.578065    23A     -0.559585    24A     -0.543381
      25A     -0.523751    26A     -0.512562    27A     -0.497401
      28A     -0.483741    29A     -0.474734    30A     -0.451457
      31A     -0.440136    32A     -0.435191    33A     -0.424533

  @DF-RHF Final Energy:  -349.23167968976264

   => Energetics <=

    Nuclear Repulsion Energy =            392.9806612571066466
    One-Electron Energy =               -1252.3907770815108051
    Two-Electron Energy =                 510.1784361346426522
    DFT Exchange-Correlation Energy =       0.0000000000000000
    Empirical Dispersion Energy =           0.0000000000000000
    PCM Polarization Energy =               0.0000000000000000
    EFP Energy =                            0.0000000000000000
    Total Energy =                       -349.2316796897614495

  Mulliken Charges: (a.u.)
   Center  Symbol    Alpha    Beta     Spin     Total
       1     H     0.28361  0.28361  0.00000  0.43279
       2     O     4.36871  4.36871  0.00000 -0.73742
       3     C     2.99294  2.99294  0.00000  0.01412
       4     C     3.17596  3.17596  0.00000 -0.35193
       5     H     0.41721  0.41721  0.00000  0.16559
       6     H     0.42881  0.42881  0.00000  0.14239
       7     C     3.15551  3.15551  0.00000 -0.31102
       8     H     0.42651  0.42651  0.00000  0.14698
       9     H     0.42054  0.42054  0.00000  0.15891
      10     C     3.15697  3.15697  0.00000 -0.31394
      11     H     0.40947  0.40947  0.00000  0.18106
      12     H     0.42088  0.42088  0.00000  0.15823
      13     C     3.15955  3.15955  0.00000 -0.31909
      14     H     0.41874  0.41874  0.00000  0.16252
      15     H     0.42120  0.42120  0.00000  0.15761
      16     C     3.14874  3.14874  0.00000 -0.29749
      17     H     0.42312  0.42312  0.00000  0.15376
      18     H     0.42183  0.42183  0.00000  0.15634
      19     C     3.24116  3.24116  0.00000 -0.48232
      20     H     0.42233  0.42233  0.00000  0.15535
      21     H     0.42390  0.42390  0.00000  0.15220
      22     H     0.42302  0.42302  0.00000  0.15395
      23     H     0.41955  0.41955  0.00000  0.16089
      24     H     0.41974  0.41974  0.00000  0.16053

   Total alpha = 33.00000, Total beta = 33.00000, Total charge = -0.00000
