  ==> Input File <==

--------------------------------------------------------------------------
set {
	reference rhf
	basis 6-31G*
}

set_num_threads( 4 )
memory 2 gb

molecule MOL {
0 1

H	 2.844641	 -0.422267	 0.157376
O	 2.016064	 -0.864478	 0.000222
C	 1.050492	 0.053836	 0.000068
C	 -0.318135	 -0.576402	 0.000164
O	 1.285279	 1.218255	 -0.000078
C	 -1.454360	 0.441875	 -0.000474
H	 -0.374042	 -1.230163	 -0.866135
H	 -0.374274	 -1.229227	 0.867154
C	 -2.826123	 -0.230780	 0.000056
H	 -1.357605	 1.085198	 -0.868380
H	 -1.357504	 1.086451	 0.866496
H	 -2.959731	 -0.858053	 -0.876869
H	 -3.619374	 0.509403	 -0.000080
H	 -2.959371	 -0.857318	 0.877556

	symmetry c1
}
set optking {
	frozen_dihedral = ("
		1 2 3 5
	")
}

ee = optimize('scf')
oeprop('DIPOLE', 'QUADRUPOLE', 'MULLIKEN_CHARGES')
f=open( 'psi4out.xyz', 'w' )
f.write( "14  " )
f.write( str(ee) + "\n" )
f.write( MOL.save_string_xyz() )
f.close()
--------------------------------------------------------------------------

    Molecular point group: c1
  Charge       = 0
  Multiplicity = 1
  Basis Set: 6-31G*
  Basis Set:
  @DF-RHF Final Energy:  -305.88022008660232
    Total Energy =                       -305.8802200866023213
    Molecular point group: c1
  Basis Set: 6-31G*
  Basis Set:
  Basis Set: 6-31G*
  Basis Set:
  @DF-RHF Final Energy:  -305.87874757781606
    Total Energy =                       -305.8787475778161138
  Basis Set: 6-31G*
  Basis Set:
  Basis Set: 6-31G*
  Basis Set:
  @DF-RHF Final Energy:  -305.88027669849532
    Total Energy =                       -305.8802766984953223
  Basis Set: 6-31G*
  Basis Set:
  Basis Set: 6-31G*
  Basis Set:
  @DF-RHF Final Energy:  -305.88028278988304
    Total Energy =                       -305.8802827898831538
  Basis Set: 6-31G*
  Basis Set:
  Charge       = 0
  Multiplicity = 1
  Basis Set: 6-31G*
  Basis Set:

    Orbital Energies (a.u.)
    -----------------------

    Doubly Occupied:

       1A    -20.612667     2A    -20.552448     3A    -11.381778
       4A    -11.241310     5A    -11.225608     6A    -11.217117
       7A     -1.474723     8A     -1.366406     9A     -1.083130
      10A     -0.979632    11A     -0.857235    12A     -0.791327
      13A     -0.700195    14A     -0.688726    15A     -0.667153
      16A     -0.616386    17A     -0.592671    18A     -0.572876
      19A     -0.545406    20A     -0.505168    21A     -0.491606
      22A     -0.482460    23A     -0.479118    24A     -0.444721

  @DF-RHF Final Energy:  -305.88028452530261

   => Energetics <=

    Nuclear Repulsion Energy =            239.9456063222125692
    One-Electron Energy =                -892.5120496777856260
    Two-Electron Energy =                 346.6861588302705286
    DFT Exchange-Correlation Energy =       0.0000000000000000
    Empirical Dispersion Energy =           0.0000000000000000
    PCM Polarization Energy =               0.0000000000000000
    EFP Energy =                            0.0000000000000000
    Total Energy =                       -305.8802845253024998
    Molecular point group: c1
  Basis Set: 6-31G*
  Basis Set:

  -Total Gradient:
     Atom            X                  Y                   Z
    ------   -----------------  -----------------  -----------------
       1       -0.000344216862    -0.000585161359     0.003891475477
       2        0.000359662341     0.000790130722    -0.006417508328
       3        0.000066770173    -0.000202303109     0.006108093431
       4        0.000024210688     0.000010295917     0.000130031439
       5       -0.000089017240     0.000001469947    -0.003587010369
       6       -0.000003806446    -0.000004680170    -0.000036046367
       7       -0.000016467902    -0.000007328831    -0.000057623944
       8        0.000012872469    -0.000001680673    -0.000059380291
       9       -0.000005446478     0.000004393586     0.000005794214
      10        0.000002954136    -0.000010889784     0.000015715978
      11       -0.000003174464     0.000006589452     0.000009303222
      12       -0.000001354042     0.000000058461    -0.000001767411
      13       -0.000004962427    -0.000001332674     0.000001618274
      14        0.000001976045     0.000000438515    -0.000002695324

  **** Optimization is complete! (in 5 steps) ****
    Final optimized geometry and variables:
    Molecular point group: c1

    Geometry (in Angstrom), charge = 0, multiplicity = 1:

    H            2.850274390388    -0.426513420852     0.107148058465
    O            2.016339301110    -0.863812628930    -0.033792537138
    C            1.050650270118     0.054316341135     0.013673530982
    C           -0.317864065250    -0.575987343117     0.006300872017
    O            1.284856812827     1.218484961088     0.030110771503
    C           -1.454464459225     0.441737688986    -0.008098802459
    H           -0.366966619734    -1.234778305446    -0.856575458407
    H           -0.380288228273    -1.224075763777     0.876498131552
    C           -2.826007503503    -0.231379124632    -0.012251850028
    H           -1.352300241791     1.079484282732    -0.879547363613
    H           -1.363406337433     1.091912033957     0.855260682279
    H           -2.953681073490    -0.864377575587    -0.885920956925
    H           -3.619520555688     0.508462183988    -0.022354465268
    H           -2.964802738731    -0.852276863788     0.868403602531

  Mulliken Charges: (a.u.)
   Center  Symbol    Alpha    Beta     Spin     Total
       1     H     0.26768  0.26768  0.00000  0.46463
       2     O     4.35154  4.35154  0.00000 -0.70309
       3     C     2.62371  2.62371  0.00000  0.75258
       4     C     3.20937  3.20937  0.00000 -0.41873
       5     O     4.27819  4.27819  0.00000 -0.55639
       6     C     3.15242  3.15242  0.00000 -0.30485
       7     H     0.39838  0.39838  0.00000  0.20323
       8     H     0.39938  0.39938  0.00000  0.20124
       9     C     3.24292  3.24292  0.00000 -0.48584
      10     H     0.41023  0.41023  0.00000  0.17953
      11     H     0.41002  0.41002  0.00000  0.17996
      12     H     0.42075  0.42075  0.00000  0.15849
      13     H     0.41446  0.41446  0.00000  0.17109
      14     H     0.42094  0.42094  0.00000  0.15813

   Total alpha = 24.00000, Total beta = 24.00000, Total charge = -0.00000
