                              Psi4 1.0.54 Driver

  ==> Input File <==

--------------------------------------------------------------------------
set {
	reference rhf
	basis cc-pvtz
}

set_num_threads( 4 )
memory 2 gb

molecule MOL {
0 1

H	 2.611965	 -0.541414	 -0.466108
O	 1.675515	 -0.612943	 -0.465627
C	 1.135873	 0.113391	 0.608264
C	 0.027642	 1.012027	 0.090274
H	 1.902972	 0.727968	 1.072615
H	 0.756163	 -0.561896	 1.370018
C	 -1.138737	 0.285728	 -0.581921
H	 0.464661	 1.708096	 -0.618252
H	 -0.340737	 1.603071	 0.925246
C	 -1.933983	 -0.631436	 0.343653
H	 -0.763151	 -0.285569	 -1.422081
H	 -1.808359	 1.035291	 -0.992333
H	 -2.789188	 -1.049673	 -0.174718
H	 -1.335629	 -1.461368	 0.700418
H	 -2.305435	 -0.092167	 1.209725

	symmetry c1
}
set optking {
	frozen_dihedral = ("
		1 2 3 4
	")
}

ee,wfn = optimize('scf', return_wfn=True)
oeprop( wfn, 'DIPOLE', 'QUADRUPOLE', 'MULLIKEN_CHARGES')
f=open( 'psi4out.xyz', 'w' )
f.write( "15  " )
f.write( str(ee) + "\n" )
f.write( MOL.save_string_xyz() )
f.close()
--------------------------------------------------------------------------

    Molecular point group: c1
  Charge       = 0
  Multiplicity = 1
  Basis Set: CC-PVTZ
  Basis Set:
  @DF-RHF Final Energy:  -232.23570592890795
    Total Energy =                       -232.2357059289079189
    Molecular point group: c1
  Basis Set: CC-PVTZ
  Basis Set:
  Basis Set: CC-PVTZ
  Basis Set:
  @DF-RHF Final Energy:  -232.23590723401949
    Total Energy =                       -232.2359072340195212
  Basis Set: CC-PVTZ
  Basis Set:
  Basis Set: CC-PVTZ
  Basis Set:
  @DF-RHF Final Energy:  -232.23595423680459
    Total Energy =                       -232.2359542368046164
  Basis Set: CC-PVTZ
  Basis Set:
  Basis Set: CC-PVTZ
  Basis Set:
  @DF-RHF Final Energy:  -232.23595201526339
    Total Energy =                       -232.2359520152634786
  Basis Set: CC-PVTZ
  Basis Set:
  Basis Set: CC-PVTZ
  Basis Set:
  @DF-RHF Final Energy:  -232.23595760724811
    Total Energy =                       -232.2359576072481673
  Basis Set: CC-PVTZ
  Basis Set:
  Charge       = 0
  Multiplicity = 1
  Basis Set: CC-PVTZ
  Basis Set:

    Orbital Energies (a.u.)
    -----------------------

    Doubly Occupied:

       1A    -20.545231     2A    -11.265713     3A    -11.210663
       4A    -11.207101     5A    -11.201829     6A     -1.362753
       7A     -1.064952     8A     -0.970691     9A     -0.870319
      10A     -0.778511    11A     -0.702906    12A     -0.645921
      13A     -0.614111    14A     -0.573607    15A     -0.564178
      16A     -0.532827    17A     -0.509883    18A     -0.481835
      19A     -0.467251    20A     -0.452272    21A     -0.429064

  @DF-RHF Final Energy:  -232.23595765670248

   => Energetics <=

    Nuclear Repulsion Energy =            191.7094755165531694
    One-Electron Energy =                -694.9876308855048137
    Two-Electron Energy =                 271.0421977122492763
    DFT Exchange-Correlation Energy =       0.0000000000000000
    Empirical Dispersion Energy =           0.0000000000000000
    PCM Polarization Energy =               0.0000000000000000
    EFP Energy =                            0.0000000000000000
    Total Energy =                       -232.2359576567023396
    Molecular point group: c1
  Basis Set: CC-PVTZ
  Basis Set:

  -Total Gradient:
     Atom            X                  Y                   Z
    ------   -----------------  -----------------  -----------------
       1       -0.000049517754     0.000706199746    -0.000531451901
       2        0.000171637259    -0.000720616017     0.000629599766
       3       -0.000490903026    -0.000366913505     0.000009854631
       4        0.000364022584     0.000384236030    -0.000109043333
       5        0.000000080605     0.000004363449     0.000005595478
       6        0.000003221658    -0.000007748735    -0.000007996708
       7        0.000002326870     0.000008798246     0.000003504186
       8       -0.000000944113    -0.000000476253     0.000001210667
       9       -0.000001463791    -0.000003966253    -0.000000386675
      10        0.000000071118    -0.000005335643    -0.000000641399
      11       -0.000000136346    -0.000000987495     0.000002405218
      12        0.000002717318    -0.000000294143    -0.000001104095
      13        0.000000160070    -0.000000832396     0.000000210682
      14       -0.000000990503     0.000001476092    -0.000000494395
      15       -0.000000281945     0.000002096879    -0.000001262120

  **** Optimization is complete! (in 6 steps) ****
    Final optimized geometry and variables:
    Molecular point group: c1

    Geometry (in Angstrom), charge = 0, multiplicity = 1:

    H            2.604093150985    -0.596117661439    -0.445849420331
    O            1.668747655926    -0.656779730454    -0.439025936780
    C            1.131454605133     0.111978493972     0.610841348271
    C            0.023006421104     1.016143974219     0.097347635526
    H            1.903253782460     0.723956265835     1.067177850909
    H            0.758304599050    -0.554848724647     1.380676896262
    C           -1.135915970986     0.289388829955    -0.587191066374
    H            0.458761455087     1.721353309855    -0.603504288054
    H           -0.353967267734     1.596939680305     0.936409203990
    C           -1.938010677433    -0.630055626532     0.330255037248
    H           -0.749796439696    -0.281176202925    -1.423356802675
    H           -1.802819832647     1.037260120322    -1.004966730737
    H           -2.783919056969    -1.054163625366    -0.198429395275
    H           -1.339479986027    -1.455355838442     0.696811918433
    H           -2.323918356831    -0.090376165800     1.189699353169

  Mulliken Charges: (a.u.)
   Center  Symbol    Alpha    Beta     Spin     Total
       1     H     0.39268  0.39268  0.00000  0.21464
       2     O     4.20359  4.20359  0.00000 -0.40718
       3     C     2.97848  2.97848  0.00000  0.04305
       4     C     3.08847  3.08847  0.00000 -0.17693
       5     H     0.46312  0.46312  0.00000  0.07376
       6     H     0.46756  0.46756  0.00000  0.06488
       7     C     3.08885  3.08885  0.00000 -0.17770
       8     H     0.45274  0.45274  0.00000  0.09452
       9     H     0.45693  0.45693  0.00000  0.08614
      10     C     3.15420  3.15420  0.00000 -0.30840
      11     H     0.44685  0.44685  0.00000  0.10631
      12     H     0.45050  0.45050  0.00000  0.09900
      13     H     0.44699  0.44699  0.00000  0.10602
      14     H     0.45161  0.45161  0.00000  0.09678
      15     H     0.45745  0.45745  0.00000  0.08510

   Total alpha = 21.00000, Total beta = 21.00000, Total charge =  0.00000

*** Psi4 exiting successfully. Buy a developer a beer!
