  ==> Input File <==

--------------------------------------------------------------------------
set {
	reference rhf
	basis 6-31G*
}

set_num_threads( 4 )
memory 2 gb

molecule MOL {
0 1

H	 -3.161837	 0.500524	 -0.000234
C	 -2.367097	 -0.232926	 -0.000000
O	 -1.158440	 0.455814	 -0.000122
H	 -2.468853	 -0.861886	 -0.882833
H	 -2.468942	 -0.861421	 0.883154
C	 -0.117914	 -0.210599	 -0.649023
C	 1.134103	 0.645960	 -0.575388
H	 -0.385385	 -0.401605	 -1.689155
H	 0.057953	 -1.179367	 -0.179483
C	 2.331011	 -0.008102	 -1.264225
H	 0.919925	 1.608420	 -1.029767
H	 1.360245	 0.836087	 0.469318
H	 2.134049	 -0.184939	 -2.317961
H	 3.209979	 0.624054	 -1.196113
H	 2.577123	 -0.963234	 -0.808643

	symmetry c1
}
set optking {
	frozen_dihedral = ("
		6 3 2 4
	")
}

ee = optimize('scf')
oeprop('DIPOLE', 'QUADRUPOLE', 'MULLIKEN_CHARGES')
f=open( 'psi4out.xyz', 'w' )
f.write( "15  " )
f.write( str(ee) + "\n" )
f.write( MOL.save_string_xyz() )
f.close()
--------------------------------------------------------------------------

    Molecular point group: c1
  Charge       = 0
  Multiplicity = 1
  Basis Set: 6-31G*
  Basis Set:
  @DF-RHF Final Energy:  -232.13729270235461
    Total Energy =                       -232.1372927023546708
    Molecular point group: c1
  Basis Set: 6-31G*
  Basis Set:
  Basis Set: 6-31G*
  Basis Set:
  @DF-RHF Final Energy:  -232.13739624217294
    Total Energy =                       -232.1373962421729971
  Basis Set: 6-31G*
  Basis Set:
  Basis Set: 6-31G*
  Basis Set:
  @DF-RHF Final Energy:  -232.13743798800814
    Total Energy =                       -232.1374379880084007
  Basis Set: 6-31G*
  Basis Set:
  Charge       = 0
  Multiplicity = 1
  Basis Set: 6-31G*
  Basis Set:

    Orbital Energies (a.u.)
    -----------------------

    Doubly Occupied:

       1A    -20.551380     2A    -11.266598     3A    -11.263736
       4A    -11.213997     5A    -11.212820     6A     -1.375584
       7A     -1.057069     8A     -0.955304     9A     -0.877374
      10A     -0.808998    11A     -0.672575    12A     -0.653052
      13A     -0.630239    14A     -0.607059    15A     -0.565151
      16A     -0.543084    17A     -0.502330    18A     -0.489356
      19A     -0.478354    20A     -0.461004    21A     -0.410429

  @DF-RHF Final Energy:  -232.13743822521303

   => Energetics <=

    Nuclear Repulsion Energy =            189.5568268549128561
    One-Electron Energy =                -690.1975382193818405
    Two-Electron Energy =                 268.5032731392560663
    DFT Exchange-Correlation Energy =       0.0000000000000000
    Empirical Dispersion Energy =           0.0000000000000000
    PCM Polarization Energy =               0.0000000000000000
    EFP Energy =                            0.0000000000000000
    Total Energy =                       -232.1374382252129180
    Molecular point group: c1
  Basis Set: 6-31G*
  Basis Set:

  -Total Gradient:
     Atom            X                  Y                   Z
    ------   -----------------  -----------------  -----------------
       1       -0.000016595561    -0.000000230107    -0.000004659132
       2       -0.001954517985     0.003507046321    -0.002840946075
       3        0.001170427378    -0.002250430010     0.003456958265
       4        0.001336296971    -0.002322438779     0.001517713970
       5        0.000011743433    -0.000004881871    -0.000000714961
       6       -0.000582183710     0.001074679927    -0.002096941357
       7       -0.000001542269    -0.000015007654    -0.000014927744
       8       -0.000001225225     0.000006370689     0.000014685086
       9       -0.000003713903     0.000002985887    -0.000008766058
      10        0.000031544142     0.000016779574    -0.000012397703
      11        0.000006050792     0.000000361642     0.000002548443
      12       -0.000012646165    -0.000010113525    -0.000006877925
      13        0.000000962982    -0.000002581584     0.000002602728
      14        0.000016810909    -0.000006806351    -0.000009713632
      15       -0.000001411784     0.000004265841     0.000001436093

  **** Optimization is complete! (in 4 steps) ****
    Final optimized geometry and variables:
    Molecular point group: c1

    Geometry (in Angstrom), charge = 0, multiplicity = 1:

    H           -3.106820628745     0.391069849607     0.514580811714
    C           -2.310871033146    -0.341596640928     0.495950227927
    O           -1.091171044819     0.333601893310     0.486409673319
    H           -2.426343736904    -0.977768824009    -0.378126191255
    H           -2.396474583320    -0.974790676583     1.376791796404
    C           -0.046037707313    -0.334886889242    -0.154559583919
    C            1.202531706748     0.526250336353    -0.077479783885
    H           -0.309069647717    -0.527989148099    -1.194699494528
    H            0.133968591099    -1.301682061156     0.317539925980
    C            2.403274986978    -0.122311060410    -0.765114691502
    H            0.984756596314     1.488397529714    -0.530887685334
    H            1.426367973430     0.716055229007     0.967727369611
    H            2.208437713788    -0.299390135520    -1.819222417736
    H            3.279569030368     0.513461241677    -0.695719367943
    H            2.652871043319    -1.076729396570    -0.309911085443

  Mulliken Charges: (a.u.)
   Center  Symbol    Alpha    Beta     Spin     Total
       1     H     0.41454  0.41454  0.00000  0.17092
       2     C     3.07713  3.07713  0.00000 -0.15426
       3     O     4.30836  4.30836  0.00000 -0.61671
       4     H     0.43112  0.43112  0.00000  0.13776
       5     H     0.42704  0.42704  0.00000  0.14592
       6     C     2.98159  2.98159  0.00000  0.03682
       7     C     3.15993  3.15993  0.00000 -0.31985
       8     H     0.43269  0.43269  0.00000  0.13462
       9     H     0.43375  0.43375  0.00000  0.13250
      10     C     3.24793  3.24793  0.00000 -0.49587
      11     H     0.41434  0.41434  0.00000  0.17132
      12     H     0.41434  0.41434  0.00000  0.17132
      13     H     0.42096  0.42096  0.00000  0.15809
      14     H     0.41542  0.41542  0.00000  0.16917
      15     H     0.42087  0.42087  0.00000  0.15826

   Total alpha = 21.00000, Total beta = 21.00000, Total charge = -0.00000
