  ==> Input File <==

--------------------------------------------------------------------------
set {
	reference rhf
	basis 6-31G*
}

set_num_threads( 4 )
memory 2 gb

molecule MOL {
0 1

H	 -3.301617	 0.570527	 0.000000
C	 -2.250981	 0.344174	 0.000000
C	 -1.813665	 -0.976045	 0.000000
C	 -1.315303	 1.358057	 0.000000
H	 -2.528860	 -1.779366	 0.000000
C	 -0.467298	 -1.270142	 0.000000
H	 -1.635074	 2.385107	 0.000000
C	 0.047081	 1.078114	 0.000000
H	 -0.115948	 -2.285222	 0.000000
C	 0.472063	 -0.241155	 0.000000
H	 0.749976	 1.888426	 0.000000
O	 1.765256	 -0.628444	 0.000000
C	 2.256078	 -1.408961	 -1.051170
H	 1.736796	 -2.359451	 -1.116346
H	 3.297968	 -1.589267	 -0.832610
H	 2.176553	 -0.891063	 -2.001322

	symmetry c1
}
set optking {
	frozen_dihedral = ("
		13 12 10 8
	")
}

ee = optimize('scf')
oeprop('DIPOLE', 'QUADRUPOLE', 'MULLIKEN_CHARGES')
f=open( 'psi4out.xyz', 'w' )
f.write( "16  " )
f.write( str(ee) + "\n" )
f.write( MOL.save_string_xyz() )
f.close()
--------------------------------------------------------------------------

    Molecular point group: c1
  Charge       = 0
  Multiplicity = 1
  Basis Set: 6-31G*
  Basis Set:
  @DF-RHF Final Energy:  -344.57629364740791
    Total Energy =                       -344.5762936474083062
    Molecular point group: c1
  Basis Set: 6-31G*
  Basis Set:
  Basis Set: 6-31G*
  Basis Set:
  @DF-RHF Final Energy:  -344.57970514261814
    Total Energy =                       -344.5797051426184794
  Basis Set: 6-31G*
  Basis Set:
  Basis Set: 6-31G*
  Basis Set:
  @DF-RHF Final Energy:  -344.58021734653988
    Total Energy =                       -344.5802173465398255
  Basis Set: 6-31G*
  Basis Set:
  Basis Set: 6-31G*
  Basis Set:
  @DF-RHF Final Energy:  -344.58027608901739
    Total Energy =                       -344.5802760890174454
  Basis Set: 6-31G*
  Basis Set:
  Basis Set: 6-31G*
  Basis Set:
  @DF-RHF Final Energy:  -344.58028401995927
    Total Energy =                       -344.5802840199593220
  Basis Set: 6-31G*
  Basis Set:
  Charge       = 0
  Multiplicity = 1
  Basis Set: 6-31G*
  Basis Set:

    Orbital Energies (a.u.)
    -----------------------

    Doubly Occupied:

       1A    -20.573826     2A    -11.287347     3A    -11.276103
       4A    -11.233691     5A    -11.232571     6A    -11.226194
       7A    -11.224905     8A    -11.223114     9A     -1.401975
      10A     -1.147309    11A     -1.018052    12A     -1.014436
      13A     -0.934874    14A     -0.833635    15A     -0.806017
      16A     -0.715191    17A     -0.666134    18A     -0.662042
      19A     -0.639535    20A     -0.613651    21A     -0.594295
      22A     -0.583316    23A     -0.529563    24A     -0.508382
      25A     -0.505034    26A     -0.482371    27A     -0.440854
      28A     -0.335037    29A     -0.316990

  @DF-RHF Final Energy:  -344.58028501406920

   => Energetics <=

    Nuclear Repulsion Energy =            347.9305685253467573
    One-Electron Energy =               -1156.9688173337306125
    Two-Electron Energy =                 464.4579637943146508
    DFT Exchange-Correlation Energy =       0.0000000000000000
    Empirical Dispersion Energy =           0.0000000000000000
    PCM Polarization Energy =               0.0000000000000000
    EFP Energy =                            0.0000000000000000
    Total Energy =                       -344.5802850140692044
    Molecular point group: c1
  Basis Set: 6-31G*
  Basis Set:

  -Total Gradient:
     Atom            X                  Y                   Z
    ------   -----------------  -----------------  -----------------
       1       -0.000007159912    -0.000027208706    -0.000011266034
       2        0.000032313006     0.000076924351    -0.000040697629
       3        0.000026190685    -0.000055965801     0.000059508181
       4       -0.000035568292    -0.000041490621     0.000050225708
       5       -0.000029904022     0.000010381401    -0.000006967578
       6       -0.000014595382    -0.000091706385    -0.000031809921
       7        0.000016246701    -0.000001910482    -0.000006467704
       8        0.000022033371    -0.000054266927     0.000141469141
       9       -0.000006885048     0.000024843603    -0.000006705538
      10       -0.000117756086     0.000140030514    -0.000199357389
      11        0.000016029155    -0.000004852080    -0.000004505869
      12        0.000135656192     0.000162307345     0.000002994422
      13       -0.000033941247    -0.000154070965    -0.000006669510
      14       -0.000009113955     0.000010372759     0.000027335798
      15        0.000005574409     0.000008002627     0.000011496880
      16        0.000000880425    -0.000001390632     0.000021417041

  **** Optimization is complete! (in 6 steps) ****
    Final optimized geometry and variables:
    Molecular point group: c1

    Geometry (in Angstrom), charge = 0, multiplicity = 1:

    H           -3.213087399320     0.883831981989     0.149768482466
    C           -2.170296994778     0.622621849145     0.147832168348
    C           -1.783913039564    -0.708138478682     0.157357776600
    C           -1.200895320224     1.612689947222     0.142220638266
    H           -2.528562433227    -1.484088930378     0.171620853476
    C           -0.442018127815    -1.051966356174     0.158803993945
    H           -1.489282007426     2.648793985912     0.139400535636
    C            0.143103281479     1.278147124757     0.135785854309
    H           -0.145862866642    -2.084501609427     0.187893800203
    C            0.522044878585    -0.054502463048     0.142517272153
    H            0.906529928052     2.034100622682     0.132517936010
    O            1.851821676263    -0.343369361751     0.178382412583
    C            2.371146764205    -1.087037214270    -0.893702302248
    H            1.963020571579    -2.091057859664    -0.923331601428
    H            3.438780442001    -1.146880389646    -0.739501033825
    H            2.170056858555    -0.595446207066    -1.840067866778

  Mulliken Charges: (a.u.)
   Center  Symbol    Alpha    Beta     Spin     Total
       1     H     0.40014  0.40014  0.00000  0.19972
       2     C     3.10709  3.10709  0.00000 -0.21418
       3     C     3.09544  3.09544  0.00000 -0.19089
       4     C     3.09587  3.09587  0.00000 -0.19173
       5     H     0.39873  0.39873  0.00000  0.20254
       6     C     3.12588  3.12588  0.00000 -0.25175
       7     H     0.39837  0.39837  0.00000  0.20325
       8     C     3.12222  3.12222  0.00000 -0.24443
       9     H     0.39634  0.39634  0.00000  0.20731
      10     C     2.79613  2.79613  0.00000  0.40773
      11     H     0.39333  0.39333  0.00000  0.21335
      12     O     4.33187  4.33187  0.00000 -0.66374
      13     C     3.08360  3.08360  0.00000 -0.16721
      14     H     0.42426  0.42426  0.00000  0.15149
      15     H     0.40942  0.40942  0.00000  0.18115
      16     H     0.42131  0.42131  0.00000  0.15739

   Total alpha = 29.00000, Total beta = 29.00000, Total charge =  0.00000
