  ==> Input File <==

--------------------------------------------------------------------------
set {
	reference rhf
	basis 6-31G*
}

set_num_threads( 4 )
memory 2 gb

molecule MOL {
0 1

H	 1.690057	 -1.636218	 0.452907
O	 2.016064	 -0.864478	 0.000222
C	 1.050492	 0.053836	 0.000068
C	 -0.318135	 -0.576402	 0.000164
O	 1.285279	 1.218255	 -0.000078
C	 -1.454360	 0.441875	 -0.000474
H	 -0.374042	 -1.230163	 -0.866135
H	 -0.374274	 -1.229227	 0.867154
C	 -2.826123	 -0.230780	 0.000056
H	 -1.357605	 1.085198	 -0.868380
H	 -1.357504	 1.086451	 0.866496
H	 -2.959731	 -0.858053	 -0.876869
H	 -3.619374	 0.509403	 -0.000080
H	 -2.959371	 -0.857318	 0.877556

	symmetry c1
}
set optking {
	frozen_dihedral = ("
		1 2 3 5
	")
}

ee = optimize('scf')
oeprop('DIPOLE', 'QUADRUPOLE', 'MULLIKEN_CHARGES')
f=open( 'psi4out.xyz', 'w' )
f.write( "14  " )
f.write( str(ee) + "\n" )
f.write( MOL.save_string_xyz() )
f.close()
--------------------------------------------------------------------------

    Molecular point group: c1
  Charge       = 0
  Multiplicity = 1
  Basis Set: 6-31G*
  Basis Set:
  @DF-RHF Final Energy:  -305.86530694223325
    Total Energy =                       -305.8653069422333033
    Molecular point group: c1
  Basis Set: 6-31G*
  Basis Set:
  Basis Set: 6-31G*
  Basis Set:
  @DF-RHF Final Energy:  -305.86669913796123
    Total Energy =                       -305.8666991379611204
  Basis Set: 6-31G*
  Basis Set:
  Basis Set: 6-31G*
  Basis Set:
  @DF-RHF Final Energy:  -305.86686009333118
    Total Energy =                       -305.8668600933312973
  Basis Set: 6-31G*
  Basis Set:
  Basis Set: 6-31G*
  Basis Set:
  @DF-RHF Final Energy:  -305.86677252789821
    Total Energy =                       -305.8667725278982061
  Basis Set: 6-31G*
  Basis Set:
  Basis Set: 6-31G*
  Basis Set:
  @DF-RHF Final Energy:  -305.86687053462492
    Total Energy =                       -305.8668705346249226
  Basis Set: 6-31G*
  Basis Set:
  Charge       = 0
  Multiplicity = 1
  Basis Set: 6-31G*
  Basis Set:

    Orbital Energies (a.u.)
    -----------------------

    Doubly Occupied:

       1A    -20.608842     2A    -20.551535     3A    -11.381234
       4A    -11.252027     5A    -11.231078     6A    -11.222118
       7A     -1.466477     8A     -1.370601     9A     -1.087654
      10A     -0.978406    11A     -0.852667    12A     -0.815814
      13A     -0.719642    14A     -0.672731    15A     -0.658661
      16A     -0.624401    17A     -0.583964    18A     -0.580788
      19A     -0.551786    20A     -0.508475    21A     -0.495930
      22A     -0.488622    23A     -0.477688    24A     -0.441592

  @DF-RHF Final Energy:  -305.86687074511798

   => Energetics <=

    Nuclear Repulsion Energy =            239.7395475971209748
    One-Electron Energy =                -891.9673699075447075
    Two-Electron Energy =                 346.3609515653058679
    DFT Exchange-Correlation Energy =       0.0000000000000000
    Empirical Dispersion Energy =           0.0000000000000000
    PCM Polarization Energy =               0.0000000000000000
    EFP Energy =                            0.0000000000000000
    Total Energy =                       -305.8668707451179216
    Molecular point group: c1
  Basis Set: 6-31G*
  Basis Set:

  -Total Gradient:
     Atom            X                  Y                   Z
    ------   -----------------  -----------------  -----------------
       1        0.002039251967     0.002354200088     0.005387572426
       2       -0.002631777470    -0.002936324781    -0.004409390068
       3        0.000611767158     0.000519070373    -0.006358847687
       4        0.000002057397     0.000010766906    -0.000021146616
       5       -0.000010070924     0.000059165648     0.005387577735
       6        0.000007074594    -0.000000050064     0.000002648610
       7       -0.000006328340    -0.000002231641     0.000009484077
       8        0.000001041959     0.000003388058     0.000005953694
       9       -0.000011584358     0.000001442206     0.000001936369
      10        0.000002660838    -0.000004330959     0.000000670233
      11        0.000000580943    -0.000003923479    -0.000006019939
      12       -0.000000621813     0.000001756002    -0.000000769455
      13       -0.000004709135    -0.000001434170     0.000001146339
      14        0.000000657180    -0.000001494188    -0.000000815717

  **** Optimization is complete! (in 6 steps) ****
    Final optimized geometry and variables:
    Molecular point group: c1

    Geometry (in Angstrom), charge = 0, multiplicity = 1:

    H            1.844316306798    -1.633829823121     0.439353701179
    O            2.076840328953    -0.827507946698    -0.001938714801
    C            1.062102343698     0.052969580424    -0.003801110163
    C           -0.319123476509    -0.569078110448    -0.003446912379
    O            1.277087467949     1.213980348974    -0.005836457321
    C           -1.448881506268     0.456606994773    -0.006184883865
    H           -0.384755749239    -1.222572405034    -0.870503615985
    H           -0.399505545193    -1.218393075454     0.868223439993
    C           -2.826223308256    -0.204277865244    -0.009231629579
    H           -1.341544998656     1.097287383186    -0.874157054214
    H           -1.346651330055     1.100311330061     0.860361487738
    H           -2.963471496319    -0.830676242191    -0.886208059363
    H           -3.612176188812     0.543413670917    -0.012510828202
    H           -2.969060476643    -0.828362186617     0.868701299909

  Mulliken Charges: (a.u.)
   Center  Symbol    Alpha    Beta     Spin     Total
       1     H     0.26932  0.26932  0.00000  0.46136
       2     O     4.35543  4.35543  0.00000 -0.71086
       3     C     2.61145  2.61145  0.00000  0.77710
       4     C     3.22995  3.22995  0.00000 -0.45989
       5     O     4.25850  4.25850  0.00000 -0.51700
       6     C     3.15065  3.15065  0.00000 -0.30130
       7     H     0.39957  0.39957  0.00000  0.20086
       8     H     0.41134  0.41134  0.00000  0.17732
       9     C     3.24368  3.24368  0.00000 -0.48735
      10     H     0.40676  0.40676  0.00000  0.18648
      11     H     0.40827  0.40827  0.00000  0.18345
      12     H     0.42063  0.42063  0.00000  0.15875
      13     H     0.41274  0.41274  0.00000  0.17452
      14     H     0.42172  0.42172  0.00000  0.15656

   Total alpha = 24.00000, Total beta = 24.00000, Total charge =  0.00000
