                              Psi4 1.0.54 Driver

  ==> Input File <==

--------------------------------------------------------------------------
set {
	reference rhf
	basis cc-pvtz
}

set_num_threads( 4 )
memory 2 gb

molecule MOL {
0 1

H	 2.910917	 0.369334	 1.346912
O	 2.212608	 0.910799	 1.028739
C	 1.135873	 0.113391	 0.608264
C	 0.027642	 1.012027	 0.090274
H	 0.755359	 -0.476514	 1.438317
H	 1.456979	 -0.581266	 -0.162971
C	 -1.138737	 0.285728	 -0.581921
H	 0.464661	 1.708096	 -0.618252
H	 -0.340737	 1.603071	 0.925246
C	 -1.933983	 -0.631436	 0.343653
H	 -0.763151	 -0.285569	 -1.422081
H	 -1.808359	 1.035291	 -0.992333
H	 -2.789188	 -1.049673	 -0.174718
H	 -1.335629	 -1.461368	 0.700418
H	 -2.305435	 -0.092167	 1.209725

	symmetry c1
}
set optking {
	frozen_dihedral = ("
		2 3 4 8
	")
}

ee,wfn = optimize('scf', return_wfn=True)
oeprop( wfn, 'DIPOLE', 'QUADRUPOLE', 'MULLIKEN_CHARGES')
f=open( 'psi4out.xyz', 'w' )
f.write( "15  " )
f.write( str(ee) + "\n" )
f.write( MOL.save_string_xyz() )
f.close()
--------------------------------------------------------------------------

    Molecular point group: c1
  Charge       = 0
  Multiplicity = 1
  Basis Set: CC-PVTZ
  Basis Set:
  @DF-RHF Final Energy:  -232.23701586935519
    Total Energy =                       -232.2370158693552185
    Molecular point group: c1
  Basis Set: CC-PVTZ
  Basis Set:
  Basis Set: CC-PVTZ
  Basis Set:
  @DF-RHF Final Energy:  -232.23723843699705
    Total Energy =                       -232.2372384369970177
  Basis Set: CC-PVTZ
  Basis Set:
  Basis Set: CC-PVTZ
  Basis Set:
  @DF-RHF Final Energy:  -232.23726812045160
    Total Energy =                       -232.2372681204516311
  Basis Set: CC-PVTZ
  Basis Set:
  Basis Set: CC-PVTZ
  Basis Set:
  @DF-RHF Final Energy:  -232.23726972916822
    Total Energy =                       -232.2372697291683608
  Basis Set: CC-PVTZ
  Basis Set:
  Charge       = 0
  Multiplicity = 1
  Basis Set: CC-PVTZ
  Basis Set:

    Orbital Energies (a.u.)
    -----------------------

    Doubly Occupied:

       1A    -20.545513     2A    -11.264919     3A    -11.216490
       4A    -11.209573     5A    -11.209004     6A     -1.363306
       7A     -1.070899     8A     -0.972005     9A     -0.870488
      10A     -0.784746    11A     -0.699292    12A     -0.652535
      13A     -0.617349    14A     -0.586105    15A     -0.558666
      16A     -0.538317    17A     -0.509054    18A     -0.474619
      19A     -0.473742    20A     -0.456856    21A     -0.436541

  @DF-RHF Final Energy:  -232.23727020414415

   => Energetics <=

    Nuclear Repulsion Energy =            188.3982967553373840
    One-Electron Energy =                -688.2510961104267153
    Two-Electron Energy =                 267.6155291509452354
    DFT Exchange-Correlation Energy =       0.0000000000000000
    Empirical Dispersion Energy =           0.0000000000000000
    PCM Polarization Energy =               0.0000000000000000
    EFP Energy =                            0.0000000000000000
    Total Energy =                       -232.2372702041441244
    Molecular point group: c1
  Basis Set: CC-PVTZ
  Basis Set:

  -Total Gradient:
     Atom            X                  Y                   Z
    ------   -----------------  -----------------  -----------------
       1       -0.000012269780    -0.000017518947    -0.000021444125
       2        0.000243409923    -0.000009899357    -0.000596233231
       3       -0.000274866212     0.000135626923     0.000923975184
       4       -0.000148050642    -0.000701542539    -0.000940206777
       5       -0.000004319000     0.000016252417    -0.000016616223
       6        0.000009617448     0.000002381937     0.000011058380
       7        0.000045917580    -0.000012138004    -0.000007024897
       8        0.000170602262     0.000535432441     0.000620566618
       9       -0.000016299686     0.000013734117     0.000010998027
      10        0.000006234575     0.000009675647     0.000011337672
      11       -0.000004707326     0.000017355115    -0.000013560514
      12       -0.000012448021     0.000000255233     0.000012448016
      13        0.000009080533    -0.000000587375    -0.000003124381
      14       -0.000001759487     0.000011994173    -0.000001055064
      15       -0.000010142167    -0.000001021784     0.000008881317

  **** Optimization is complete! (in 5 steps) ****
    Final optimized geometry and variables:
    Molecular point group: c1

    Geometry (in Angstrom), charge = 0, multiplicity = 1:

    H            2.770821783978     0.074304522059     1.053743345846
    O            2.081889781847     0.600299582032     0.692086228355
    C            1.019897162134    -0.216844563951     0.274235362392
    C           -0.093768161637     0.679586354707    -0.234331705674
    H            0.671928301758    -0.833041294804     1.097996020938
    H            1.346358097686    -0.884356009543    -0.521337760459
    C           -1.247667205479    -0.065228410056    -0.904349209750
    H            0.345015930378     1.379183299609    -0.937329394582
    H           -0.467648800070     1.273015537549     0.594850053620
    C           -2.043542937599    -0.978891882791     0.025550141778
    H           -0.866361808987    -0.645527222507    -1.740423628687
    H           -1.922069054341     0.669487077530    -1.331558743306
    H           -2.889157846471    -1.413980650366    -0.494490551637
    H           -1.441672561387    -1.796179508876     0.405515165795
    H           -2.427699682908    -0.427721519394     0.877708759232

  Mulliken Charges: (a.u.)
   Center  Symbol    Alpha    Beta     Spin     Total
       1     H     0.39689  0.39689  0.00000  0.20622
       2     O     4.19609  4.19609  0.00000 -0.39219
       3     C     2.96261  2.96261  0.00000  0.07478
       4     C     3.09055  3.09055  0.00000 -0.18110
       5     H     0.47248  0.47248  0.00000  0.05504
       6     H     0.47525  0.47525  0.00000  0.04951
       7     C     3.09818  3.09818  0.00000 -0.19636
       8     H     0.44562  0.44562  0.00000  0.10876
       9     H     0.45242  0.45242  0.00000  0.09515
      10     C     3.15191  3.15191  0.00000 -0.30382
      11     H     0.45463  0.45463  0.00000  0.09074
      12     H     0.44745  0.44745  0.00000  0.10510
      13     H     0.44634  0.44634  0.00000  0.10732
      14     H     0.45605  0.45605  0.00000  0.08791
      15     H     0.45353  0.45353  0.00000  0.09295

   Total alpha = 21.00000, Total beta = 21.00000, Total charge =  0.00000

*** Psi4 exiting successfully. Buy a developer a beer!
