  ==> Input File <==

--------------------------------------------------------------------------
set {
	reference rhf
	basis 6-31G*
}

set_num_threads( 4 )
memory 2 gb

molecule MOL {
0 1

H	 -2.279788	 1.059650	 1.978929
C	 -1.629949	 0.980506	 2.848174
O	 -0.361594	 0.530340	 2.496089
H	 -1.516895	 1.960409	 3.291063
H	 -2.102784	 0.319471	 3.573356
C	 -0.346741	 -0.734534	 1.913746
C	 1.060829	 -1.066877	 1.477282
H	 -0.686571	 -1.484262	 2.629371
H	 -1.007908	 -0.770937	 1.050301
O	 1.392611	 -0.295398	 0.366430
H	 1.746177	 -0.875110	 2.300404
H	 1.118827	 -2.128005	 1.231644
C	 2.706965	 -0.449871	 -0.062409
H	 2.756559	 -0.644779	 -1.131878
H	 3.305899	 0.433456	 0.155466
H	 3.125548	 -1.294566	 0.467107

	symmetry c1
}
set optking {
	frozen_dihedral = ("
		7 10 13 14
	")
}

ee = optimize('scf')
oeprop('DIPOLE', 'QUADRUPOLE', 'MULLIKEN_CHARGES')
f=open( 'psi4out.xyz', 'w' )
f.write( "16  " )
f.write( str(ee) + "\n" )
f.write( MOL.save_string_xyz() )
f.close()
--------------------------------------------------------------------------

    Molecular point group: c1
  Charge       = 0
  Multiplicity = 1
  Basis Set: 6-31G*
  Basis Set:
  @DF-RHF Final Energy:  -306.97277207969853
    Total Energy =                       -306.9727720796984727
    Molecular point group: c1
  Basis Set: 6-31G*
  Basis Set:
  Basis Set: 6-31G*
  Basis Set:
  @DF-RHF Final Energy:  -306.97370403429773
    Total Energy =                       -306.9737040342979526
  Basis Set: 6-31G*
  Basis Set:
  Basis Set: 6-31G*
  Basis Set:
  @DF-RHF Final Energy:  -306.97401759726716
    Total Energy =                       -306.9740175972672773
  Basis Set: 6-31G*
  Basis Set:
  Charge       = 0
  Multiplicity = 1
  Basis Set: 6-31G*
  Basis Set:

    Orbital Energies (a.u.)
    -----------------------

    Doubly Occupied:

       1A    -20.553126     2A    -20.549631     3A    -11.269246
       4A    -11.268014     5A    -11.263205     6A    -11.262986
       7A     -1.385906     8A     -1.367480     9A     -1.030402
      10A     -0.936063    11A     -0.891951    12A     -0.823555
      13A     -0.682592    14A     -0.678812    15A     -0.655827
      16A     -0.633686    17A     -0.628252    18A     -0.595554
      19A     -0.554299    20A     -0.537913    21A     -0.507522
      22A     -0.476611    23A     -0.461588    24A     -0.417312
      25A     -0.407116

  @DF-RHF Final Energy:  -306.97401991193004

   => Energetics <=

    Nuclear Repulsion Energy =            258.5446477902799529
    One-Electron Energy =                -931.3600331618604287
    Two-Electron Energy =                 365.8413654596505467
    DFT Exchange-Correlation Energy =       0.0000000000000000
    Empirical Dispersion Energy =           0.0000000000000000
    PCM Polarization Energy =               0.0000000000000000
    EFP Energy =                            0.0000000000000000
    Total Energy =                       -306.9740199119299859
    Molecular point group: c1
  Basis Set: 6-31G*
  Basis Set:

  -Total Gradient:
     Atom            X                  Y                   Z
    ------   -----------------  -----------------  -----------------
       1        0.000000932761    -0.000000071914    -0.000000568050
       2       -0.000004195671    -0.000007914988    -0.000000005283
       3        0.000000494650    -0.000007227078     0.000000816714
       4        0.000003981248    -0.000001681338    -0.000001848206
       5       -0.000000406233     0.000000663114    -0.000000085124
       6       -0.000011307743     0.000043558999    -0.000035925740
       7       -0.000331332080    -0.000997208428    -0.000774392360
       8        0.000001884695    -0.000005432286     0.000010685774
       9        0.000002876241     0.000000039867     0.000005567140
      10        0.000624137979     0.000985738956     0.001058123686
      11        0.000013446104     0.000008569306    -0.000023180681
      12        0.000011707355     0.000028989296    -0.000020391948
      13       -0.000153052135     0.001489352251    -0.000495077163
      14       -0.000177034561    -0.001527080394     0.000285093962
      15       -0.000017305959     0.000021364520    -0.000019105295
      16        0.000035173347    -0.000031659882     0.000010292577

  **** Optimization is complete! (in 4 steps) ****
    Final optimized geometry and variables:
    Molecular point group: c1

    Geometry (in Angstrom), charge = 0, multiplicity = 1:

    H           -2.741348617501     1.245531072741     0.452519681269
    C           -2.102247643515     1.158516247332     1.328946724466
    O           -0.834529529372     0.696160450613     0.990699050924
    H           -1.984641654835     2.136511399851     1.774865221385
    H           -2.589718840550     0.500812706707     2.047379686158
    C           -0.825705811435    -0.567993256603     0.406578414823
    C            0.582658991104    -0.913807762555    -0.016464432761
    H           -1.179789037139    -1.315475451911     1.117795975377
    H           -1.478512110548    -0.596859752700    -0.463377072896
    O            0.928955675348    -0.140671678939    -1.122976762806
    H            1.258659344254    -0.731196723082     0.815631153694
    H            0.630147885109    -1.974272111263    -0.264241087472
    C            2.244023249679    -0.276434597430    -1.573797124139
    H            2.233944006965    -0.455782979110    -2.642726628164
    H            2.807709357387     0.627785091565    -1.368737022132
    H            2.750757204530    -1.112307379523    -1.099395217576

  Mulliken Charges: (a.u.)
   Center  Symbol    Alpha    Beta     Spin     Total
       1     H     0.42808  0.42808  0.00000  0.14384
       2     C     3.07942  3.07942  0.00000 -0.15884
       3     O     4.30086  4.30086  0.00000 -0.60172
       4     H     0.41140  0.41140  0.00000  0.17720
       5     H     0.43199  0.43199  0.00000  0.13603
       6     C     2.99350  2.99350  0.00000  0.01300
       7     C     2.99324  2.99324  0.00000  0.01352
       8     H     0.43252  0.43252  0.00000  0.13496
       9     H     0.42281  0.42281  0.00000  0.15438
      10     O     4.30561  4.30561  0.00000 -0.61123
      11     H     0.42251  0.42251  0.00000  0.15498
      12     H     0.43211  0.43211  0.00000  0.13578
      13     C     3.07597  3.07597  0.00000 -0.15194
      14     H     0.41906  0.41906  0.00000  0.16187
      15     H     0.42002  0.42002  0.00000  0.15997
      16     H     0.43091  0.43091  0.00000  0.13819

   Total alpha = 25.00000, Total beta = 25.00000, Total charge =  0.00000
