  ==> Input File <==

--------------------------------------------------------------------------
set {
	reference rhf
	basis 6-31G*
}

set_num_threads( 4 )
memory 2 gb

molecule MOL {
0 1

H	 -1.748661	 -2.220942	 -0.005015
C	 -1.343207	 -1.225221	 -0.013879
N	 -0.055091	 -1.100174	 -0.261126
C	 -2.150779	 -0.125890	 0.222726
C	 0.449969	 0.122615	 -0.277109
H	 -3.200618	 -0.238980	 0.422496
N	 -1.660212	 1.097703	 0.209594
C	 -0.371804	 1.219904	 -0.038265
C	 1.928147	 0.267347	 -0.541394
H	 0.029131	 2.217482	 -0.051283
C	 2.303810	 -0.099330	 -1.980991
H	 2.209767	 1.296616	 -0.346051
H	 2.482927	 -0.354564	 0.154034
H	 3.367431	 0.041720	 -2.144737
H	 1.765471	 0.524073	 -2.685291
H	 2.065368	 -1.136382	 -2.195418

	symmetry c1
}
set optking {
	frozen_dihedral = ("
		12 9 5 3
	")
}

ee = optimize('scf')
oeprop('DIPOLE', 'QUADRUPOLE', 'MULLIKEN_CHARGES')
f=open( 'psi4out.xyz', 'w' )
f.write( "16  " )
f.write( str(ee) + "\n" )
f.write( MOL.save_string_xyz() )
f.close()
--------------------------------------------------------------------------

    Molecular point group: c1
  Charge       = 0
  Multiplicity = 1
  Basis Set: 6-31G*
  Basis Set:
  @DF-RHF Final Energy:  -340.75825173488522
    Total Energy =                       -340.7582517348852207
    Molecular point group: c1
  Basis Set: 6-31G*
  Basis Set:
  Basis Set: 6-31G*
  Basis Set:
  @DF-RHF Final Energy:  -340.75832886257888
    Total Energy =                       -340.7583288625788782
  Basis Set: 6-31G*
  Basis Set:
  Basis Set: 6-31G*
  Basis Set:
  @DF-RHF Final Energy:  -340.75842477624155
    Total Energy =                       -340.7584247762416112
  Basis Set: 6-31G*
  Basis Set:
  Basis Set: 6-31G*
  Basis Set:
  @DF-RHF Final Energy:  -340.75843598556776
    Total Energy =                       -340.7584359855676439
  Basis Set: 6-31G*
  Basis Set:
  Basis Set: 6-31G*
  Basis Set:
  @DF-RHF Final Energy:  -340.75843756073897
    Total Energy =                       -340.7584375607387415
  Basis Set: 6-31G*
  Basis Set:
  Charge       = 0
  Multiplicity = 1
  Basis Set: 6-31G*
  Basis Set:

    Orbital Energies (a.u.)
    -----------------------

    Doubly Occupied:

       1A    -15.586929     2A    -15.582497     3A    -11.281165
       4A    -11.276727     5A    -11.272365     6A    -11.272042
       7A    -11.232978     8A    -11.217417     9A     -1.313582
      10A     -1.222189    11A     -1.084456    12A     -1.013787
      13A     -0.905427    14A     -0.892804    15A     -0.827698
      16A     -0.716563    17A     -0.709616    18A     -0.659231
      19A     -0.613891    20A     -0.602769    21A     -0.579369
      22A     -0.560711    23A     -0.521885    24A     -0.505657
      25A     -0.499805    26A     -0.486972    27A     -0.428691
      28A     -0.395039    29A     -0.345378

  @DF-RHF Final Energy:  -340.75844006658531

   => Energetics <=

    Nuclear Repulsion Energy =            349.8409613238607108
    One-Electron Energy =               -1153.9835218892476405
    Two-Electron Energy =                 463.3841204988016216
    DFT Exchange-Correlation Energy =       0.0000000000000000
    Empirical Dispersion Energy =           0.0000000000000000
    PCM Polarization Energy =               0.0000000000000000
    EFP Energy =                            0.0000000000000000
    Total Energy =                       -340.7584400665853082
    Molecular point group: c1
  Basis Set: 6-31G*
  Basis Set:

  -Total Gradient:
     Atom            X                  Y                   Z
    ------   -----------------  -----------------  -----------------
       1       -0.000006789129     0.000001439512    -0.000017522653
       2       -0.000016503821    -0.000005891142     0.000034240646
       3       -0.000023618115     0.000023761944    -0.000173639898
       4        0.000005054127    -0.000021942973     0.000033643413
       5        0.000042204705     0.000004605797     0.000209340288
       6       -0.000003073067    -0.000000955724    -0.000023055281
       7        0.000014755410     0.000006538823     0.000009890268
       8       -0.000015828202     0.000012765020    -0.000050408538
       9        0.000031434164    -0.000047223671     0.000130476165
      10        0.000003872154    -0.000002169528     0.000005923723
      11        0.000002952573    -0.000000713839    -0.000001047978
      12       -0.000046813877     0.000039193051    -0.000155605739
      13        0.000009301711     0.000002525130    -0.000002312831
      14        0.000001370564    -0.000000411219    -0.000000530206
      15        0.000002036439    -0.000002552030     0.000011050890
      16       -0.000000355636    -0.000008969153    -0.000010442271

  **** Optimization is complete! (in 6 steps) ****
    Final optimized geometry and variables:
    Molecular point group: c1

    Geometry (in Angstrom), charge = 0, multiplicity = 1:

    H           -1.668639258061    -2.245482178799     0.356580842623
    C           -1.268691331671    -1.247466126534     0.346376378409
    N            0.020983250920    -1.116531143279     0.111298906680
    C           -2.083985907182    -0.151820261829     0.573585489488
    C            0.520596844795     0.108595780142     0.099783488178
    H           -3.135009858875    -0.269812398826     0.764302105673
    N           -1.599067255155     1.073897540341     0.564348198854
    C           -0.308718244777     1.202003736524     0.329722149475
    C            1.994600819760     0.262544798646    -0.182965097212
    H            0.088159593488     2.201301513877     0.323830642249
    C            2.359519673598    -0.120345330022    -1.620921634663
    H            2.294706442864     1.287169644053     0.012566984864
    H            2.542637036291    -0.369135919952     0.508508626685
    H            3.428618059311    -0.024291050690    -1.780595225581
    H            1.853929968568     0.520976100489    -2.336177979949
    H            2.075234464131    -1.145524821749    -1.826001660196

  Mulliken Charges: (a.u.)
   Center  Symbol    Alpha    Beta     Spin     Total
       1     H     0.39379  0.39379  0.00000  0.21243
       2     C     2.99020  2.99020  0.00000  0.01960
       3     N     3.75290  3.75290  0.00000 -0.50580
       4     C     2.99781  2.99781  0.00000  0.00439
       5     C     2.87572  2.87572  0.00000  0.24856
       6     H     0.39423  0.39423  0.00000  0.21153
       7     N     3.72877  3.72877  0.00000 -0.45754
       8     C     3.00032  3.00032  0.00000 -0.00064
       9     C     3.16753  3.16753  0.00000 -0.33507
      10     H     0.39506  0.39506  0.00000  0.20988
      11     C     3.24247  3.24247  0.00000 -0.48494
      12     H     0.41477  0.41477  0.00000  0.17046
      13     H     0.40457  0.40457  0.00000  0.19086
      14     H     0.41704  0.41704  0.00000  0.16592
      15     H     0.41856  0.41856  0.00000  0.16288
      16     H     0.40626  0.40626  0.00000  0.18748

   Total alpha = 29.00000, Total beta = 29.00000, Total charge =  0.00000
