  ==> Input File <==

--------------------------------------------------------------------------
set {
	reference rhf
	basis 6-31G*
}

set_num_threads( 4 )
memory 2 gb

molecule MOL {
0 1

O	 0.391030	 1.298905	 0.000133
C	 0.503002	 0.111612	 0.000005
C	 -0.702327	 -0.811998	 -0.000075
C	 1.863306	 -0.554493	 0.000030
C	 -1.286503	 -1.053603	 1.386473
H	 -1.450083	 -0.385084	 -0.665940
H	 -0.403647	 -1.750737	 -0.463028
H	 -1.607570	 -0.123716	 1.839733
H	 -2.141991	 -1.718189	 1.325457
H	 -0.551858	 -1.501477	 2.044444
H	 1.974395	 -1.189404	 -0.874166
H	 2.638695	 0.198920	 -0.000196
H	 1.974487	 -1.188655	 0.874727

	symmetry c1
}
set optking {
	frozen_dihedral = ("
		6 3 2 1
	")
}

ee = optimize('scf')
oeprop('DIPOLE', 'QUADRUPOLE', 'MULLIKEN_CHARGES')
f=open( 'psi4out.xyz', 'w' )
f.write( "13  " )
f.write( str(ee) + "\n" )
f.write( MOL.save_string_xyz() )
f.close()
--------------------------------------------------------------------------

    Molecular point group: c1
  Charge       = 0
  Multiplicity = 1
  Basis Set: 6-31G*
  Basis Set:
  @DF-RHF Final Energy:  -230.99449824904067
    Total Energy =                       -230.9944982490407597
    Molecular point group: c1
  Basis Set: 6-31G*
  Basis Set:
  Basis Set: 6-31G*
  Basis Set:
  @DF-RHF Final Energy:  -230.99463909871747
    Total Energy =                       -230.9946390987173857
  Basis Set: 6-31G*
  Basis Set:
  Basis Set: 6-31G*
  Basis Set:
  @DF-RHF Final Energy:  -230.99519200589631
    Total Energy =                       -230.9951920058963424
  Basis Set: 6-31G*
  Basis Set:
  Basis Set: 6-31G*
  Basis Set:
  @DF-RHF Final Energy:  -230.99538234847907
    Total Energy =                       -230.9953823484790973
  Basis Set: 6-31G*
  Basis Set:
  Basis Set: 6-31G*
  Basis Set:
  @DF-RHF Final Energy:  -230.99540916274552
    Total Energy =                       -230.9954091627454886
  Basis Set: 6-31G*
  Basis Set:
  Basis Set: 6-31G*
  Basis Set:
  @DF-RHF Final Energy:  -230.99541640705428
    Total Energy =                       -230.9954164070542788
  Basis Set: 6-31G*
  Basis Set:
  Charge       = 0
  Multiplicity = 1
  Basis Set: 6-31G*
  Basis Set:

    Orbital Energies (a.u.)
    -----------------------

    Doubly Occupied:

       1A    -20.548731     2A    -11.325769     3A    -11.232971
       4A    -11.229350     5A    -11.227552     6A     -1.394572
       7A     -1.064978     8A     -0.998256     9A     -0.882435
      10A     -0.733733    11A     -0.655317    12A     -0.646397
      13A     -0.608223    14A     -0.591372    15A     -0.567729
      16A     -0.539067    17A     -0.527441    18A     -0.502632
      19A     -0.479858    20A     -0.399728

  @DF-RHF Final Energy:  -230.99541805210382

   => Energetics <=

    Nuclear Repulsion Energy =            176.9712888316448982
    One-Electron Energy =                -663.6211966602826351
    Two-Electron Energy =                 255.6544897765339783
    DFT Exchange-Correlation Energy =       0.0000000000000000
    Empirical Dispersion Energy =           0.0000000000000000
    PCM Polarization Energy =               0.0000000000000000
    EFP Energy =                            0.0000000000000000
    Total Energy =                       -230.9954180521037870
    Molecular point group: c1
  Basis Set: 6-31G*
  Basis Set:

  -Total Gradient:
     Atom            X                  Y                   Z
    ------   -----------------  -----------------  -----------------
       1       -0.000025278989     0.000022050496     0.000059371344
       2        0.000024235020    -0.000039402849    -0.000074310669
       3       -0.000016970948     0.000048238127     0.000039664284
       4        0.000005731551     0.000020606910    -0.000017537341
       5       -0.000015217471    -0.000013284409     0.000048799546
       6        0.000010444172    -0.000031846532    -0.000038286345
       7        0.000002475172     0.000009437694     0.000003007002
       8       -0.000002004891     0.000005729091    -0.000014550066
       9        0.000010547777     0.000004174937    -0.000007391567
      10        0.000000315953     0.000002742847    -0.000008337728
      11        0.000001870607    -0.000012573584     0.000003277301
      12        0.000004543319    -0.000008674101     0.000004094842
      13       -0.000000691273    -0.000007198633     0.000002199399

  **** Optimization is complete! (in 7 steps) ****
    Final optimized geometry and variables:
    Molecular point group: c1

    Geometry (in Angstrom), charge = 0, multiplicity = 1:

    O            0.199723095223     1.479942809497    -0.264115000115
    C            0.347857129895     0.296394192670    -0.295136900553
    C           -0.850400957578    -0.637633098678    -0.311428249757
    C            1.722841706420    -0.333629087808    -0.292703224655
    C           -1.425954282019    -0.806558389689     1.101320827261
    H           -1.600234837251    -0.199196178039    -0.959690919698
    H           -0.574375060783    -1.605471091497    -0.718427252259
    H           -1.724458798500     0.153733041197     1.504658504395
    H           -2.295504504539    -1.454019367524     1.081195973660
    H           -0.700231381799    -1.247881220320     1.777964129189
    H            1.896344868053    -0.835328854502    -1.241056486009
    H            2.477648954182     0.426066918848    -0.145116451304
    H            1.799775865550    -1.086579447023     0.486365282783

  Mulliken Charges: (a.u.)
   Center  Symbol    Alpha    Beta     Spin     Total
       1     O     4.26129  4.26129  0.00000 -0.52258
       2     C     2.73811  2.73811  0.00000  0.52378
       3     C     3.19912  3.19912  0.00000 -0.39824
       4     C     3.28957  3.28957  0.00000 -0.57913
       5     C     3.24770  3.24770  0.00000 -0.49540
       6     H     0.40000  0.40000  0.00000  0.20001
       7     H     0.41626  0.41626  0.00000  0.16748
       8     H     0.40414  0.40414  0.00000  0.19172
       9     H     0.41213  0.41213  0.00000  0.17575
      10     H     0.41859  0.41859  0.00000  0.16283
      11     H     0.40664  0.40664  0.00000  0.18671
      12     H     0.39674  0.39674  0.00000  0.20651
      13     H     0.40972  0.40972  0.00000  0.18057

   Total alpha = 20.00000, Total beta = 20.00000, Total charge = -0.00000
