  ==> Input File <==

--------------------------------------------------------------------------
set {
	reference rhf
	basis 6-31G*
}

set_num_threads( 1 )
memory 2 gb

molecule MOL {
0 1

H	 2.176868	 -0.646004	 -0.217325
O	 1.337496	 -0.537251	 0.205931
C	 0.702312	 0.627605	 -0.264544
C	 -0.714990	 0.596302	 0.266387
H	 0.682322	 0.642550	 -1.350929
H	 1.215941	 1.520383	 0.085680
O	 -1.405996	 -0.526611	 -0.195820
H	 -1.257453	 1.468809	 -0.075599
H	 -0.688972	 0.618407	 1.353696
H	 -2.044229	 -0.764878	 0.464408

	symmetry c1
}
set optking {
	frozen_dihedral = ("
		5 3 4 7
	")
}

ee = energy('scf')
oeprop('DIPOLE', 'QUADRUPOLE', 'MULLIKEN_CHARGES')
f=open( 'psi4out.xyz', 'w' )
f.write( "10  " )
f.write( str(ee) + "\n" )
f.write( MOL.save_string_xyz() )
f.close()
--------------------------------------------------------------------------

    Molecular point group: c1

    Geometry (in Angstrom), charge = 0, multiplicity = 1:

       Center              X                  Y                   Z               Mass
    ------------   -----------------  -----------------  -----------------  -----------------
           H          2.195609295516    -0.654579340358    -0.224511149156     1.007825032070
           O          1.356237295516    -0.545826340358     0.198744850844    15.994914619560
           C          0.721053295516     0.619029659642    -0.271730149156    12.000000000000
           C         -0.696248704484     0.587726659642     0.259200850844    12.000000000000
           H          0.701063295516     0.633974659642    -1.358115149156     1.007825032070
           H          1.234682295516     1.511807659642     0.078493850844     1.007825032070
           O         -1.387254704484    -0.535186340358    -0.203006149156    15.994914619560
           H         -1.238711704484     1.460233659642    -0.082785149156     1.007825032070
           H         -0.670230704484     0.609831659642     1.346509850844     1.007825032070
           H         -2.025487704484    -0.773453340358     0.457221850844     1.007825032070

  Charge       = 0
  Multiplicity = 1
  Basis Set: 6-31G*
  Basis Set:

    Orbital Energies (a.u.)
    -----------------------

    Doubly Occupied:

       1A    -20.551416     2A    -20.549823     3A    -11.271639
       4A    -11.268676     5A     -1.369930     6A     -1.347302
       7A     -0.999870     8A     -0.831163     9A     -0.709888
      10A     -0.708516    11A     -0.608263    12A     -0.599936
      13A     -0.590410    14A     -0.522573    15A     -0.474156
      16A     -0.441456    17A     -0.435257

  @DF-RHF Final Energy:  -228.91732237426396

   => Energetics <=

    Nuclear Repulsion Energy =            133.7691847949967610
    One-Electron Energy =                -578.8124946735047160
    Two-Electron Energy =                 216.1259875042436249
    DFT Exchange-Correlation Energy =       0.0000000000000000
    Empirical Dispersion Energy =           0.0000000000000000
    PCM Polarization Energy =               0.0000000000000000
    EFP Energy =                            0.0000000000000000
    Total Energy =                       -228.9173223742643302

  Mulliken Charges: (a.u.)
   Center  Symbol    Alpha    Beta     Spin     Total
       1     H     0.28034  0.28034  0.00000  0.43933
       2     O     4.36677  4.36677  0.00000 -0.73354
       3     C     3.00223  3.00223  0.00000 -0.00445
       4     C     3.00042  3.00042  0.00000 -0.00084
       5     H     0.42337  0.42337  0.00000  0.15325
       6     H     0.42952  0.42952  0.00000  0.14097
       7     O     4.36396  4.36396  0.00000 -0.72793
       8     H     0.42904  0.42904  0.00000  0.14191
       9     H     0.42535  0.42535  0.00000  0.14931
      10     H     0.27900  0.27900  0.00000  0.44200

   Total alpha = 17.00000, Total beta = 17.00000, Total charge = -0.00000
