  ==> Input File <==

--------------------------------------------------------------------------
set {
	reference rhf
	basis 6-31G*
}

set_num_threads( 1 )
memory 2 gb

molecule MOL {
0 1

H	 2.522566	 2.093586	 0.132553
O	 3.276715	 1.737329	 -0.314001
C	 3.534829	 0.438294	 0.154974
C	 2.522891	 -0.590581	 -0.337088
H	 4.521559	 0.184156	 -0.210339
H	 3.580718	 0.428192	 1.243354
C	 1.096735	 -0.349768	 0.163869
H	 2.532673	 -0.591423	 -1.423950
H	 2.857478	 -1.575639	 -0.016026
C	 0.115918	 -1.429151	 -0.302766
H	 0.756711	 0.622880	 -0.180667
H	 1.096838	 -0.314215	 1.253399
C	 -1.309753	 -1.282496	 0.241564
H	 0.086350	 -1.439760	 -1.390819
H	 0.501336	 -2.400793	 -0.000994
C	 -2.037799	 -0.007733	 -0.193645
H	 -1.890610	 -2.142323	 -0.085726
H	 -1.285946	 -1.330893	 1.329189
C	 -3.489788	 0.042957	 0.286558
H	 -2.017067	 0.064384	 -1.280144
H	 -1.513726	 0.868678	 0.179924
C	 -4.216917	 1.317354	 -0.141063
H	 -4.025645	 -0.823308	 -0.095450
H	 -3.513059	 -0.038752	 1.371301
H	 -4.239342	 1.411634	 -1.223113
H	 -5.243387	 1.322503	 0.212445
H	 -3.726170	 2.201406	 0.256408

	symmetry c1
}
set optking {
	frozen_dihedral = ("
		14 10 7 4,
		10 7 4 8,
		8 4 3 2,
		10 13 16 20,
		20 16 19 22,
		4 3 2 1
	")
}

ee = energy('scf')
oeprop('DIPOLE', 'QUADRUPOLE', 'MULLIKEN_CHARGES')
f=open( 'psi4out.xyz', 'w' )
f.write( "27  " )
f.write( str(ee) + "\n" )
f.write( MOL.save_string_xyz() )
f.close()
--------------------------------------------------------------------------

    Molecular point group: c1

    Geometry (in Angstrom), charge = 0, multiplicity = 1:

       Center              X                  Y                   Z               Mass
    ------------   -----------------  -----------------  -----------------  -----------------
           H          2.538433810323     2.062973109551     0.182360060332     1.007825032070
           O          3.292582810323     1.706716109551    -0.264193939668    15.994914619560
           C          3.550696810323     0.407681109551     0.204781060332    12.000000000000
           C          2.538758810323    -0.621193890449    -0.287280939668    12.000000000000
           H          4.537426810323     0.153543109551    -0.160531939668     1.007825032070
           H          3.596585810323     0.397579109551     1.293161060332     1.007825032070
           C          1.112602810323    -0.380380890449     0.213676060332    12.000000000000
           H          2.548540810323    -0.622035890449    -1.374142939668     1.007825032070
           H          2.873345810323    -1.606251890449     0.033781060332     1.007825032070
           C          0.131785810323    -1.459763890449    -0.252958939668    12.000000000000
           H          0.772578810323     0.592267109551    -0.130859939668     1.007825032070
           H          1.112705810323    -0.344827890449     1.303206060332     1.007825032070
           C         -1.293885189677    -1.313108890449     0.291371060332    12.000000000000
           H          0.102217810323    -1.470372890449    -1.341011939668     1.007825032070
           H          0.517203810323    -2.431405890449     0.048813060332     1.007825032070
           C         -2.021931189677    -0.038345890449    -0.143837939668    12.000000000000
           H         -1.874742189677    -2.172935890449    -0.035918939668     1.007825032070
           H         -1.270078189677    -1.361505890449     1.378996060332     1.007825032070
           C         -3.473920189677     0.012344109551     0.336365060332    12.000000000000
           H         -2.001199189677     0.033771109551    -1.230336939668     1.007825032070
           H         -1.497858189677     0.838065109551     0.229731060332     1.007825032070
           C         -4.201049189677     1.286741109551    -0.091255939668    12.000000000000
           H         -4.009777189677    -0.853920890449    -0.045642939668     1.007825032070
           H         -3.497191189677    -0.069364890449     1.421108060332     1.007825032070
           H         -4.223474189677     1.381021109551    -1.173305939668     1.007825032070
           H         -5.227519189677     1.291890109551     0.262252060332     1.007825032070
           H         -3.710302189677     2.170793109551     0.306215060332     1.007825032070

  Charge       = 0
  Multiplicity = 1
  Basis Set: 6-31G*
  Basis Set:

    Orbital Energies (a.u.)
    -----------------------

    Doubly Occupied:

       1A    -20.552299     2A    -11.267053     3A    -11.219778
       4A    -11.217375     5A    -11.216193     6A    -11.215797
       7A    -11.215219     8A    -11.214425     9A    -11.209495
      10A     -1.359043    11A     -1.095397    12A     -1.061517
      13A     -1.011595    14A     -0.948408    15A     -0.888416
      16A     -0.819998    17A     -0.802308    18A     -0.777381
      19A     -0.693677    20A     -0.652520    21A     -0.637851
      22A     -0.614726    23A     -0.600338    24A     -0.583237
      25A     -0.579990    26A     -0.552648    27A     -0.541022
      28A     -0.532057    29A     -0.505280    30A     -0.494214
      31A     -0.485667    32A     -0.474240    33A     -0.468693
      34A     -0.460863    35A     -0.452325    36A     -0.441874
      37A     -0.423020

  @DF-RHF Final Energy:  -388.28170906931405

   => Energetics <=

    Nuclear Repulsion Energy =            460.1756288066547995
    One-Electron Energy =               -1438.3427991334126546
    Two-Electron Energy =                 589.8854612574446037
    DFT Exchange-Correlation Energy =       0.0000000000000000
    Empirical Dispersion Energy =           0.0000000000000000
    PCM Polarization Energy =               0.0000000000000000
    EFP Energy =                            0.0000000000000000
    Total Energy =                       -388.2817090693132513

  Mulliken Charges: (a.u.)
   Center  Symbol    Alpha    Beta     Spin     Total
       1     H     0.27991  0.27991  0.00000  0.44019
       2     O     4.37094  4.37094  0.00000 -0.74187
       3     C     2.99736  2.99736  0.00000  0.00529
       4     C     3.16089  3.16089  0.00000 -0.32178
       5     H     0.41444  0.41444  0.00000  0.17113
       6     H     0.43206  0.43206  0.00000  0.13588
       7     C     3.16363  3.16363  0.00000 -0.32726
       8     H     0.41496  0.41496  0.00000  0.17007
       9     H     0.42435  0.42435  0.00000  0.15130
      10     C     3.15188  3.15188  0.00000 -0.30375
      11     H     0.42261  0.42261  0.00000  0.15478
      12     H     0.42553  0.42553  0.00000  0.14895
      13     C     3.15332  3.15332  0.00000 -0.30664
      14     H     0.42165  0.42165  0.00000  0.15669
      15     H     0.42150  0.42150  0.00000  0.15700
      16     C     3.15265  3.15265  0.00000 -0.30530
      17     H     0.42121  0.42121  0.00000  0.15759
      18     H     0.42427  0.42427  0.00000  0.15147
      19     C     3.15118  3.15118  0.00000 -0.30236
      20     H     0.42360  0.42360  0.00000  0.15280
      21     H     0.42388  0.42388  0.00000  0.15224
      22     C     3.23917  3.23917  0.00000 -0.47833
      23     H     0.42282  0.42282  0.00000  0.15436
      24     H     0.42329  0.42329  0.00000  0.15343
      25     H     0.42142  0.42142  0.00000  0.15717
      26     H     0.41918  0.41918  0.00000  0.16164
      27     H     0.42234  0.42234  0.00000  0.15532

   Total alpha = 37.00000, Total beta = 37.00000, Total charge =  0.00000
