  ==> Input File <==

--------------------------------------------------------------------------
set {
	reference rhf
	basis 6-31G*
}

set_num_threads( 4 )
memory 2 gb

molecule MOL {
0 1

H	 -2.601566	 -0.497379	 -0.029386
N	 -1.852125	 0.165761	 -0.074816
C	 -0.563778	 -0.502042	 0.037919
H	 -1.984339	 0.804841	 0.686006
C	 0.575259	 0.508231	 -0.048326
H	 -0.482092	 -1.204004	 -0.786564
H	 -0.460411	 -1.085169	 0.956626
C	 1.954651	 -0.143624	 0.035137
H	 0.475158	 1.060484	 -0.977307
H	 0.469181	 1.234488	 0.755973
H	 2.103292	 -0.853109	 -0.774172
H	 2.742821	 0.599562	 -0.030094
H	 2.083613	 -0.679371	 0.971560

	symmetry c1
}
set optking {
	frozen_dihedral = ("
		1 2 3 6
	")
}

ee = optimize('scf')
oeprop('DIPOLE', 'QUADRUPOLE', 'MULLIKEN_CHARGES')
f=open( 'psi4out.xyz', 'w' )
f.write( "13  " )
f.write( str(ee) + "\n" )
f.write( MOL.save_string_xyz() )
f.close()
--------------------------------------------------------------------------

    Molecular point group: c1
  Charge       = 0
  Multiplicity = 1
  Basis Set: 6-31G*
  Basis Set:
  @DF-RHF Final Energy:  -173.28238979283429
    Total Energy =                       -173.2823897928342660
    Molecular point group: c1
  Basis Set: 6-31G*
  Basis Set:
  Basis Set: 6-31G*
  Basis Set:
  @DF-RHF Final Energy:  -173.28239353579278
    Total Energy =                       -173.2823935357928065
  Basis Set: 6-31G*
  Basis Set:
  Charge       = 0
  Multiplicity = 1
  Basis Set: 6-31G*
  Basis Set:

    Orbital Energies (a.u.)
    -----------------------

    Doubly Occupied:

       1A    -15.532993     2A    -11.240124     3A    -11.212591
       4A    -11.209458     5A     -1.177198     6A     -1.035350
       7A     -0.898698     8A     -0.800220     9A     -0.660376
      10A     -0.631087    11A     -0.602730    12A     -0.565523
      13A     -0.531777    14A     -0.491947    15A     -0.476582
      16A     -0.468957    17A     -0.382176

  @DF-RHF Final Energy:  -173.28239419231025

   => Energetics <=

    Nuclear Repulsion Energy =            131.8017121465961452
    One-Electron Energy =                -494.3326351273862542
    Two-Electron Energy =                 189.2485287884798879
    DFT Exchange-Correlation Energy =       0.0000000000000000
    Empirical Dispersion Energy =           0.0000000000000000
    PCM Polarization Energy =               0.0000000000000000
    EFP Energy =                            0.0000000000000000
    Total Energy =                       -173.2823941923102495
    Molecular point group: c1
  Basis Set: 6-31G*
  Basis Set:

  -Total Gradient:
     Atom            X                  Y                   Z
    ------   -----------------  -----------------  -----------------
       1       -0.000001433461     0.000099495992     0.000571983288
       2        0.000113300848    -0.000000364398    -0.000746542580
       3       -0.000358409001    -0.000402049288     0.000449551137
       4       -0.000018028112    -0.000037598884     0.000004162935
       5       -0.000019412736    -0.000052150015    -0.000018981939
       6        0.000244659133     0.000358557200    -0.000316664358
       7        0.000029144511     0.000017146094     0.000032543851
       8        0.000007239674     0.000010526332     0.000026885203
       9       -0.000001989037    -0.000019828680    -0.000024274364
      10        0.000016582842     0.000013717361     0.000014705880
      11       -0.000012627677     0.000019527950     0.000000873572
      12        0.000000005906    -0.000001344145     0.000009991554
      13        0.000000967107    -0.000005635518    -0.000004234178

  **** Optimization is complete! (in 3 steps) ****
    Final optimized geometry and variables:
    Molecular point group: c1

    Geometry (in Angstrom), charge = 0, multiplicity = 1:

    H           -2.601378541009    -0.497471282963    -0.033930523900
    N           -1.852004110302     0.166128822902    -0.076889927637
    C           -0.564448748008    -0.502891423170     0.039395464301
    H           -1.986502269086     0.798982081057     0.689050245320
    C            0.574824993670     0.507099392636    -0.048614210353
    H           -0.480213521750    -1.204716845621    -0.784998853581
    H           -0.461879589802    -1.083093503841     0.959940587401
    C            1.954047753047    -0.145066265831     0.034191710943
    H            0.474452457967     1.058392486244    -0.978267599698
    H            0.470325660050     1.234129272669     0.755299776410
    H            2.102472641641    -0.853436213181    -0.776024085849
    H            2.742268837361     0.598118105788    -0.030028733586
    H            2.082788116798    -0.681980551724     0.969945959493

  Mulliken Charges: (a.u.)
   Center  Symbol    Alpha    Beta     Spin     Total
       1     H     0.33261  0.33261  0.00000  0.33477
       2     N     3.92122  3.92122  0.00000 -0.84245
       3     C     3.05894  3.05894  0.00000 -0.11787
       4     H     0.33559  0.33559  0.00000  0.32883
       5     C     3.15208  3.15208  0.00000 -0.30415
       6     H     0.42081  0.42081  0.00000  0.15838
       7     H     0.43517  0.43517  0.00000  0.12966
       8     C     3.24364  3.24364  0.00000 -0.48728
       9     H     0.41227  0.41227  0.00000  0.17546
      10     H     0.42697  0.42697  0.00000  0.14606
      11     H     0.42084  0.42084  0.00000  0.15832
      12     H     0.41762  0.41762  0.00000  0.16476
      13     H     0.42224  0.42224  0.00000  0.15551

   Total alpha = 17.00000, Total beta = 17.00000, Total charge =  0.00000
