                              Psi4 1.0.54 Driver

  ==> Input File <==

--------------------------------------------------------------------------
set {
	reference rhf
	basis cc-pvtz
}

set_num_threads( 4 )
memory 2 gb

molecule MOL {
0 1

O	 -2.440701	 -0.934798	 -0.415053
C	 -1.922978	 0.063265	 -0.045005
C	 -2.632749	 1.372204	 0.158357
O	 -0.637375	 0.157174	 0.243149
H	 -2.187724	 2.129143	 -0.474664
H	 -3.677681	 1.257276	 -0.079438
H	 -2.516788	 1.693160	 1.185542
C	 0.162530	 -1.009518	 0.097799
C	 1.587210	 -0.664190	 0.477086
H	 0.096803	 -1.356267	 -0.924704
H	 -0.233803	 -1.785900	 0.736810
C	 2.256770	 0.342732	 -0.454344
H	 2.154716	 -1.590834	 0.479041
H	 1.598751	 -0.289614	 1.496104
C	 1.815891	 1.777380	 -0.184108
H	 3.335262	 0.269246	 -0.342307
H	 2.035442	 0.083278	 -1.483199
H	 2.308640	 2.470828	 -0.855460
H	 2.051698	 2.076821	 0.831826
H	 0.745486	 1.889722	 -0.320600

	symmetry c1
}
set optking {
	frozen_dihedral = ("
		16 12 9 8
	")
}

ee,wfn = optimize('scf', return_wfn=True)
oeprop( wfn, 'DIPOLE', 'QUADRUPOLE', 'MULLIKEN_CHARGES')
f=open( 'psi4out.xyz', 'w' )
f.write( "20  " )
f.write( str(ee) + "\n" )
f.write( MOL.save_string_xyz() )
f.close()
--------------------------------------------------------------------------

    Molecular point group: c1
  Charge       = 0
  Multiplicity = 1
  Basis Set: CC-PVTZ
  Basis Set:
  @DF-RHF Final Energy:  -384.08237986585846
    Total Energy =                       -384.0823798658584565
    Molecular point group: c1
  Basis Set: CC-PVTZ
  Basis Set:
  Basis Set: CC-PVTZ
  Basis Set:
  @DF-RHF Final Energy:  -384.08392046593195
    Total Energy =                       -384.0839204659313282
  Basis Set: CC-PVTZ
  Basis Set:
  Basis Set: CC-PVTZ
  Basis Set:
  @DF-RHF Final Energy:  -384.08410142272879
    Total Energy =                       -384.0841014227287360
  Basis Set: CC-PVTZ
  Basis Set:
  Basis Set: CC-PVTZ
  Basis Set:
  @DF-RHF Final Energy:  -384.08404560179468
    Total Energy =                       -384.0840456017946281
  Basis Set: CC-PVTZ
  Basis Set:
  Basis Set: CC-PVTZ
  Basis Set:
  @DF-RHF Final Energy:  -384.08425287183428
    Total Energy =                       -384.0842528718344511
  Basis Set: CC-PVTZ
  Basis Set:
  Basis Set: CC-PVTZ
  Basis Set:
  @DF-RHF Final Energy:  -384.08425561786385
    Total Energy =                       -384.0842556178638461
  Basis Set: CC-PVTZ
  Basis Set:
  Charge       = 0
  Multiplicity = 1
  Basis Set: CC-PVTZ
  Basis Set:

    Orbital Energies (a.u.)
    -----------------------

    Doubly Occupied:

       1A    -20.594532     2A    -20.533172     3A    -11.367088
       4A    -11.280623     5A    -11.232102     6A    -11.224630
       7A    -11.220721     8A    -11.206892     9A     -1.471422
      10A     -1.365564    11A     -1.085172    12A     -1.028118
      13A     -0.981246    14A     -0.888517    15A     -0.802768
      16A     -0.779526    17A     -0.693860    18A     -0.689427
      19A     -0.670026    20A     -0.621151    21A     -0.602370
      22A     -0.596153    23A     -0.575520    24A     -0.556716
      25A     -0.543622    26A     -0.535032    27A     -0.512007
      28A     -0.482231    29A     -0.476420    30A     -0.470216
      31A     -0.450088    32A     -0.441530

  @DF-RHF Final Energy:  -384.08425601627175

   => Energetics <=

    Nuclear Repulsion Energy =            392.9147314698523132
    One-Electron Energy =               -1302.0410446398930162
    Two-Electron Energy =                 525.0420571537689511
    DFT Exchange-Correlation Energy =       0.0000000000000000
    Empirical Dispersion Energy =           0.0000000000000000
    PCM Polarization Energy =               0.0000000000000000
    EFP Energy =                            0.0000000000000000
    Total Energy =                       -384.0842560162717518
    Molecular point group: c1
  Basis Set: CC-PVTZ
  Basis Set:

  -Total Gradient:
     Atom            X                  Y                   Z
    ------   -----------------  -----------------  -----------------
       1       -0.000026427851    -0.000038478646    -0.000035876085
       2       -0.000024579566     0.000025364055     0.000052423081
       3        0.000023411506     0.000002307236    -0.000039193621
       4        0.000034685903     0.000012300433    -0.000046345460
       5        0.000006115061     0.000009281757     0.000012547744
       6       -0.000010220628    -0.000004322239     0.000003944967
       7       -0.000003340557    -0.000013366324     0.000006663011
       8        0.000129786470    -0.000419030968    -0.000135790148
       9       -0.000216128731     0.000473949611     0.000246825549
      10       -0.000010104349     0.000014750407    -0.000019501900
      11        0.000012831150     0.000001421526    -0.000022995297
      12        0.000035874652     0.000411200310     0.000465304691
      13        0.000003877471    -0.000010325459     0.000015399064
      14       -0.000020053255    -0.000011254388    -0.000001047106
      15        0.000054552112    -0.000007545678    -0.000002819331
      16        0.000049214951    -0.000480533167    -0.000477749845
      17        0.000005263619     0.000000950167    -0.000018787283
      18        0.000018528768     0.000024111388    -0.000013221994
      19       -0.000000604756     0.000004467772     0.000022461850
      20       -0.000062681978     0.000004752207    -0.000012241885

  **** Optimization is complete! (in 7 steps) ****
    Final optimized geometry and variables:
    Molecular point group: c1

    Geometry (in Angstrom), charge = 0, multiplicity = 1:

    O           -2.208503179932    -1.112357780408    -0.424466911137
    C           -1.729746154820    -0.110799798989    -0.013752234156
    C           -2.490556498067     1.158908193269     0.244540231467
    O           -0.447211983085     0.022332532391     0.274134609414
    H           -2.087373059844     1.955054376007    -0.368188598662
    H           -3.533013963795     1.008100099119     0.016018719380
    H           -2.373006308368     1.449668303014     1.280355055884
    C            0.392659509625    -1.110065698146     0.087164124465
    C            1.809730877352    -0.770712563595     0.506371601484
    H            0.351161950997    -1.411216013164    -0.951084856000
    H            0.006848460585    -1.925783998148     0.681930689242
    C            2.577333739043     0.191447118333    -0.406418158954
    H            2.344671860617    -1.715429197044     0.533690472036
    H            1.798815789614    -0.394046733490     1.524531793728
    C            2.224244727294     1.668927143262    -0.253891959764
    H            3.636564696588     0.066405577482    -0.205470542978
    H            2.434619278575    -0.111615792537    -1.440423958934
    H            2.862563880106     2.277356230992    -0.884750296299
    H            2.364796528756     1.996398836979     0.770959950641
    H            1.196841167178     1.867899850219    -0.524567597309

  Mulliken Charges: (a.u.)
   Center  Symbol    Alpha    Beta     Spin     Total
       1     O     4.19725  4.19725  0.00000 -0.39451
       2     C     2.80939  2.80939  0.00000  0.38122
       3     C     3.13937  3.13937  0.00000 -0.27874
       4     O     4.15274  4.15274  0.00000 -0.30549
       5     H     0.44654  0.44654  0.00000  0.10692
       6     H     0.43654  0.43654  0.00000  0.12693
       7     H     0.44544  0.44544  0.00000  0.10912
       8     C     2.99094  2.99094  0.00000  0.01812
       9     C     3.09262  3.09262  0.00000 -0.18524
      10     H     0.45210  0.45210  0.00000  0.09580
      11     H     0.44428  0.44428  0.00000  0.11144
      12     C     3.09040  3.09040  0.00000 -0.18080
      13     H     0.44568  0.44568  0.00000  0.10865
      14     H     0.45165  0.45165  0.00000  0.09670
      15     C     3.14508  3.14508  0.00000 -0.29017
      16     H     0.44813  0.44813  0.00000  0.10374
      17     H     0.45481  0.45481  0.00000  0.09039
      18     H     0.44933  0.44933  0.00000  0.10135
      19     H     0.45651  0.45651  0.00000  0.08699
      20     H     0.45120  0.45120  0.00000  0.09759

   Total alpha = 32.00000, Total beta = 32.00000, Total charge = -0.00000

*** Psi4 exiting successfully. Buy a developer a beer!
