                              Psi4 1.0.54 Driver

  ==> Input File <==

--------------------------------------------------------------------------
set {
	reference rhf
	basis cc-pvtz
}

set_num_threads( 4 )
memory 2 gb

molecule MOL {
0 1

H	 -3.232358	 -0.470330	 1.214947
O	 -2.532211	 -0.880527	 0.729920
C	 -1.473611	 -0.075804	 0.756785
C	 -0.310616	 -0.658853	 0.000791
O	 -1.489217	 0.965612	 1.316410
C	 0.926581	 0.227233	 0.000178
H	 -0.654071	 -0.857986	 -1.009215
H	 -0.100591	 -1.629811	 0.437654
C	 2.220156	 -0.582071	 -0.000088
H	 0.899945	 0.878221	 -0.866390
H	 0.900542	 0.878581	 0.866486
C	 3.466689	 0.296012	 -0.000457
H	 2.239073	 -1.234095	 -0.869382
H	 2.239505	 -1.233985	 0.869270
H	 3.493549	 0.935857	 -0.875887
H	 4.368821	 -0.304526	 -0.001199
H	 3.494559	 0.935166	 0.875458

	symmetry c1
}
set optking {
	frozen_dihedral = ("
		7 4 6 10
	")
}

ee,wfn = optimize('scf', return_wfn=True)
oeprop( wfn, 'DIPOLE', 'QUADRUPOLE', 'MULLIKEN_CHARGES')
f=open( 'psi4out.xyz', 'w' )
f.write( "17  " )
f.write( str(ee) + "\n" )
f.write( MOL.save_string_xyz() )
f.close()
--------------------------------------------------------------------------

    Molecular point group: c1
  Charge       = 0
  Multiplicity = 1
  Basis Set: CC-PVTZ
  Basis Set:
  @DF-RHF Final Energy:  -345.04601479770923
    Total Energy =                       -345.0460147977092902
    Molecular point group: c1
  Basis Set: CC-PVTZ
  Basis Set:
  Basis Set: CC-PVTZ
  Basis Set:
  @DF-RHF Final Energy:  -345.04620894714884
    Total Energy =                       -345.0462089471490685
  Basis Set: CC-PVTZ
  Basis Set:
  Basis Set: CC-PVTZ
  Basis Set:
  @DF-RHF Final Energy:  -345.04611240338761
    Total Energy =                       -345.0461124033877240
  Basis Set: CC-PVTZ
  Basis Set:
  Basis Set: CC-PVTZ
  Basis Set:
  @DF-RHF Final Energy:  -345.04633141462983
    Total Energy =                       -345.0463314146298899
  Basis Set: CC-PVTZ
  Basis Set:
  Basis Set: CC-PVTZ
  Basis Set:
  @DF-RHF Final Energy:  -345.04633426827360
    Total Energy =                       -345.0463342682738244
  Basis Set: CC-PVTZ
  Basis Set:
  Charge       = 0
  Multiplicity = 1
  Basis Set: CC-PVTZ
  Basis Set:

    Orbital Energies (a.u.)
    -----------------------

    Doubly Occupied:

       1A    -20.604099     2A    -20.541032     3A    -11.373929
       4A    -11.239626     5A    -11.220700     6A    -11.220051
       7A    -11.210233     8A     -1.477890     9A     -1.369316
      10A     -1.091461    11A     -1.019396    12A     -0.915010
      13A     -0.824766    14A     -0.790244    15A     -0.704390
      16A     -0.690835    17A     -0.667510    18A     -0.631573
      19A     -0.592227    20A     -0.585218    21A     -0.577842
      22A     -0.534738    23A     -0.512988    24A     -0.485065
      25A     -0.482762    26A     -0.474890    27A     -0.471369
      28A     -0.446753

  @DF-RHF Final Energy:  -345.04633439595113

   => Energetics <=

    Nuclear Repulsion Energy =            304.8961576986152977
    One-Electron Energy =               -1074.3731568549701478
    Two-Electron Energy =                 424.4306647604038290
    DFT Exchange-Correlation Energy =       0.0000000000000000
    Empirical Dispersion Energy =           0.0000000000000000
    PCM Polarization Energy =               0.0000000000000000
    EFP Energy =                            0.0000000000000000
    Total Energy =                       -345.0463343959510212
    Molecular point group: c1
  Basis Set: CC-PVTZ
  Basis Set:

  -Total Gradient:
     Atom            X                  Y                   Z
    ------   -----------------  -----------------  -----------------
       1       -0.000014855093    -0.000001379212     0.000000980090
       2        0.000001837894     0.000000434747     0.000001600777
       3        0.000013851696    -0.000056881985    -0.000008474000
       4        0.003076328961    -0.004252893662    -0.000559240181
       5       -0.000003451691     0.000052037985     0.000009964904
       6       -0.002738397126     0.003777777661     0.002363855547
       7       -0.002100540519     0.002917885333     0.000114460492
       8       -0.000006672278     0.000017336059    -0.000007144495
       9       -0.000000139639     0.000000088702    -0.000046604102
      10        0.001774402728    -0.002438898610    -0.001877126916
      11       -0.000005155858    -0.000013205466    -0.000014488886
      12        0.000005876208     0.000001310307     0.000027302483
      13        0.000001053468     0.000003053804     0.000000803965
      14       -0.000003476695    -0.000002279563    -0.000010300842
      15       -0.000004523976    -0.000010414994     0.000006104304
      16        0.000000251807     0.000000859683     0.000007418580
      17        0.000003610118     0.000005169216    -0.000009111721

  **** Optimization is complete! (in 6 steps) ****
    Final optimized geometry and variables:
    Molecular point group: c1

    Geometry (in Angstrom), charge = 0, multiplicity = 1:

    H           -3.332814848082    -0.378267404821     0.727700076365
    O           -2.613893875668    -0.785492735567     0.268350647387
    C           -1.559334937924     0.022574337771     0.336783585302
    C           -0.368354669810    -0.564219044959    -0.377071720853
    O           -1.601578819290     1.062130381255     0.898437562481
    C            0.870769871653     0.330595930939    -0.363488948710
    H           -0.704252664091    -0.763056289145    -1.388699074689
    H           -0.175293238379    -1.528596370819     0.079432855736
    C            2.168492630688    -0.475032781777    -0.406509554713
    H            0.848483727682     0.984339577874    -1.228868104330
    H            0.856595490620     0.960999423575     0.514785279216
    C            3.410658853518     0.407477573861    -0.451613044704
    H            2.161224762471    -1.131565488568    -1.272855630797
    H            2.217401304339    -1.121844147759     0.465305660042
    H            3.411117648409     1.037722561453    -1.334554916593
    H            4.315051982820    -0.189385320638    -0.470873499516
    H            3.459657903457     1.056503180832     0.416075096178

  Mulliken Charges: (a.u.)
   Center  Symbol    Alpha    Beta     Spin     Total
       1     H     0.38252  0.38252  0.00000  0.23496
       2     O     4.16030  4.16030  0.00000 -0.32060
       3     C     2.80229  2.80229  0.00000  0.39542
       4     C     3.11364  3.11364  0.00000 -0.22727
       5     O     4.19039  4.19039  0.00000 -0.38078
       6     C     3.08793  3.08793  0.00000 -0.17586
       7     H     0.43531  0.43531  0.00000  0.12939
       8     H     0.43772  0.43772  0.00000  0.12455
       9     C     3.08661  3.08661  0.00000 -0.17323
      10     H     0.45225  0.45225  0.00000  0.09550
      11     H     0.43726  0.43726  0.00000  0.12548
      12     C     3.14941  3.14941  0.00000 -0.29883
      13     H     0.45435  0.45435  0.00000  0.09131
      14     H     0.45449  0.45449  0.00000  0.09101
      15     H     0.45452  0.45452  0.00000  0.09096
      16     H     0.44806  0.44806  0.00000  0.10388
      17     H     0.45295  0.45295  0.00000  0.09410

   Total alpha = 28.00000, Total beta = 28.00000, Total charge = -0.00000

*** Psi4 exiting successfully. Buy a developer a beer!
