  ==> Input File <==

--------------------------------------------------------------------------
set {
	reference rhf
	basis 6-31G*
}

set_num_threads( 1 )
memory 2 gb

molecule MOL {
0 1

H	 2.597547	 -0.628912	 -1.034320
N	 2.434251	 -0.367735	 -0.081097
C	 1.267428	 0.496480	 0.024474
H	 3.256447	 0.112553	 0.232323
C	 -0.016086	 -0.325158	 -0.029487
H	 1.288818	 1.183521	 -0.816092
H	 1.267576	 1.109062	 0.929528
C	 -1.282277	 0.529072	 0.046735
H	 -0.012495	 -0.908639	 -0.945788
H	 -0.015903	 -1.041248	 0.791956
C	 -2.563920	 -0.301775	 -0.006060
H	 -1.284084	 1.244622	 -0.773004
H	 -1.271387	 1.115393	 0.963286
H	 -2.621848	 -0.873522	 -0.927727
H	 -3.445135	 0.329952	 0.047812
H	 -2.609542	 -1.004582	 0.821105

	symmetry c1
}
set optking {
	frozen_dihedral = ("
		6 3 5 9,
		12 8 5 9
	")
}

ee = energy('scf')
oeprop('DIPOLE', 'QUADRUPOLE', 'MULLIKEN_CHARGES')
f=open( 'psi4out.xyz', 'w' )
f.write( "16  " )
f.write( str(ee) + "\n" )
f.write( MOL.save_string_xyz() )
f.close()
--------------------------------------------------------------------------

    Molecular point group: c1

    Geometry (in Angstrom), charge = 0, multiplicity = 1:

       Center              X                  Y                   Z               Mass
    ------------   -----------------  -----------------  -----------------  -----------------
           H          2.596501297436    -0.632704649371    -1.014834928896     1.007825032070
           N          2.433205297436    -0.371527649371    -0.061611928896    14.003074004780
           C          1.266382297436     0.492687350629     0.043959071104    12.000000000000
           H          3.255401297436     0.108760350629     0.251808071104     1.007825032070
           C         -0.017131702564    -0.328950649371    -0.010001928896    12.000000000000
           H          1.287772297436     1.179728350629    -0.796606928896     1.007825032070
           H          1.266530297436     1.105269350629     0.949013071104     1.007825032070
           C         -1.283322702564     0.525279350629     0.066220071104    12.000000000000
           H         -0.013540702564    -0.912431649371    -0.926302928896     1.007825032070
           H         -0.016948702564    -1.045040649371     0.811441071104     1.007825032070
           C         -2.564965702564    -0.305567649371     0.013425071104    12.000000000000
           H         -1.285129702564     1.240829350629    -0.753518928896     1.007825032070
           H         -1.272432702564     1.111600350629     0.982771071104     1.007825032070
           H         -2.622893702564    -0.877314649371    -0.908241928896     1.007825032070
           H         -3.446180702564     0.326159350629     0.067297071104     1.007825032070
           H         -2.610587702564    -1.008374649371     0.840590071104     1.007825032070

  Charge       = 0
  Multiplicity = 1
  Basis Set: 6-31G*
  Basis Set:

    Orbital Energies (a.u.)
    -----------------------

    Doubly Occupied:

       1A    -15.531377     2A    -11.240410     3A    -11.213695
       4A    -11.206985     5A    -11.206940     6A     -1.176437
       7A     -1.058363     8A     -0.957888     9A     -0.842659
      10A     -0.789582    11A     -0.669191    12A     -0.629385
      13A     -0.606606    14A     -0.577516    15A     -0.561019
      16A     -0.528293    17A     -0.498413    18A     -0.469958
      19A     -0.466531    20A     -0.458633    21A     -0.376975

  @DF-RHF Final Energy:  -212.31430397868061

   => Energetics <=

    Nuclear Repulsion Energy =            186.1871187367636082
    One-Electron Energy =                -654.8691571497686255
    Two-Electron Energy =                 256.3677344343241771
    DFT Exchange-Correlation Energy =       0.0000000000000000
    Empirical Dispersion Energy =           0.0000000000000000
    PCM Polarization Energy =               0.0000000000000000
    EFP Energy =                            0.0000000000000000
    Total Energy =                       -212.3143039786808117

  Mulliken Charges: (a.u.)
   Center  Symbol    Alpha    Beta     Spin     Total
       1     H     0.33348  0.33348  0.00000  0.33305
       2     N     3.92228  3.92228  0.00000 -0.84455
       3     C     3.06576  3.06576  0.00000 -0.13152
       4     H     0.33257  0.33257  0.00000  0.33485
       5     C     3.14418  3.14418  0.00000 -0.28837
       6     H     0.43326  0.43326  0.00000  0.13348
       7     H     0.42077  0.42077  0.00000  0.15847
       8     C     3.15644  3.15644  0.00000 -0.31289
       9     H     0.42644  0.42644  0.00000  0.14713
      10     H     0.41587  0.41587  0.00000  0.16825
      11     C     3.23839  3.23839  0.00000 -0.47677
      12     H     0.42437  0.42437  0.00000  0.15127
      13     H     0.42357  0.42357  0.00000  0.15286
      14     H     0.42178  0.42178  0.00000  0.15644
      15     H     0.42002  0.42002  0.00000  0.15996
      16     H     0.42083  0.42083  0.00000  0.15835

   Total alpha = 21.00000, Total beta = 21.00000, Total charge = -0.00000
