  ==> Input File <==

--------------------------------------------------------------------------
set {
	reference rhf
	basis 6-31G*
}

set_num_threads( 1 )
memory 2 gb

molecule MOL {
0 1

H	 -0.000158	 1.970498	 0.756846
O	 -0.000074	 1.880206	 -0.189275
C	 -0.000015	 0.544847	 -0.545111
C	 -1.278788	 -0.123820	 -0.051541
C	 1.278802	 -0.123718	 -0.051505
H	 -0.000001	 0.490777	 -1.623619
F	 -2.159915	 -0.167899	 -1.027869
F	 -1.069535	 -1.354931	 0.364315
F	 -1.814282	 0.563012	 0.945006
F	 2.323327	 0.466644	 -0.591854
F	 1.326242	 -1.401483	 -0.363667
F	 1.388946	 -0.015632	 1.262939

	symmetry c1
}
set optking {
	frozen_dihedral = ("
		6 3 2 1
	")
}

ee = energy('scf')
oeprop('DIPOLE', 'QUADRUPOLE', 'MULLIKEN_CHARGES')
f=open( 'psi4out.xyz', 'w' )
f.write( "12  " )
f.write( str(ee) + "\n" )
f.write( MOL.save_string_xyz() )
f.close()
--------------------------------------------------------------------------

    Molecular point group: c1

    Geometry (in Angstrom), charge = 0, multiplicity = 1:

       Center              X                  Y                   Z               Mass
    ------------   -----------------  -----------------  -----------------  -----------------
           H          0.000440035411     1.971512658958     0.759770311947     1.007825032070
           O          0.000524035411     1.881220658958    -0.186350688053    15.994914619560
           C          0.000583035411     0.545861658958    -0.542186688053    12.000000000000
           C         -1.278189964589    -0.122805341042    -0.048616688053    12.000000000000
           C          1.279400035411    -0.122703341042    -0.048580688053    12.000000000000
           H          0.000597035411     0.491791658958    -1.620694688053     1.007825032070
           F         -2.159316964589    -0.166884341042    -1.024944688053    18.998403224000
           F         -1.068936964589    -1.353916341042     0.367239311947    18.998403224000
           F         -1.813683964589     0.564026658958     0.947930311947    18.998403224000
           F          2.323925035411     0.467658658958    -0.588929688053    18.998403224000
           F          1.326840035411    -1.400468341042    -0.360742688053    18.998403224000
           F          1.389544035411    -0.014617341042     1.265863311947    18.998403224000

  Charge       = 0
  Multiplicity = 1
  Basis Set: 6-31G*
  Basis Set:

    Orbital Energies (a.u.)
    -----------------------

    Doubly Occupied:

       1A    -26.363526     2A    -26.362508     3A    -26.362113
       4A    -26.359501     5A    -26.359487     6A    -26.357464
       7A    -20.614308     8A    -11.526411     9A    -11.524588
      10A    -11.347686    11A     -1.765331    12A     -1.758512
      13A     -1.662202    14A     -1.658763    15A     -1.657780
      16A     -1.654320    17A     -1.433430    18A     -1.101527
      19A     -0.997277    20A     -0.937599    21A     -0.866151
      22A     -0.861155    23A     -0.851760    24A     -0.845541
      25A     -0.834170    26A     -0.814710    27A     -0.738432
      28A     -0.730412    29A     -0.725287    30A     -0.721866
      31A     -0.688029    32A     -0.687464    33A     -0.681700
      34A     -0.676779    35A     -0.668910    36A     -0.661060
      37A     -0.657371    38A     -0.649104    39A     -0.618715
      40A     -0.550572    41A     -0.504857

  @DF-RHF Final Energy:  -786.27279904039597

   => Energetics <=

    Nuclear Repulsion Energy =            670.9944245476322067
    One-Electron Energy =               -2428.8575778820759297
    Two-Electron Energy =                 971.5903542940475290
    DFT Exchange-Correlation Energy =       0.0000000000000000
    Empirical Dispersion Energy =           0.0000000000000000
    PCM Polarization Energy =               0.0000000000000000
    EFP Energy =                            0.0000000000000000
    Total Energy =                       -786.2727990403961940

  Mulliken Charges: (a.u.)
   Center  Symbol    Alpha    Beta     Spin     Total
       1     H     0.26578  0.26578  0.00000  0.46844
       2     O     4.36118  4.36118  0.00000 -0.72236
       3     C     3.07007  3.07007  0.00000 -0.14013
       4     C     2.42908  2.42908  0.00000  1.14184
       5     C     2.44105  2.44105  0.00000  1.11791
       6     H     0.37109  0.37109  0.00000  0.25781
       7     F     4.67694  4.67694  0.00000 -0.35388
       8     F     4.67343  4.67343  0.00000 -0.34686
       9     F     4.67963  4.67963  0.00000 -0.35926
      10     F     4.67518  4.67518  0.00000 -0.35037
      11     F     4.67449  4.67449  0.00000 -0.34898
      12     F     4.68208  4.68208  0.00000 -0.36415

   Total alpha = 41.00000, Total beta = 41.00000, Total charge = -0.00000
