  ==> Input File <==

--------------------------------------------------------------------------
set {
	reference rhf
	basis 6-31G*
}

set_num_threads( 4 )
memory 2 gb

molecule MOL {
0 1

H	 -2.646374	 -0.642757	 1.268656
C	 -2.083525	 -0.384536	 0.393091
O	 -0.807605	 -0.127164	 0.768327
F	 -2.118945	 -1.383102	 -0.486752
F	 -2.621877	 0.670592	 -0.209486
C	 -0.305413	 1.137617	 0.521708
C	 1.073738	 0.955308	 -0.098668
Cl	 -0.196518	 2.076708	 2.019528
H	 -0.915983	 1.693338	 -0.168328
F	 1.611736	 2.124331	 -0.374500
F	 0.946220	 0.286915	 -1.227574
F	 1.885968	 0.291594	 0.687297

	symmetry c1
}
set optking {
	frozen_dihedral = ("
		6 3 2 4
	")
}

ee = optimize('scf')
oeprop('DIPOLE', 'QUADRUPOLE', 'MULLIKEN_CHARGES')
f=open( 'psi4out.xyz', 'w' )
f.write( "12  " )
f.write( str(ee) + "\n" )
f.write( MOL.save_string_xyz() )
f.close()
--------------------------------------------------------------------------

    Molecular point group: c1
  Charge       = 0
  Multiplicity = 1
  Basis Set: 6-31G*
  Basis Set:
  @DF-RHF Final Energy: -1146.30595641772697
    Total Energy =                      -1146.3059564177272023
    Molecular point group: c1
  Basis Set: 6-31G*
  Basis Set:
  Basis Set: 6-31G*
  Basis Set:
  @DF-RHF Final Energy: -1146.30647529801558
    Total Energy =                      -1146.3064752980162666
  Basis Set: 6-31G*
  Basis Set:
  Basis Set: 6-31G*
  Basis Set:
  @DF-RHF Final Energy: -1146.30872095121049
    Total Energy =                      -1146.3087209512113986
  Basis Set: 6-31G*
  Basis Set:
  Basis Set: 6-31G*
  Basis Set:
  @DF-RHF Final Energy: -1146.30910143725532
    Total Energy =                      -1146.3091014372557765
  Basis Set: 6-31G*
  Basis Set:
  @DF-RHF Final Energy: -1146.30935049693494
    Total Energy =                      -1146.3093504969347123
  @DF-RHF Final Energy: -1146.30954627537881
    Total Energy =                      -1146.3095462753792617
  Basis Set: 6-31G*
  Basis Set:
  @DF-RHF Final Energy: -1146.30955015911354
    Total Energy =                      -1146.3095501591139964
  Basis Set: 6-31G*
  Basis Set:
  Basis Set: 6-31G*
  Basis Set:
  @DF-RHF Final Energy: -1146.30959015712460
    Total Energy =                      -1146.3095901571239210
  Basis Set: 6-31G*
  Basis Set:
  Basis Set: 6-31G*
  Basis Set:
  @DF-RHF Final Energy: -1146.30959693071941
    Total Energy =                      -1146.3095969307184987
  Basis Set: 6-31G*
  Basis Set:
  Charge       = 0
  Multiplicity = 1
  Basis Set: 6-31G*
  Basis Set:

    Orbital Energies (a.u.)
    -----------------------

    Doubly Occupied:

       1A   -104.844441     2A    -26.360062     3A    -26.358234
       4A    -26.357605     5A    -26.356092     6A    -26.342249
       7A    -20.646473     8A    -11.528330     9A    -11.492061
      10A    -11.403119    11A    -10.579304    12A     -8.048617
      13A     -8.045183    14A     -8.045042    15A     -1.761218
      16A     -1.720828    17A     -1.657628    18A     -1.656100
      19A     -1.642849    20A     -1.483019    21A     -1.177642
      22A     -1.056302    23A     -0.986073    24A     -0.919019
      25A     -0.860004    26A     -0.848923    27A     -0.842196
      28A     -0.835669    29A     -0.813708    30A     -0.793340
      31A     -0.727531    32A     -0.725554    33A     -0.700135
      34A     -0.697809    35A     -0.682111    36A     -0.673773
      37A     -0.662534    38A     -0.658051    39A     -0.656509
      40A     -0.632481    41A     -0.601636    42A     -0.575916
      43A     -0.512143    44A     -0.479388    45A     -0.471037

  @DF-RHF Final Energy: -1146.30959718292024

   => Energetics <=

    Nuclear Repulsion Energy =            732.2182610060322077
    One-Electron Energy =               -3047.2198377027825700
    Two-Electron Energy =                1168.6919795138310292
    DFT Exchange-Correlation Energy =       0.0000000000000000
    Empirical Dispersion Energy =           0.0000000000000000
    PCM Polarization Energy =               0.0000000000000000
    EFP Energy =                            0.0000000000000000
    Total Energy =                      -1146.3095971829193331
    Molecular point group: c1
  Basis Set: 6-31G*
  Basis Set:

  -Total Gradient:
     Atom            X                  Y                   Z
    ------   -----------------  -----------------  -----------------
       1       -0.000008726194    -0.000013236562    -0.000005369289
       2       -0.000070348505     0.000357096859    -0.000056706192
       3        0.000094423388    -0.000129890751    -0.000405772522
       4        0.000018013708    -0.000189596679     0.000181792795
       5       -0.000000288289    -0.000052642836    -0.000013979263
       6       -0.000031158780     0.000026371419     0.000300704390
       7        0.000028849768     0.000034451343     0.000018390401
       8        0.000002386678     0.000003327090     0.000003148219
       9       -0.000006562925    -0.000009722259    -0.000010646570
      10       -0.000007971967     0.000007122929    -0.000001508777
      11       -0.000009314958    -0.000014534896    -0.000008035858
      12       -0.000009301915    -0.000018745619    -0.000002017393

  **** Optimization is complete! (in 10 steps) ****
    Final optimized geometry and variables:
    Molecular point group: c1

    Geometry (in Angstrom), charge = 0, multiplicity = 1:

    H           -2.213286167825    -1.531954726267     1.022759007149
    C           -1.850278420774    -1.119831556732     0.099922313191
    O           -0.511234795720    -0.861604452613     0.188452768733
    F           -2.044136390798    -1.988743048094    -0.877858279578
    F           -2.533085948815    -0.018963411728    -0.196889356518
    C           -0.012692865756     0.406225737659     0.020135151030
    C            1.436235792226     0.239722570216    -0.421148793099
    CL          -0.097166815397     1.348824621129     1.528895182763
    H           -0.536678087595     0.966178492141    -0.732696052343
    F            1.991217379458     1.417925123946    -0.611450226043
    F            1.461345810062    -0.412163704611    -1.565494047553
    F            2.149338828555    -0.426004301217     0.453707653257

  Mulliken Charges: (a.u.)
   Center  Symbol    Alpha    Beta     Spin     Total
       1     H     0.40901  0.40901  0.00000  0.18197
       2     C     2.56176  2.56176  0.00000  0.87647
       3     O     4.30914  4.30914  0.00000 -0.61828
       4     F     4.67355  4.67355  0.00000 -0.34710
       5     F     4.68264  4.68264  0.00000 -0.36529
       6     C     3.03453  3.03453  0.00000 -0.06906
       7     C     2.43228  2.43228  0.00000  1.13544
       8    CL     8.51212  8.51212  0.00000 -0.02424
       9     H     0.36703  0.36703  0.00000  0.26594
      10     F     4.67464  4.67464  0.00000 -0.34929
      11     F     4.67524  4.67524  0.00000 -0.35049
      12     F     4.66804  4.66804  0.00000 -0.33608

   Total alpha = 45.00000, Total beta = 45.00000, Total charge =  0.00000
