                              Psi4 1.0.54 Driver

  ==> Input File <==

--------------------------------------------------------------------------
set {
	reference rhf
	basis cc-pvtz
}

set_num_threads( 4 )
memory 2 gb

molecule MOL {
0 1

O	 1.847685	 1.294399	 -0.000190
C	 1.704209	 0.119472	 -0.000093
C	 0.380337	 -0.600947	 -0.000234
O	 2.715427	 -0.733672	 0.000025
C	 -0.824290	 0.329213	 -0.000115
H	 0.371455	 -1.255476	 -0.865660
H	 0.371410	 -1.255787	 0.864952
C	 -2.140371	 -0.425319	 -0.163305
H	 -0.714924	 1.055575	 -0.797430
H	 -0.837320	 0.896813	 0.923438
C	 -3.360455	 0.491121	 -0.165042
H	 -2.119780	 -0.994406	 -1.090109
H	 -2.242342	 -1.154307	 0.637579
C	 -4.675797	 -0.262887	 -0.328630
H	 -3.260128	 1.219041	 -0.965182
H	 -3.382933	 1.058829	 0.760897
H	 -4.697924	 -0.813805	 -1.263100
H	 -5.520383	 0.416377	 -0.325875
H	 -4.821897	 -0.975005	 0.476837
C	 4.020999	 -0.192556	 0.000019
H	 4.182809	 0.412891	 -0.879449
H	 4.692590	 -1.035653	 0.000152
H	 4.182726	 0.413087	 0.879368

	symmetry c1
}
set optking {
	frozen_dihedral = ("
		9 5 3 6
	")
}

ee,wfn = optimize('scf', return_wfn=True)
oeprop( wfn, 'DIPOLE', 'QUADRUPOLE', 'MULLIKEN_CHARGES')
f=open( 'psi4out.xyz', 'w' )
f.write( "23  " )
f.write( str(ee) + "\n" )
f.write( MOL.save_string_xyz() )
f.close()
--------------------------------------------------------------------------

    Molecular point group: c1
  Charge       = 0
  Multiplicity = 1
  Basis Set: CC-PVTZ
  Basis Set:
  @DF-RHF Final Energy:  -423.13094956646398
    Total Energy =                       -423.1309495664639826
    Molecular point group: c1
  Basis Set: CC-PVTZ
  Basis Set:
  Basis Set: CC-PVTZ
  Basis Set:
  @DF-RHF Final Energy:  -423.13096724543306
    Total Energy =                       -423.1309672454326574
  Basis Set: CC-PVTZ
  Basis Set:
  Basis Set: CC-PVTZ
  Basis Set:
  @DF-RHF Final Energy:  -423.13096851957954
    Total Energy =                       -423.1309685195801649
  Basis Set: CC-PVTZ
  Basis Set:
  Basis Set: CC-PVTZ
  Basis Set:
  @DF-RHF Final Energy:  -423.13096228091160
    Total Energy =                       -423.1309622809117172
  Basis Set: CC-PVTZ
  Basis Set:
  Basis Set: CC-PVTZ
  Basis Set:
  @DF-RHF Final Energy:  -423.13097213946793
    Total Energy =                       -423.1309721394675307
  Basis Set: CC-PVTZ
  Basis Set:
  Charge       = 0
  Multiplicity = 1
  Basis Set: CC-PVTZ
  Basis Set:

    Orbital Energies (a.u.)
    -----------------------

    Doubly Occupied:

       1A    -20.596331     2A    -20.534177     3A    -11.364670
       4A    -11.278495     5A    -11.233715     6A    -11.217102
       7A    -11.215892     8A    -11.214530     9A    -11.207778
      10A     -1.472249    11A     -1.365828    12A     -1.094472
      13A     -1.044803    14A     -0.988082    15A     -0.932763
      16A     -0.844165    17A     -0.795697    18A     -0.769368
      19A     -0.699522    20A     -0.686726    21A     -0.675439
      22A     -0.652571    23A     -0.609540    24A     -0.601169
      25A     -0.573734    26A     -0.559545    27A     -0.558046
      28A     -0.525349    29A     -0.522195    30A     -0.508267
      31A     -0.484385    32A     -0.470362    33A     -0.467103
      34A     -0.463365    35A     -0.459067    36A     -0.438677

  @DF-RHF Final Energy:  -423.13097217908216

   => Energetics <=

    Nuclear Repulsion Energy =            452.8754300888435864
    One-Electron Energy =               -1473.7624494787562526
    Two-Electron Energy =                 597.7560472108303884
    DFT Exchange-Correlation Energy =       0.0000000000000000
    Empirical Dispersion Energy =           0.0000000000000000
    PCM Polarization Energy =               0.0000000000000000
    EFP Energy =                            0.0000000000000000
    Total Energy =                       -423.1309721790822778
    Molecular point group: c1
  Basis Set: CC-PVTZ
  Basis Set:

  -Total Gradient:
     Atom            X                  Y                   Z
    ------   -----------------  -----------------  -----------------
       1        0.000007086217    -0.000016288930    -0.000011464634
       2       -0.000015405726     0.000015471375     0.000012982890
       3        0.000875438887     0.001138964854    -0.000566317560
       4        0.000010235086    -0.000000410785    -0.000000128884
       5       -0.000814064233    -0.001066370923    -0.000738597484
       6       -0.000598639554    -0.000767507428     0.000588142283
       7        0.000000635291    -0.000001065923    -0.000004217764
       8       -0.000000481730     0.000003249501     0.000013151557
       9        0.000541442338     0.000705975158     0.000704846862
      10       -0.000004368141    -0.000009247007    -0.000000582842
      11       -0.000004715523    -0.000004689263     0.000008524608
      12        0.000000565180     0.000003392430     0.000003685390
      13       -0.000004037417    -0.000001639891    -0.000000139144
      14       -0.000001549894     0.000002499821    -0.000008663911
      15        0.000000571142    -0.000000982936     0.000001706012
      16        0.000002471561    -0.000002068545     0.000001291578
      17       -0.000001581202    -0.000003050059    -0.000000696188
      18       -0.000002229496    -0.000000100902    -0.000002872468
      19        0.000001634848     0.000003301018     0.000000859267
      20        0.000002962457    -0.000000421297    -0.000000753799
      21        0.000001274769    -0.000000068227    -0.000000013892
      22        0.000001903951     0.000001611373    -0.000000171551
      23        0.000000851194    -0.000000553409    -0.000000570326

  **** Optimization is complete! (in 6 steps) ****
    Final optimized geometry and variables:
    Molecular point group: c1

    Geometry (in Angstrom), charge = 0, multiplicity = 1:

    O            1.847765471580     1.291640227544     0.073463680681
    C            1.703008061193     0.116873900414     0.069366075820
    C            0.378738085069    -0.601783593720     0.055151267386
    O            2.713257614670    -0.737379759001     0.078198672490
    C           -0.827242406532     0.327064937625     0.048836642643
    H            0.373487297163    -1.260592435080    -0.807090136503
    H            0.361991288509    -1.257619930839     0.919664459913
    C           -2.144184076799    -0.428420045723    -0.098202672107
    H           -0.718388170225     1.050459679966    -0.750769340717
    H           -0.835764440519     0.903157326625     0.967872114601
    C           -3.365077069640     0.486768219237    -0.084723483898
    H           -2.133778854227    -0.996524947218    -1.025690243512
    H           -2.235991543384    -1.158309898093     0.703190860701
    C           -4.681231204863    -0.268091624463    -0.237385751136
    H           -3.273359477640     1.217162032333    -0.883617502261
    H           -3.378867371970     1.051576227849     0.843152547628
    H           -4.712270833750    -0.816013694731    -1.173360214133
    H           -5.526443701946     0.410278769613    -0.223884915539
    H           -4.818410441047    -0.982960087036     0.567231831791
    C            4.019273331975    -0.197711258433     0.092953322789
    H            4.190966225839     0.409521097205    -0.783421201086
    H            4.689978411438    -1.041516106288     0.098146783911
    H            4.172591900731     0.405789998487     0.975289722595

  Mulliken Charges: (a.u.)
   Center  Symbol    Alpha    Beta     Spin     Total
       1     O     4.19697  4.19697  0.00000 -0.39393
       2     C     2.80652  2.80652  0.00000  0.38695
       3     C     3.10145  3.10145  0.00000 -0.20290
       4     O     4.14646  4.14646  0.00000 -0.29293
       5     C     3.08381  3.08381  0.00000 -0.16761
       6     H     0.44047  0.44047  0.00000  0.11906
       7     H     0.43985  0.43985  0.00000  0.12029
       8     C     3.08923  3.08923  0.00000 -0.17847
       9     H     0.44461  0.44461  0.00000  0.11079
      10     H     0.44809  0.44809  0.00000  0.10381
      11     C     3.08404  3.08404  0.00000 -0.16808
      12     H     0.45558  0.45558  0.00000  0.08885
      13     H     0.45589  0.45589  0.00000  0.08821
      14     C     3.15037  3.15037  0.00000 -0.30074
      15     H     0.45310  0.45310  0.00000  0.09380
      16     H     0.45337  0.45337  0.00000  0.09326
      17     H     0.45528  0.45528  0.00000  0.08945
      18     H     0.44773  0.44773  0.00000  0.10455
      19     H     0.45537  0.45537  0.00000  0.08925
      20     C     3.03775  3.03775  0.00000 -0.07551
      21     H     0.45433  0.45433  0.00000  0.09133
      22     H     0.44534  0.44534  0.00000  0.10932
      23     H     0.45438  0.45438  0.00000  0.09124

   Total alpha = 36.00000, Total beta = 36.00000, Total charge = -0.00000

*** Psi4 exiting successfully. Buy a developer a beer!
