  ==> Input File <==

--------------------------------------------------------------------------
set {
	reference rhf
	basis 6-31G*
}

set_num_threads( 4 )
memory 2 gb

molecule MOL {
0 1

H	 1.862689	 -0.046389	 -1.179436
O	 1.654024	 -0.625927	 -0.460906
C	 1.135793	 0.118896	 0.612333
C	 0.031547	 1.023609	 0.088541
H	 1.915668	 0.729681	 1.063582
H	 0.754543	 -0.542641	 1.387006
C	 -1.134819	 0.293262	 -0.585751
H	 0.474374	 1.714721	 -0.623187
H	 -0.338529	 1.620940	 0.920081
C	 -1.917817	 -0.639439	 0.339494
H	 -0.758119	 -0.268455	 -1.433105
H	 -1.813832	 1.041889	 -0.986690
H	 -2.777680	 -1.057197	 -0.174994
H	 -1.310268	 -1.471279	 0.680599
H	 -2.283753	 -0.111424	 1.216626

	symmetry c1
}
set optking {
	frozen_dihedral = ("
		1 2 3 4
	")
}

ee = optimize('scf')
oeprop('DIPOLE', 'QUADRUPOLE', 'MULLIKEN_CHARGES')
f=open( 'psi4out.xyz', 'w' )
f.write( "15  " )
f.write( str(ee) + "\n" )
f.write( MOL.save_string_xyz() )
f.close()
--------------------------------------------------------------------------

    Molecular point group: c1
  Charge       = 0
  Multiplicity = 1
  Basis Set: 6-31G*
  Basis Set:
  @DF-RHF Final Energy:  -232.14162700438803
    Total Energy =                       -232.1416270043881696
    Molecular point group: c1
  Basis Set: 6-31G*
  Basis Set:
  Basis Set: 6-31G*
  Basis Set:
  @DF-RHF Final Energy:  -232.14319698488600
    Total Energy =                       -232.1431969848858898
  Basis Set: 6-31G*
  Basis Set:
  Basis Set: 6-31G*
  Basis Set:
  @DF-RHF Final Energy:  -232.14361009692567
    Total Energy =                       -232.1436100969258405
  Basis Set: 6-31G*
  Basis Set:
  Basis Set: 6-31G*
  Basis Set:
  @DF-RHF Final Energy:  -232.14360119441079
    Total Energy =                       -232.1436011944107918
  Basis Set: 6-31G*
  Basis Set:
  Basis Set: 6-31G*
  Basis Set:
  @DF-RHF Final Energy:  -232.14361493179140
    Total Energy =                       -232.1436149317913760
  Basis Set: 6-31G*
  Basis Set:
  Basis Set: 6-31G*
  Basis Set:
  @DF-RHF Final Energy:  -232.14361612577005
    Total Energy =                       -232.1436161257701656
  Basis Set: 6-31G*
  Basis Set:
  Charge       = 0
  Multiplicity = 1
  Basis Set: 6-31G*
  Basis Set:

    Orbital Energies (a.u.)
    -----------------------

    Doubly Occupied:

       1A    -20.553667     2A    -11.267243     3A    -11.220631
       4A    -11.216883     5A    -11.208177     6A     -1.360332
       7A     -1.068701     8A     -0.972057     9A     -0.877725
      10A     -0.789979    11A     -0.674028    12A     -0.643962
      13A     -0.633830    14A     -0.582976    15A     -0.565968
      16A     -0.541492    17A     -0.504881    18A     -0.484353
      19A     -0.473820    20A     -0.456609    21A     -0.428079

  @DF-RHF Final Energy:  -232.14361613251580

   => Energetics <=

    Nuclear Repulsion Energy =            191.7135333644377226
    One-Electron Energy =                -694.6635106879800787
    Two-Electron Energy =                 270.8063611910266673
    DFT Exchange-Correlation Energy =       0.0000000000000000
    Empirical Dispersion Energy =           0.0000000000000000
    PCM Polarization Energy =               0.0000000000000000
    EFP Energy =                            0.0000000000000000
    Total Energy =                       -232.1436161325157173
    Molecular point group: c1
  Basis Set: 6-31G*
  Basis Set:

  -Total Gradient:
     Atom            X                  Y                   Z
    ------   -----------------  -----------------  -----------------
       1       -0.001326155007    -0.000228465297    -0.000562235468
       2        0.001895279370     0.000560447783     0.000595535725
       3       -0.001185560985    -0.001002531349     0.000159335831
       4        0.000616823638     0.000677156721    -0.000189146133
       5       -0.000001977414    -0.000000818883     0.000004785092
       6        0.000003731042    -0.000001638679    -0.000000847365
       7       -0.000006660596    -0.000007031614     0.000002321876
       8       -0.000000868853     0.000006001402    -0.000003165701
       9        0.000005452290    -0.000003039324    -0.000001894280
      10        0.000002285074     0.000002285901    -0.000003380388
      11       -0.000001630359    -0.000002179560     0.000001237420
      12       -0.000002289297    -0.000000176303    -0.000000488378
      13       -0.000000724557     0.000002038358    -0.000000199893
      14       -0.000001686788    -0.000002741580    -0.000001176264
      15        0.000003982445     0.000000692427    -0.000000682073

  **** Optimization is complete! (in 7 steps) ****
    Final optimized geometry and variables:
    Molecular point group: c1

    Geometry (in Angstrom), charge = 0, multiplicity = 1:

    H            1.915755301580    -0.138362719913    -1.158218001538
    O            1.697832179709    -0.680142186589    -0.412199775621
    C            1.141669955056     0.120306270495     0.599320033082
    C            0.017778930033     1.023552513300     0.100203690809
    H            1.913416683890     0.731856403736     1.063911773243
    H            0.782409413267    -0.565821161883     1.354170958414
    C           -1.146920625579     0.292035862766    -0.576516723972
    H            0.438442996865     1.744505331623    -0.600983025117
    H           -0.351838648238     1.604728761255     0.943065107037
    C           -1.917220050803    -0.652181252557     0.347248085474
    H           -0.773812122038    -0.267183602049    -1.428835089534
    H           -1.832435215787     1.036829066234    -0.972979188571
    H           -2.775761205273    -1.073988831056    -0.165791993372
    H           -1.300040553733    -1.479432047203     0.680542302137
    H           -2.283126574808    -0.130322252086     1.227779982997

  Mulliken Charges: (a.u.)
   Center  Symbol    Alpha    Beta     Spin     Total
       1     H     0.28325  0.28325  0.00000  0.43350
       2     O     4.36954  4.36954  0.00000 -0.73909
       3     C     2.99248  2.99248  0.00000  0.01504
       4     C     3.17692  3.17692  0.00000 -0.35385
       5     H     0.42796  0.42796  0.00000  0.14407
       6     H     0.41519  0.41519  0.00000  0.16961
       7     C     3.14994  3.14994  0.00000 -0.29987
       8     H     0.42581  0.42581  0.00000  0.14837
       9     H     0.42062  0.42062  0.00000  0.15877
      10     C     3.24380  3.24380  0.00000 -0.48761
      11     H     0.41637  0.41637  0.00000  0.16726
      12     H     0.42137  0.42137  0.00000  0.15726
      13     H     0.41820  0.41820  0.00000  0.16359
      14     H     0.41470  0.41470  0.00000  0.17060
      15     H     0.42382  0.42382  0.00000  0.15235

   Total alpha = 21.00000, Total beta = 21.00000, Total charge = -0.00000
