  ==> Input File <==

--------------------------------------------------------------------------
set {
	reference rhf
	basis 6-31G*
}

set_num_threads( 1 )
memory 2 gb

molecule MOL {
0 1

H	 -2.798360	 -0.862255	 -0.071053
N	 -1.863561	 -0.715187	 0.256814
C	 -1.344686	 0.554728	 -0.219830
H	 -1.300452	 -1.461917	 -0.101532
C	 -2.488136	 1.461177	 -0.624811
H	 -0.731524	 1.081189	 0.512886
H	 -0.724306	 0.370788	 -1.091653
O	 -3.238551	 1.757799	 0.517984
H	 -2.102337	 2.379008	 -1.067963
H	 -3.108660	 0.959166	 -1.363843
C	 -4.377930	 2.519620	 0.275054
H	 -4.870605	 2.684655	 1.223596
H	 -4.126034	 3.484056	 -0.162431
H	 -5.064485	 2.005708	 -0.394532

	symmetry c1
}
set optking {
	frozen_dihedral = ("
		8 5 3 6,
		5 8 11 13,
		11 8 5 3
	")
}

ee = energy('scf')
oeprop('DIPOLE', 'QUADRUPOLE', 'MULLIKEN_CHARGES')
f=open( 'psi4out.xyz', 'w' )
f.write( "14  " )
f.write( str(ee) + "\n" )
f.write( MOL.save_string_xyz() )
f.close()
--------------------------------------------------------------------------

    Molecular point group: c1

    Geometry (in Angstrom), charge = 0, multiplicity = 1:

       Center              X                  Y                   Z               Mass
    ------------   -----------------  -----------------  -----------------  -----------------
           H         -0.114861361255    -1.971256556729    -0.104489625101     1.007825032070
           N          0.819937638745    -1.824188556729     0.223377374899    14.003074004780
           C          1.338812638745    -0.554273556729    -0.253266625101    12.000000000000
           H          1.383046638745    -2.570918556729    -0.134968625101     1.007825032070
           C          0.195362638745     0.352175443271    -0.658247625101    12.000000000000
           H          1.951974638745    -0.027812556729     0.479449374899     1.007825032070
           H          1.959192638745    -0.738213556729    -1.125089625101     1.007825032070
           O         -0.555052361255     0.648797443271     0.484547374899    15.994914619560
           H          0.581161638745     1.270006443271    -1.101399625101     1.007825032070
           H         -0.425161361255    -0.149835556729    -1.397279625101     1.007825032070
           C         -1.694431361255     1.410618443271     0.241617374899    12.000000000000
           H         -2.187106361255     1.575653443271     1.190159374899     1.007825032070
           H         -1.442535361255     2.375054443271    -0.195867625101     1.007825032070
           H         -2.380986361255     0.896706443271    -0.427968625101     1.007825032070

  Charge       = 0
  Multiplicity = 1
  Basis Set: 6-31G*
  Basis Set:

    Orbital Energies (a.u.)
    -----------------------

    Doubly Occupied:

       1A    -20.556271     2A    -15.528042     3A    -11.272179
       4A    -11.266075     5A    -11.242214     6A     -1.380958
       7A     -1.176531     8A     -1.000097     9A     -0.906584
      10A     -0.822605    11A     -0.686770    12A     -0.669742
      13A     -0.650552    14A     -0.609315    15A     -0.584784
      16A     -0.575714    17A     -0.523157    18A     -0.498464
      19A     -0.471665    20A     -0.419988    21A     -0.374916

  @DF-RHF Final Energy:  -248.11544806030963

   => Energetics <=

    Nuclear Repulsion Energy =            194.7208871600490170
    One-Electron Energy =                -723.2393307712671913
    Two-Electron Energy =                 280.4029955509080310
    DFT Exchange-Correlation Energy =       0.0000000000000000
    Empirical Dispersion Energy =           0.0000000000000000
    PCM Polarization Energy =               0.0000000000000000
    EFP Energy =                            0.0000000000000000
    Total Energy =                       -248.1154480603100865

  Mulliken Charges: (a.u.)
   Center  Symbol    Alpha    Beta     Spin     Total
       1     H     0.33060  0.33060  0.00000  0.33880
       2     N     3.91828  3.91828  0.00000 -0.83656
       3     C     3.05600  3.05600  0.00000 -0.11199
       4     H     0.33474  0.33474  0.00000  0.33051
       5     C     3.00436  3.00436  0.00000 -0.00871
       6     H     0.41220  0.41220  0.00000  0.17561
       7     H     0.43145  0.43145  0.00000  0.13710
       8     O     4.29897  4.29897  0.00000 -0.59794
       9     H     0.42743  0.42743  0.00000  0.14514
      10     H     0.43488  0.43488  0.00000  0.13025
      11     C     3.07923  3.07923  0.00000 -0.15847
      12     H     0.41001  0.41001  0.00000  0.17997
      13     H     0.43054  0.43054  0.00000  0.13893
      14     H     0.43132  0.43132  0.00000  0.13736

   Total alpha = 21.00000, Total beta = 21.00000, Total charge =  0.00000
