  ==> Input File <==

--------------------------------------------------------------------------
set {
	reference rhf
	basis 6-31G*
}

set_num_threads( 4 )
memory 2 gb

molecule MOL {
0 1

H	 -3.317581	 -0.122948	 1.558583
C	 -3.349536	 -0.198523	 0.464559
C	 -2.660244	 0.921717	 -0.272021
O	 -3.899803	 -1.114507	 -0.054990
C	 -1.220012	 1.144545	 0.209990
H	 -2.696438	 0.706321	 -1.333626
H	 -3.241126	 1.826057	 -0.094820
C	 -0.252658	 0.041456	 -0.226725
H	 -0.873521	 2.100229	 -0.171974
H	 -1.211708	 1.231594	 1.295398
C	 1.180775	 0.282413	 0.250794
H	 -0.266029	 -0.034465	 -1.312038
H	 -0.597733	 -0.921000	 0.146291
C	 2.148627	 -0.814315	 -0.201312
H	 1.516199	 1.249228	 -0.115937
H	 1.192670	 0.346017	 1.338083
C	 3.580890	 -0.659131	 0.322722
H	 2.166869	 -0.852443	 -1.289387
H	 1.762857	 -1.776509	 0.128956
C	 4.324889	 0.564933	 -0.213704
H	 4.142010	 -1.551473	 0.056605
H	 3.564836	 -0.624694	 1.410140
H	 4.342616	 0.565491	 -1.300421
H	 3.866655	 1.493402	 0.110242
H	 5.353900	 0.572371	 0.132816

	symmetry c1
}
set optking {
	frozen_dihedral = ("
		6 3 5 8
	")
}

ee = optimize('scf')
oeprop('DIPOLE', 'QUADRUPOLE', 'MULLIKEN_CHARGES')
f=open( 'psi4out.xyz', 'w' )
f.write( "25  " )
f.write( str(ee) + "\n" )
f.write( MOL.save_string_xyz() )
f.close()
--------------------------------------------------------------------------

    Molecular point group: c1
  Charge       = 0
  Multiplicity = 1
  Basis Set: 6-31G*
  Basis Set:
  @DF-RHF Final Energy:  -387.12194913285390
    Total Energy =                       -387.1219491328542972
    Molecular point group: c1
  Basis Set: 6-31G*
  Basis Set:
  Basis Set: 6-31G*
  Basis Set:
  @DF-RHF Final Energy:  -387.12167531128142
    Total Energy =                       -387.1216753112812512
  Basis Set: 6-31G*
  Basis Set:
  Basis Set: 6-31G*
  Basis Set:
  @DF-RHF Final Energy:  -387.12193507826800
    Total Energy =                       -387.1219350782680522
  Basis Set: 6-31G*
  Basis Set:
  Basis Set: 6-31G*
  Basis Set:
  @DF-RHF Final Energy:  -387.12196746063699
    Total Energy =                       -387.1219674606365970
  Basis Set: 6-31G*
  Basis Set:
  Basis Set: 6-31G*
  Basis Set:
  @DF-RHF Final Energy:  -387.12196294777846
    Total Energy =                       -387.1219629477780018
  Basis Set: 6-31G*
  Basis Set:
  Basis Set: 6-31G*
  Basis Set:
  @DF-RHF Final Energy:  -387.12196744676265
    Total Energy =                       -387.1219674467627101
  Basis Set: 6-31G*
  Basis Set:
  Basis Set: 6-31G*
  Basis Set:
  @DF-RHF Final Energy:  -387.12196975997415
    Total Energy =                       -387.1219697599744904
  Basis Set: 6-31G*
  Basis Set:
  Charge       = 0
  Multiplicity = 1
  Basis Set: 6-31G*
  Basis Set:

    Orbital Energies (a.u.)
    -----------------------

    Doubly Occupied:

       1A    -20.562189     2A    -11.326147     3A    -11.235389
       4A    -11.234691     5A    -11.223711     6A    -11.219703
       7A    -11.217965     8A    -11.216885     9A    -11.210662
      10A     -1.402089    11A     -1.103827    12A     -1.069618
      13A     -1.013318    14A     -0.942515    15A     -0.875131
      16A     -0.819472    17A     -0.789178    18A     -0.781072
      19A     -0.664562    20A     -0.662491    21A     -0.632759
      22A     -0.625507    23A     -0.601655    24A     -0.593538
      25A     -0.575748    26A     -0.550095    27A     -0.534794
      28A     -0.524864    29A     -0.509165    30A     -0.495003
      31A     -0.491095    32A     -0.479840    33A     -0.464561
      34A     -0.458856    35A     -0.441150    36A     -0.409564

  @DF-RHF Final Energy:  -387.12196995744830

   => Energetics <=

    Nuclear Repulsion Energy =            438.9032411341636362
    One-Electron Energy =               -1394.1328099393399498
    Two-Electron Energy =                 568.1075988477276724
    DFT Exchange-Correlation Energy =       0.0000000000000000
    Empirical Dispersion Energy =           0.0000000000000000
    PCM Polarization Energy =               0.0000000000000000
    EFP Energy =                            0.0000000000000000
    Total Energy =                       -387.1219699574486413
    Molecular point group: c1
  Basis Set: 6-31G*
  Basis Set:

  -Total Gradient:
     Atom            X                  Y                   Z
    ------   -----------------  -----------------  -----------------
       1        0.000004255673     0.000000286643    -0.000005522339
       2        0.000000728158    -0.000025331155    -0.000010597052
       3       -0.000011549600     0.001476824062    -0.000509207099
       4       -0.000013406194     0.000010654522     0.000001204351
       5       -0.000206673480    -0.000798946042     0.000946505671
       6        0.000084789322    -0.001048093279     0.000219674625
       7       -0.000022549472    -0.000003556040    -0.000005572575
       8        0.000152426751     0.000384014600    -0.000628647555
       9        0.000013905089    -0.000004658304     0.000002000291
      10        0.000002282649     0.000004517897     0.000000649080
      11        0.000004429125     0.000007857091    -0.000019401111
      12       -0.000000952858     0.000005285264     0.000002514875
      13       -0.000007614338    -0.000006729091     0.000003545104
      14       -0.000002284469    -0.000003946361     0.000005245313
      15        0.000002956501     0.000003534184     0.000001787391
      16       -0.000003274345    -0.000001598999    -0.000006672934
      17        0.000002397622    -0.000002899340    -0.000001686158
      18        0.000001043002     0.000000352017     0.000002099281
      19       -0.000003013669    -0.000000497948    -0.000001094105
      20        0.000001537703     0.000000659891    -0.000000677698
      21        0.000002408701     0.000001712534     0.000001652811
      22       -0.000001571754    -0.000001408680     0.000000861724
      23       -0.000001473922     0.000000178715     0.000002956947
      24        0.000002661966     0.000002128518     0.000000906325
      25       -0.000001458154    -0.000000340697    -0.000002525164

  **** Optimization is complete! (in 8 steps) ****
    Final optimized geometry and variables:
    Molecular point group: c1

    Geometry (in Angstrom), charge = 0, multiplicity = 1:

    H           -3.305938661137    -0.132008509734     1.536370288021
    C           -3.326501209277    -0.218224095185     0.442789034762
    C           -2.655846729997     0.910838699014    -0.298647216826
    O           -3.854455711251    -1.149629097340    -0.072585841837
    C           -1.212911843862     1.141474646389     0.173529911589
    H           -2.696605349829     0.687023659795    -1.358334017272
    H           -3.244514885223     1.808947851280    -0.118055879149
    C           -0.247550114700     0.036066264198    -0.261483602712
    H           -0.868028743038     2.093285859858    -0.220040447103
    H           -1.197587770731     1.240131205563     1.257724913243
    C            1.186844455944     0.275047546827     0.214074016578
    H           -0.261877806572    -0.039052224526    -1.346776020466
    H           -0.594866952801    -0.925635738453     0.111641363332
    C            2.152153029196    -0.824359873777    -0.237125350029
    H            1.524139126889     1.241008647237    -0.153262128501
    H            1.199595324527     0.339201433359     1.301202216833
    C            3.583080336225    -0.676279299241     0.292474857592
    H            2.174697968549    -0.858975832082    -1.325150657889
    H            1.761298142145    -1.786067944412     0.088381792919
    C            4.332558638295     0.548880269277    -0.234373179629
    H            4.142481013244    -1.568930156288     0.023986639305
    H            3.562742103496    -0.647615489561     1.380063435736
    H            4.357382569423     0.553631802486    -1.320828129339
    H            3.874071566791     1.477115283186     0.090282139683
    H            5.359255757822     0.553253065415     0.118423627408

  Mulliken Charges: (a.u.)
   Center  Symbol    Alpha    Beta     Spin     Total
       1     H     0.43260  0.43260  0.00000  0.13480
       2     C     2.83103  2.83103  0.00000  0.33795
       3     C     3.20824  3.20824  0.00000 -0.41648
       4     O     4.23748  4.23748  0.00000 -0.47496
       5     C     3.16722  3.16722  0.00000 -0.33445
       6     H     0.39956  0.39956  0.00000  0.20088
       7     H     0.40661  0.40661  0.00000  0.18679
       8     C     3.15424  3.15424  0.00000 -0.30848
       9     H     0.41304  0.41304  0.00000  0.17391
      10     H     0.41945  0.41945  0.00000  0.16109
      11     C     3.15429  3.15429  0.00000 -0.30858
      12     H     0.41838  0.41838  0.00000  0.16324
      13     H     0.41783  0.41783  0.00000  0.16433
      14     C     3.15310  3.15310  0.00000 -0.30619
      15     H     0.42093  0.42093  0.00000  0.15815
      16     H     0.42379  0.42379  0.00000  0.15243
      17     C     3.15275  3.15275  0.00000 -0.30549
      18     H     0.42311  0.42311  0.00000  0.15378
      19     H     0.42053  0.42053  0.00000  0.15893
      20     C     3.24137  3.24137  0.00000 -0.48274
      21     H     0.41996  0.41996  0.00000  0.16008
      22     H     0.42324  0.42324  0.00000  0.15352
      23     H     0.42192  0.42192  0.00000  0.15615
      24     H     0.42067  0.42067  0.00000  0.15866
      25     H     0.41866  0.41866  0.00000  0.16269

   Total alpha = 36.00000, Total beta = 36.00000, Total charge = -0.00000
