  ==> Input File <==

--------------------------------------------------------------------------
set {
	reference rhf
	basis cc-pvtz
}

set_num_threads( 4 )
memory 2 gb

molecule MOL {
0 1

H	 2.071780	 -1.460232	 -0.031796
O	 1.391678	 -0.890462	 -0.339818
C	 1.135873	 0.113391	 0.608264
C	 0.027642	 1.012027	 0.090274
H	 2.028102	 0.711339	 0.776052
H	 0.856892	 -0.327396	 1.561331
C	 -1.138737	 0.285728	 -0.581921
H	 0.464661	 1.708096	 -0.618252
H	 -0.340737	 1.603071	 0.925246
C	 -1.933983	 -0.631436	 0.343653
H	 -0.763151	 -0.285569	 -1.422081
H	 -1.808359	 1.035291	 -0.992333
H	 -2.789188	 -1.049673	 -0.174718
H	 -1.335629	 -1.461368	 0.700418
H	 -2.305435	 -0.092167	 1.209725

	symmetry c1
}
set optking {
	frozen_dihedral = ("
		2 3 4 8
	")
}

ee = optimize('scf')
oeprop('DIPOLE', 'QUADRUPOLE', 'MULLIKEN_CHARGES')
f=open( 'psi4out.xyz', 'w' )
f.write( "15  " )
f.write( str(ee) + "\n" )
f.write( MOL.save_string_xyz() )
f.close()
--------------------------------------------------------------------------

    Molecular point group: c1
  Charge       = 0
  Multiplicity = 1
  Basis Set: CC-PVTZ
  Basis Set:
  @DF-RHF Final Energy:  -232.23598376736595
    Total Energy =                       -232.2359837673657807
    Molecular point group: c1
  Basis Set: CC-PVTZ
  Basis Set:
  Basis Set: CC-PVTZ
  Basis Set:
  @DF-RHF Final Energy:  -232.23626117558516
    Total Energy =                       -232.2362611755851276
  Basis Set: CC-PVTZ
  Basis Set:
  Basis Set: CC-PVTZ
  Basis Set:
  @DF-RHF Final Energy:  -232.23635959569762
    Total Energy =                       -232.2363595956977633
  Basis Set: CC-PVTZ
  Basis Set:
  Basis Set: CC-PVTZ
  Basis Set:
  @DF-RHF Final Energy:  -232.23636261002022
    Total Energy =                       -232.2363626100202509
  Basis Set: CC-PVTZ
  Basis Set:
  Charge       = 0
  Multiplicity = 1
  Basis Set: CC-PVTZ
  Basis Set:

    Orbital Energies (a.u.)
    -----------------------

    Doubly Occupied:

       1A    -20.547027     2A    -11.266087     3A    -11.211225
       4A    -11.206327     5A    -11.200377     6A     -1.364880
       7A     -1.064124     8A     -0.970490     9A     -0.868678
      10A     -0.774531    11A     -0.706166    12A     -0.651465
      13A     -0.609273    14A     -0.572188    15A     -0.566831
      16A     -0.529881    17A     -0.509917    18A     -0.477200
      19A     -0.464209    20A     -0.452749    21A     -0.433010

  @DF-RHF Final Energy:  -232.23636282967655

   => Energetics <=

    Nuclear Repulsion Energy =            193.0582212682761281
    One-Electron Energy =                -697.6958924250363907
    Two-Electron Energy =                 272.4013083270836546
    DFT Exchange-Correlation Energy =       0.0000000000000000
    Empirical Dispersion Energy =           0.0000000000000000
    PCM Polarization Energy =               0.0000000000000000
    EFP Energy =                            0.0000000000000000
    Total Energy =                       -232.2363628296765796
    Molecular point group: c1
  Basis Set: CC-PVTZ
  Basis Set:

  -Total Gradient:
     Atom            X                  Y                   Z
    ------   -----------------  -----------------  -----------------
       1       -0.000003366666    -0.000005209038     0.000003929162
       2       -0.002293734564    -0.001895463709     0.001387509809
       3        0.003150379315     0.003155880535    -0.001062260411
       4       -0.001534000244    -0.003969586796    -0.003489080519
       5        0.000004511706    -0.000009387988    -0.000003426704
       6        0.000012045710    -0.000008711958    -0.000007873780
       7        0.000004314885     0.000010153803     0.000007739243
       8        0.000671266054     0.002720099878     0.003162480313
       9       -0.000007507700     0.000006449101     0.000008889568
      10        0.000004723174     0.000006040946     0.000000448923
      11        0.000009744201     0.000004405047    -0.000001232837
      12       -0.000005837271    -0.000009436281    -0.000006614712
      13       -0.000004816811    -0.000003420609     0.000004897809
      14       -0.000005372183     0.000002671921    -0.000008058826
      15       -0.000002349603    -0.000004484851     0.000002652961

  **** Optimization is complete! (in 5 steps) ****
    Final optimized geometry and variables:
    Molecular point group: c1

    Geometry (in Angstrom), charge = 0, multiplicity = 1:

    H            2.171512662589    -1.383343657760    -0.033004592983
    O            1.471769211957    -0.843503563204    -0.350557027773
    C            1.181962077777     0.165334184367     0.582252684011
    C            0.089946464497     1.074330123253     0.035008054546
    H            2.067199589768     0.757135198809     0.797827987387
    H            0.855719827774    -0.282972896009     1.517332101520
    C           -1.094033335837     0.361794362201    -0.616359551121
    H            0.531699857580     1.779204641469    -0.661943527156
    H           -0.267170404858     1.677917119215     0.867012283845
    C           -1.859354625897    -0.565694399453     0.323433108925
    H           -0.745485377889    -0.201458367326    -1.472372105178
    H           -1.772150850891     1.119747368150    -0.996519388114
    H           -2.725716457505    -0.986115303749    -0.174275052822
    H           -1.241583332751    -1.391321643887     0.654976906194
    H           -2.210983561514    -0.034446519369     1.202766908005

  Mulliken Charges: (a.u.)
   Center  Symbol    Alpha    Beta     Spin     Total
       1     H     0.39574  0.39574  0.00000  0.20852
       2     O     4.19866  4.19866  0.00000 -0.39733
       3     C     2.98029  2.98029  0.00000  0.03942
       4     C     3.09592  3.09592  0.00000 -0.19183
       5     H     0.46057  0.46057  0.00000  0.07886
       6     H     0.47032  0.47032  0.00000  0.05937
       7     C     3.08314  3.08314  0.00000 -0.16627
       8     H     0.44947  0.44947  0.00000  0.10106
       9     H     0.45639  0.45639  0.00000  0.08722
      10     C     3.15502  3.15502  0.00000 -0.31004
      11     H     0.44701  0.44701  0.00000  0.10598
      12     H     0.45102  0.45102  0.00000  0.09797
      13     H     0.44735  0.44735  0.00000  0.10530
      14     H     0.45134  0.45134  0.00000  0.09732
      15     H     0.45777  0.45777  0.00000  0.08447

   Total alpha = 21.00000, Total beta = 21.00000, Total charge = -0.00000
