  ==> Input File <==

--------------------------------------------------------------------------
set {
	reference rhf
	basis 6-31G*
}

set_num_threads( 4 )
memory 2 gb

molecule MOL {
0 1

H	 -2.365627	 -1.312883	 -0.379134
C	 -1.358347	 -1.274295	 0.019669
C	 -0.681945	 0.000119	 -0.470601
H	 -0.826096	 -2.155117	 -0.321105
H	 -1.409554	 -1.292283	 1.100109
C	 -1.357790	 1.274691	 0.020220
N	 0.739525	 -0.000142	 0.006128
H	 -0.594190	 0.000341	 -1.545128
H	 -2.364980	 1.313977	 -0.378631
H	 -0.825080	 2.155361	 -0.320114
H	 -1.409060	 1.292170	 1.100671
O	 0.969849	 -0.529064	 1.049092
O	 1.551250	 0.530170	 -0.690487

	symmetry c1
}
set optking {
	frozen_dihedral = ("
		12 7 3 8
	")
}

ee = optimize('scf')
oeprop('DIPOLE', 'QUADRUPOLE', 'MULLIKEN_CHARGES')
f=open( 'psi4out.xyz', 'w' )
f.write( "13  " )
f.write( str(ee) + "\n" )
f.write( MOL.save_string_xyz() )
f.close()
--------------------------------------------------------------------------

    Molecular point group: c1
  Charge       = 0
  Multiplicity = 1
  Basis Set: 6-31G*
  Basis Set:
  @DF-RHF Final Energy:  -321.73828469648947
    Total Energy =                       -321.7382846964894156
    Molecular point group: c1
  Basis Set: 6-31G*
  Basis Set:
  Basis Set: 6-31G*
  Basis Set:
  @DF-RHF Final Energy:  -321.73450227636584
    Total Energy =                       -321.7345022763656743
  Basis Set: 6-31G*
  Basis Set:
  Basis Set: 6-31G*
  Basis Set:
  @DF-RHF Final Energy:  -321.73751845737928
    Total Energy =                       -321.7375184573791103
  Basis Set: 6-31G*
  Basis Set:
  Basis Set: 6-31G*
  Basis Set:
  @DF-RHF Final Energy:  -321.73878539546376
    Total Energy =                       -321.7387853954638217
  Basis Set: 6-31G*
  Basis Set:
  Basis Set: 6-31G*
  Basis Set:
  @DF-RHF Final Energy:  -321.73879685046921
    Total Energy =                       -321.7387968504692708
  Basis Set: 6-31G*
  Basis Set:
  Basis Set: 6-31G*
  Basis Set:
  @DF-RHF Final Energy:  -321.73879964707021
    Total Energy =                       -321.7387996470702092
  Basis Set: 6-31G*
  Basis Set:
  Charge       = 0
  Multiplicity = 1
  Basis Set: 6-31G*
  Basis Set:

    Orbital Energies (a.u.)
    -----------------------

    Doubly Occupied:

       1A    -20.600407     2A    -20.598360     3A    -15.843222
       4A    -11.306438     5A    -11.248623     6A    -11.241933
       7A     -1.628725     8A     -1.414151     9A     -1.143604
      10A     -0.973436    11A     -0.958038    12A     -0.813669
      13A     -0.753282    14A     -0.726794    15A     -0.722001
      16A     -0.647951    17A     -0.594032    18A     -0.587627
      19A     -0.572142    20A     -0.529734    21A     -0.522359
      22A     -0.481792    23A     -0.469803    24A     -0.446948

  @DF-RHF Final Energy:  -321.73879981345408

   => Energetics <=

    Nuclear Repulsion Energy =            256.8218094677206409
    One-Electron Energy =                -947.4710790664646538
    Two-Electron Energy =                 368.9104697852898767
    DFT Exchange-Correlation Energy =       0.0000000000000000
    Empirical Dispersion Energy =           0.0000000000000000
    PCM Polarization Energy =               0.0000000000000000
    EFP Energy =                            0.0000000000000000
    Total Energy =                       -321.7387998134541363
    Molecular point group: c1
  Basis Set: 6-31G*
  Basis Set:

  -Total Gradient:
     Atom            X                  Y                   Z
    ------   -----------------  -----------------  -----------------
       1        0.000000822362     0.000001340227     0.000004555453
       2       -0.000000872576     0.000006868693    -0.000017345923
       3        0.000044792787     0.000500999577    -0.000094234740
       4       -0.000004047940     0.000002536809    -0.000001219249
       5        0.000003000425    -0.000002598946     0.000001601261
       6       -0.000017429682     0.000007551613    -0.000004616998
       7       -0.000101019490     0.000603483522     0.000416920007
       8        0.000009565834    -0.000604715701    -0.000007544455
       9       -0.000005049846     0.000006774487     0.000005222193
      10       -0.000004151542    -0.000005383685    -0.000008025840
      11        0.000003204280     0.000001770959     0.000001867892
      12        0.000086404737    -0.000533846893    -0.000269930523
      13       -0.000015219355     0.000015219338    -0.000027249076

  **** Optimization is complete! (in 7 steps) ****
    Final optimized geometry and variables:
    Molecular point group: c1

    Geometry (in Angstrom), charge = 0, multiplicity = 1:

    H           -2.374151643001    -1.322537925178    -0.415891418481
    C           -1.379747816977    -1.294067405759     0.015995266031
    C           -0.682787488149    -0.031819666639    -0.463596677551
    H           -0.847326680948    -2.183005879546    -0.299577350756
    H           -1.466947373459    -1.310706196463     1.093405853880
    C           -1.343594888270     1.256528959289     0.021867441455
    N            0.742205937967    -0.000496789991     0.006758793612
    H           -0.594230137528    -0.023502204969    -1.538991132122
    H           -2.360495663234     1.296059297662    -0.350540980882
    H           -0.809747543281     2.125398273198    -0.341568790551
    H           -1.372445250330     1.285957235436     1.105007494028
    O            1.006117986442    -0.525363745052     1.044259234288
    O            1.518598558227     0.586172252737    -0.683633712804

  Mulliken Charges: (a.u.)
   Center  Symbol    Alpha    Beta     Spin     Total
       1     H     0.41153  0.41153  0.00000  0.17694
       2     C     3.24519  3.24519  0.00000 -0.49037
       3     C     3.02277  3.02277  0.00000 -0.04554
       4     H     0.40372  0.40372  0.00000  0.19255
       5     H     0.39835  0.39835  0.00000  0.20331
       6     C     3.25042  3.25042  0.00000 -0.50083
       7     N     3.21778  3.21778  0.00000  0.56443
       8     H     0.38651  0.38651  0.00000  0.22698
       9     H     0.40597  0.40597  0.00000  0.18806
      10     H     0.39632  0.39632  0.00000  0.20736
      11     H     0.40190  0.40190  0.00000  0.19619
      12     O     4.22923  4.22923  0.00000 -0.45846
      13     O     4.23031  4.23031  0.00000 -0.46062

   Total alpha = 24.00000, Total beta = 24.00000, Total charge = -0.00000
