  ==> Input File <==

--------------------------------------------------------------------------
set {
	reference rhf
	basis 6-31G*
}

set_num_threads( 1 )
memory 2 gb

molecule MOL {
0 1

H	 -2.428250	 -0.281281	 -0.731466
O	 -2.035884	 -0.060112	 0.102722
C	 -0.955155	 0.788182	 -0.092531
C	 0.353668	 0.040312	 -0.004810
H	 -0.985057	 1.290372	 -1.054184
H	 -0.974469	 1.533190	 0.688632
F	 0.394464	 -0.937475	 -0.903053
F	 1.368604	 0.853376	 -0.249821
F	 0.546173	 -0.502608	 1.179981

	symmetry c1
}
set optking {
	frozen_dihedral = ("
		7 4 3 5
	")
}

ee = energy('scf')
oeprop('DIPOLE', 'QUADRUPOLE', 'MULLIKEN_CHARGES')
f=open( 'psi4out.xyz', 'w' )
f.write( "9  " )
f.write( str(ee) + "\n" )
f.write( MOL.save_string_xyz() )
f.close()
--------------------------------------------------------------------------

    Molecular point group: c1

    Geometry (in Angstrom), charge = 0, multiplicity = 1:

       Center              X                  Y                   Z               Mass
    ------------   -----------------  -----------------  -----------------  -----------------
           H         -2.424931915401    -0.285241660998    -0.730309408636     1.007825032070
           O         -2.032565915401    -0.064072660998     0.103878591364    15.994914619560
           C         -0.951836915401     0.784221339002    -0.091374408636    12.000000000000
           C          0.356986084599     0.036351339002    -0.003653408636    12.000000000000
           H         -0.981738915401     1.286411339002    -1.053027408636     1.007825032070
           H         -0.971150915401     1.529229339002     0.689788591364     1.007825032070
           F          0.397782084599    -0.941435660998    -0.901896408636    18.998403224000
           F          1.371922084599     0.849415339002    -0.248664408636    18.998403224000
           F          0.549491084599    -0.506568660998     1.181137591364    18.998403224000

  Charge       = 0
  Multiplicity = 1
  Basis Set: 6-31G*
  Basis Set:

    Orbital Energies (a.u.)
    -----------------------

    Doubly Occupied:

       1A    -26.340444     2A    -26.335104     3A    -26.334541
       4A    -20.590337     5A    -11.496089     6A    -11.309669
       7A     -1.734857     8A     -1.634556     9A     -1.630233
      10A     -1.402324    11A     -1.046857    12A     -0.919306
      13A     -0.825847    14A     -0.824074    15A     -0.793958
      16A     -0.734528    17A     -0.706872    18A     -0.697454
      19A     -0.660901    20A     -0.653467    21A     -0.637092
      22A     -0.629771    23A     -0.601984    24A     -0.533753
      25A     -0.479239

  @DF-RHF Final Energy:  -450.66090821900082

   => Energetics <=

    Nuclear Repulsion Energy =            276.5618553337178582
    One-Electron Energy =               -1175.3390143634701417
    Two-Electron Energy =                 448.1162508107517510
    DFT Exchange-Correlation Energy =       0.0000000000000000
    Empirical Dispersion Energy =           0.0000000000000000
    PCM Polarization Energy =               0.0000000000000000
    EFP Energy =                            0.0000000000000000
    Total Energy =                       -450.6609082190005324

  Mulliken Charges: (a.u.)
   Center  Symbol    Alpha    Beta     Spin     Total
       1     H     0.27128  0.27128  0.00000  0.45743
       2     O     4.36072  4.36072  0.00000 -0.72144
       3     C     3.05957  3.05957  0.00000 -0.11913
       4     C     2.45636  2.45636  0.00000  1.08728
       5     H     0.40959  0.40959  0.00000  0.18081
       6     H     0.39911  0.39911  0.00000  0.20178
       7     F     4.68518  4.68518  0.00000 -0.37035
       8     F     4.68252  4.68252  0.00000 -0.36504
       9     F     4.67567  4.67567  0.00000 -0.35134

   Total alpha = 25.00000, Total beta = 25.00000, Total charge = -0.00000
