  ==> Input File <==

--------------------------------------------------------------------------
set {
	reference rhf
	basis 6-31G*
}

set_num_threads( 4 )
memory 2 gb

molecule MOL {
0 1

H	 -0.950907	 2.307878	 -0.767560
C	 -0.810467	 1.296196	 -0.441704
C	 -1.913958	 0.478372	 -0.028187
C	 0.412489	 0.751546	 -0.407764
H	 -2.908800	 0.887126	 -0.044140
C	 -1.713485	 -0.784322	 0.375392
H	 1.289933	 1.296208	 -0.700748
N	 0.640212	 -0.532897	 -0.000111
H	 -2.513681	 -1.424812	 0.691328
C	 -0.382609	 -1.376772	 0.412187
C	 2.010177	 -1.032049	 0.000042
O	 -0.160610	 -2.507343	 0.768178
H	 2.187698	 -1.635381	 -0.882279
H	 2.677579	 -0.189247	 -0.001871
H	 2.188882	 -1.632203	 0.884288

	symmetry c1
}
set optking {
	frozen_dihedral = ("
		10 8 11 13
	")
}

ee = optimize('scf')
oeprop('DIPOLE', 'QUADRUPOLE', 'MULLIKEN_CHARGES')
f=open( 'psi4out.xyz', 'w' )
f.write( "15  " )
f.write( str(ee) + "\n" )
f.write( MOL.save_string_xyz() )
f.close()
--------------------------------------------------------------------------

    Molecular point group: c1
  Charge       = 0
  Multiplicity = 1
  Basis Set: 6-31G*
  Basis Set:
  @DF-RHF Final Energy:  -360.59593993553796
    Total Energy =                       -360.5959399355378991
    Molecular point group: c1
  Basis Set: 6-31G*
  Basis Set:
  Basis Set: 6-31G*
  Basis Set:
  @DF-RHF Final Energy:  -360.59638410337635
    Total Energy =                       -360.5963841033762947
  Basis Set: 6-31G*
  Basis Set:
  Basis Set: 6-31G*
  Basis Set:
  @DF-RHF Final Energy:  -360.59644600036125
    Total Energy =                       -360.5964460003614249
  Basis Set: 6-31G*
  Basis Set:
  Basis Set: 6-31G*
  Basis Set:
  @DF-RHF Final Energy:  -360.59642120204558
    Total Energy =                       -360.5964212020451214
  Basis Set: 6-31G*
  Basis Set:
  Charge       = 0
  Multiplicity = 1
  Basis Set: 6-31G*
  Basis Set:

    Orbital Energies (a.u.)
    -----------------------

    Doubly Occupied:

       1A    -20.508807     2A    -15.622212     3A    -11.341926
       4A    -11.297750     5A    -11.266291     6A    -11.260377
       7A    -11.233003     8A    -11.228867     9A     -1.384939
      10A     -1.281031    11A     -1.114866    12A     -1.026189
      13A     -0.970273    14A     -0.872738    15A     -0.835654
      16A     -0.715911    17A     -0.697628    18A     -0.661261
      19A     -0.648577    20A     -0.622619    21A     -0.606518
      22A     -0.573078    23A     -0.549393    24A     -0.547440
      25A     -0.527511    26A     -0.477522    27A     -0.414066
      28A     -0.405668    29A     -0.304613

  @DF-RHF Final Energy:  -360.59645244231262

   => Energetics <=

    Nuclear Repulsion Energy =            357.8865290084548860
    One-Electron Energy =               -1198.9725050636438937
    Two-Electron Energy =                 480.4895236128763827
    DFT Exchange-Correlation Energy =       0.0000000000000000
    Empirical Dispersion Energy =           0.0000000000000000
    PCM Polarization Energy =               0.0000000000000000
    EFP Energy =                            0.0000000000000000
    Total Energy =                       -360.5964524423126250
    Molecular point group: c1
  Basis Set: 6-31G*
  Basis Set:

  -Total Gradient:
     Atom            X                  Y                   Z
    ------   -----------------  -----------------  -----------------
       1       -0.000002753972     0.000003095467     0.000001232033
       2        0.000169047505    -0.000049965840    -0.000018218044
       3       -0.000103763172    -0.000115692255     0.000055278629
       4       -0.000116437458     0.000236639515    -0.000029528928
       5        0.000006733864     0.000002785871    -0.000002876025
       6       -0.000111562400     0.000108043290    -0.000032383494
       7        0.000004564104    -0.000028312102    -0.000004833806
       8       -0.000091750011    -0.000326862273    -0.001013731001
       9        0.000005304381    -0.000018398699     0.000003926123
      10        0.000356578560     0.000339325369     0.000628327662
      11       -0.000332901663    -0.000840450326     0.000838308988
      12       -0.000078037109    -0.000057393267     0.000010073420
      13        0.000274155490     0.000696513316    -0.000403622255
      14        0.000018277098     0.000037010094    -0.000004232344
      15        0.000002544784     0.000013661837    -0.000027720962

  **** Optimization is complete! (in 5 steps) ****
    Final optimized geometry and variables:
    Molecular point group: c1

    Geometry (in Angstrom), charge = 0, multiplicity = 1:

    H           -0.788830358724     2.815333460745    -0.871263480334
    C           -0.638765310367     1.806495240310    -0.541120752267
    C           -1.733871784288     0.983562711183    -0.117871454963
    C            0.590944170732     1.274802100533    -0.506812239539
    H           -2.731138862265     1.386400360845    -0.130877555728
    C           -1.523747251054    -0.276361638835     0.291609087085
    H            1.460663850133     1.827850667308    -0.804343471209
    N            0.827857638204    -0.003527933298    -0.088982366654
    H           -2.317838505001    -0.921561610605     0.613724110925
    C           -0.188720628397    -0.856561016837     0.314969375142
    C            2.184078753747    -0.537603504464    -0.084179136011
    O            0.056839346105    -1.988524528121     0.651127666894
    H            2.362901379157    -1.138951063351    -0.966942556123
    H            2.886588739338     0.283988767641    -0.065587994850
    H            2.321950616360    -1.153638405966     0.788689076637

  Mulliken Charges: (a.u.)
   Center  Symbol    Alpha    Beta     Spin     Total
       1     H     0.39305  0.39305  0.00000  0.21391
       2     C     3.16222  3.16222  0.00000 -0.32444
       3     C     3.05825  3.05825  0.00000 -0.11650
       4     C     2.92152  2.92152  0.00000  0.15697
       5     H     0.39089  0.39089  0.00000  0.21821
       6     C     3.16967  3.16967  0.00000 -0.33933
       7     H     0.38762  0.38762  0.00000  0.22475
       8     N     3.86394  3.86394  0.00000 -0.72788
       9     H     0.38645  0.38645  0.00000  0.22710
      10     C     2.59626  2.59626  0.00000  0.80747
      11     C     3.14237  3.14237  0.00000 -0.28474
      12     O     4.32166  4.32166  0.00000 -0.64333
      13     H     0.40373  0.40373  0.00000  0.19253
      14     H     0.41535  0.41535  0.00000  0.16930
      15     H     0.38701  0.38701  0.00000  0.22597

   Total alpha = 29.00000, Total beta = 29.00000, Total charge = -0.00000
