  ==> Input File <==

--------------------------------------------------------------------------
set {
	reference rhf
	basis 6-31G*
}

set_num_threads( 4 )
memory 2 gb

molecule MOL {
0 1

H	 2.104158	 -1.390007	 -0.130374
O	 1.654024	 -0.625927	 -0.460906
C	 1.135793	 0.118896	 0.612333
C	 0.031547	 1.023609	 0.088541
H	 1.915668	 0.729681	 1.063582
H	 0.754543	 -0.542641	 1.387006
C	 -1.134819	 0.293262	 -0.585751
H	 0.474374	 1.714721	 -0.623187
H	 -0.338529	 1.620940	 0.920081
C	 -1.917817	 -0.639439	 0.339494
H	 -0.758119	 -0.268455	 -1.433105
H	 -1.813832	 1.041889	 -0.986690
H	 -2.777680	 -1.057197	 -0.174994
H	 -1.310268	 -1.471279	 0.680599
H	 -2.283753	 -0.111424	 1.216626

	symmetry c1
}
set optking {
	frozen_dihedral = ("
		1 2 3 4
	")
}

ee = optimize('scf')
oeprop('DIPOLE', 'QUADRUPOLE', 'MULLIKEN_CHARGES')
f=open( 'psi4out.xyz', 'w' )
f.write( "15  " )
f.write( str(ee) + "\n" )
f.write( MOL.save_string_xyz() )
f.close()
--------------------------------------------------------------------------

    Molecular point group: c1
  Charge       = 0
  Multiplicity = 1
  Basis Set: 6-31G*
  Basis Set:
  @DF-RHF Final Energy:  -232.14342542221078
    Total Energy =                       -232.1434254222108962
    Molecular point group: c1
  Basis Set: 6-31G*
  Basis Set:
  Basis Set: 6-31G*
  Basis Set:
  @DF-RHF Final Energy:  -232.14344323091277
    Total Energy =                       -232.1434432309128510
  Basis Set: 6-31G*
  Basis Set:
  Basis Set: 6-31G*
  Basis Set:
  @DF-RHF Final Energy:  -232.14344969809895
    Total Energy =                       -232.1434496980987205
  Basis Set: 6-31G*
  Basis Set:
  Charge       = 0
  Multiplicity = 1
  Basis Set: 6-31G*
  Basis Set:

    Orbital Energies (a.u.)
    -----------------------

    Doubly Occupied:

       1A    -20.553114     2A    -11.267588     3A    -11.212336
       4A    -11.209250     5A    -11.206319     6A     -1.359609
       7A     -1.064122     8A     -0.970822     9A     -0.869205
      10A     -0.774728    11A     -0.704563    12A     -0.648279
      13A     -0.607270    14A     -0.575302    15A     -0.562530
      16A     -0.533450    17A     -0.508771    18A     -0.474652
      19A     -0.467481    20A     -0.453185    21A     -0.429971

  @DF-RHF Final Energy:  -232.14345025372035

   => Energetics <=

    Nuclear Repulsion Energy =            191.7098787683518140
    One-Electron Energy =                -694.8015651220907785
    Two-Electron Energy =                 270.9482361000185051
    DFT Exchange-Correlation Energy =       0.0000000000000000
    Empirical Dispersion Energy =           0.0000000000000000
    PCM Polarization Energy =               0.0000000000000000
    EFP Energy =                            0.0000000000000000
    Total Energy =                       -232.1434502537204594
    Molecular point group: c1
  Basis Set: 6-31G*
  Basis Set:

  -Total Gradient:
     Atom            X                  Y                   Z
    ------   -----------------  -----------------  -----------------
       1       -0.001275793900    -0.000703586668    -0.000129404899
       2        0.001296586190     0.000671538930     0.000187480547
       3        0.000590837735     0.000822478854    -0.000177480406
       4       -0.000648601951    -0.000772983870     0.000198758995
       5        0.000007794833    -0.000043968077    -0.000010120980
       6       -0.000006765329     0.000065957059    -0.000031074572
       7        0.000042126577     0.000003145530     0.000004638179
       8        0.000006397854     0.000008984946    -0.000002198773
       9        0.000044360990     0.000003163260     0.000020166265
      10       -0.000046746542     0.000019376198    -0.000013293785
      11        0.000007170936    -0.000034584910    -0.000046099216
      12        0.000012101365    -0.000017291053     0.000002850275
      13        0.000000485073    -0.000004726010     0.000007237434
      14       -0.000040266849    -0.000006046342    -0.000007168132
      15        0.000010313016    -0.000011457847    -0.000004290931

  **** Optimization is complete! (in 4 steps) ****
    Final optimized geometry and variables:
    Molecular point group: c1

    Geometry (in Angstrom), charge = 0, multiplicity = 1:

    H            2.140124057215    -1.367684447188    -0.153422351069
    O            1.683180279286    -0.603220612522    -0.471803194452
    C            1.139878021074     0.114278791103     0.608903988719
    C            0.029035511176     1.015718856827     0.092743316199
    H            1.909149577182     0.720026685735     1.083476595287
    H            0.754605980608    -0.566566239763     1.363941592323
    C           -1.135215153827     0.283528614840    -0.582524256012
    H            0.466951604577     1.712171896066    -0.617080664616
    H           -0.340547505553     1.609346432912     0.927299744190
    C           -1.935547930869    -0.630256900989     0.347219667644
    H           -0.753260145176    -0.291730400092    -1.418642161577
    H           -1.805784590493     1.030222399455    -1.000580002578
    H           -2.791414867912    -1.051058178243    -0.171445825215
    H           -1.339144805022    -1.461116520252     0.710470299323
    H           -2.308974988392    -0.086316865417     1.211179015176

  Mulliken Charges: (a.u.)
   Center  Symbol    Alpha    Beta     Spin     Total
       1     H     0.28027  0.28027  0.00000  0.43947
       2     O     4.37028  4.37028  0.00000 -0.74056
       3     C     2.99891  2.99891  0.00000  0.00219
       4     C     3.16100  3.16100  0.00000 -0.32201
       5     H     0.42735  0.42735  0.00000  0.14531
       6     H     0.43137  0.43137  0.00000  0.13726
       7     C     3.15413  3.15413  0.00000 -0.30826
       8     H     0.41377  0.41377  0.00000  0.17246
       9     H     0.42483  0.42483  0.00000  0.15034
      10     C     3.24272  3.24272  0.00000 -0.48544
      11     H     0.40787  0.40787  0.00000  0.18425
      12     H     0.42243  0.42243  0.00000  0.15514
      13     H     0.41871  0.41871  0.00000  0.16258
      14     H     0.42214  0.42214  0.00000  0.15572
      15     H     0.42422  0.42422  0.00000  0.15156

   Total alpha = 21.00000, Total beta = 21.00000, Total charge = -0.00000
