  ==> Input File <==

--------------------------------------------------------------------------
set {
	reference rhf
	basis 6-31G*
}

set_num_threads( 1 )
memory 2 gb

molecule MOL {
0 1

O	 1.313572	 1.142767	 0.577740
C	 1.122059	 0.121804	 -0.000188
C	 -0.170150	 -0.657997	 -0.000612
O	 2.046213	 -0.479051	 -0.739030
C	 -1.412532	 0.227344	 -0.000452
H	 -0.153702	 -1.313099	 -0.867402
H	 -0.153924	 -1.313811	 0.865644
C	 -2.706999	 -0.587347	 -0.000541
H	 -1.388000	 0.879466	 -0.868000
H	 -1.387972	 0.879138	 0.867341
C	 -3.956778	 0.291888	 0.000910
H	 -2.726114	 -1.239230	 -0.871609
H	 -2.725217	 -1.240844	 0.869333
H	 -3.985213	 0.933254	 -0.875158
H	 -4.860123	 -0.309979	 0.000519
H	 -3.984618	 0.931166	 0.878514
C	 3.311318	 0.151426	 -0.823583
H	 3.216717	 1.136609	 -1.257119
H	 3.913888	 -0.479935	 -1.457808
H	 3.760022	 0.235905	 0.155720

	symmetry c1
}
set optking {
	frozen_dihedral = ("
		9 5 8 12,
		9 5 3 6,
		1 2 4 17
	")
}

ee = energy('scf')
oeprop('DIPOLE', 'QUADRUPOLE', 'MULLIKEN_CHARGES')
f=open( 'psi4out.xyz', 'w' )
f.write( "20  " )
f.write( str(ee) + "\n" )
f.write( MOL.save_string_xyz() )
f.close()
--------------------------------------------------------------------------

    Molecular point group: c1

    Geometry (in Angstrom), charge = 0, multiplicity = 1:

       Center              X                  Y                   Z               Mass
    ------------   -----------------  -----------------  -----------------  -----------------
           O          1.335743299823     1.105956642557     0.707417682699    15.994914619560
           C          1.144230299823     0.084993642557     0.129489682699    12.000000000000
           C         -0.147978700177    -0.694807357443     0.129065682699    12.000000000000
           O          2.068384299823    -0.515861357443    -0.609352317301    15.994914619560
           C         -1.390360700177     0.190533642557     0.129225682699    12.000000000000
           H         -0.131530700177    -1.349909357443    -0.737724317301     1.007825032070
           H         -0.131752700177    -1.350621357443     0.995321682699     1.007825032070
           C         -2.684827700177    -0.624157357443     0.129136682699    12.000000000000
           H         -1.365828700177     0.842655642557    -0.738322317301     1.007825032070
           H         -1.365800700177     0.842327642557     0.997018682699     1.007825032070
           C         -3.934606700177     0.255077642557     0.130587682699    12.000000000000
           H         -2.703942700177    -1.276040357443    -0.741931317301     1.007825032070
           H         -2.703045700177    -1.277654357443     0.999010682699     1.007825032070
           H         -3.963041700177     0.896443642557    -0.745480317301     1.007825032070
           H         -4.837951700177    -0.346789357443     0.130196682699     1.007825032070
           H         -3.962446700177     0.894355642557     1.008191682699     1.007825032070
           C          3.333489299823     0.114615642557    -0.693905317301    12.000000000000
           H          3.238888299823     1.099798642557    -1.127441317301     1.007825032070
           H          3.936059299823    -0.516745357443    -1.328130317301     1.007825032070
           H          3.782193299823     0.199094642557     0.285397682699     1.007825032070

  Charge       = 0
  Multiplicity = 1
  Basis Set: 6-31G*
  Basis Set:

    Orbital Energies (a.u.)
    -----------------------

    Doubly Occupied:

       1A    -20.604920     2A    -20.544327     3A    -11.372178
       4A    -11.280697     5A    -11.234564     6A    -11.222849
       7A    -11.221544     8A    -11.211771     9A     -1.469532
      10A     -1.362489    11A     -1.090022    12A     -1.024786
      13A     -0.969287    14A     -0.886933    15A     -0.805298
      16A     -0.769704    17A     -0.695573    18A     -0.682509
      19A     -0.672132    20A     -0.646299    21A     -0.598429
      22A     -0.592197    23A     -0.576580    24A     -0.546537
      25A     -0.535138    26A     -0.523548    27A     -0.500865
      28A     -0.479535    29A     -0.476732    30A     -0.470619
      31A     -0.455716    32A     -0.434502

  @DF-RHF Final Energy:  -383.94044343063155

   => Energetics <=

    Nuclear Repulsion Energy =            381.1632006245106936
    One-Electron Energy =               -1278.2917347347506620
    Two-Electron Energy =                 513.1880906796085355
    DFT Exchange-Correlation Energy =       0.0000000000000000
    Empirical Dispersion Energy =           0.0000000000000000
    PCM Polarization Energy =               0.0000000000000000
    EFP Energy =                            0.0000000000000000
    Total Energy =                       -383.9404434306314897

  Mulliken Charges: (a.u.)
   Center  Symbol    Alpha    Beta     Spin     Total
       1     O     4.28607  4.28607  0.00000 -0.57214
       2     C     2.60450  2.60450  0.00000  0.79099
       3     C     3.20986  3.20986  0.00000 -0.41973
       4     O     4.30568  4.30568  0.00000 -0.61137
       5     C     3.15570  3.15570  0.00000 -0.31141
       6     H     0.40055  0.40055  0.00000  0.19890
       7     H     0.40003  0.40003  0.00000  0.19993
       8     C     3.15391  3.15391  0.00000 -0.30783
       9     H     0.41671  0.41671  0.00000  0.16657
      10     H     0.40582  0.40582  0.00000  0.18837
      11     C     3.23969  3.23969  0.00000 -0.47938
      12     H     0.42221  0.42221  0.00000  0.15558
      13     H     0.42176  0.42176  0.00000  0.15648
      14     H     0.42045  0.42045  0.00000  0.15910
      15     H     0.41833  0.41833  0.00000  0.16333
      16     H     0.41934  0.41934  0.00000  0.16132
      17     C     3.09323  3.09323  0.00000 -0.18645
      18     H     0.40878  0.40878  0.00000  0.18245
      19     H     0.40841  0.40841  0.00000  0.18319
      20     H     0.40895  0.40895  0.00000  0.18211

   Total alpha = 32.00000, Total beta = 32.00000, Total charge = -0.00000
