                              Psi4 1.0.54 Driver

  ==> Input File <==

--------------------------------------------------------------------------
set {
	reference rhf
	basis cc-pvtz
}

set_num_threads( 4 )
memory 2 gb

molecule MOL {
0 1

H	 -2.171709	 0.882708	 0.500286
C	 -2.016894	 0.001719	 -0.114152
O	 -0.775228	 0.000056	 -0.739966
H	 -2.760846	 0.003757	 -0.898169
H	 -2.174774	 -0.879864	 0.498643
C	 -0.556797	 0.813493	 -1.875699
C	 0.893325	 0.533738	 -2.254867
C	 -1.481841	 0.413551	 -3.026776
C	 -0.728868	 2.295011	 -1.534980
H	 1.025842	 -0.518468	 -2.472594
H	 1.550339	 0.793194	 -1.434428
H	 1.184374	 1.107422	 -3.126730
H	 -1.403668	 -0.649586	 -3.219902
H	 -1.205254	 0.945192	 -3.929409
H	 -2.518021	 0.647885	 -2.817062
H	 -0.120586	 2.556815	 -0.677576
H	 -0.419308	 2.908612	 -2.372562
H	 -1.758786	 2.545111	 -1.312973

	symmetry c1
}
set optking {
	frozen_dihedral = ("
		6 3 2 5
	")
}

ee,wfn = optimize('scf', return_wfn=True)
oeprop( wfn, 'DIPOLE', 'QUADRUPOLE', 'MULLIKEN_CHARGES')
f=open( 'psi4out.xyz', 'w' )
f.write( "18  " )
f.write( str(ee) + "\n" )
f.write( MOL.save_string_xyz() )
f.close()
--------------------------------------------------------------------------

    Molecular point group: c1
  Charge       = 0
  Multiplicity = 1
  Basis Set: CC-PVTZ
  Basis Set:
  @DF-RHF Final Energy:  -271.27356952808373
    Total Energy =                       -271.2735695280832715
    Molecular point group: c1
  Basis Set: CC-PVTZ
  Basis Set:
  Basis Set: CC-PVTZ
  Basis Set:
  @DF-RHF Final Energy:  -271.27553630456157
    Total Energy =                       -271.2755363045614558
  Basis Set: CC-PVTZ
  Basis Set:
  Basis Set: CC-PVTZ
  Basis Set:
  @DF-RHF Final Energy:  -271.27632957195499
    Total Energy =                       -271.2763295719551024
  Basis Set: CC-PVTZ
  Basis Set:
  Basis Set: CC-PVTZ
  Basis Set:
  @DF-RHF Final Energy:  -271.27634691206083
    Total Energy =                       -271.2763469120608875
  Basis Set: CC-PVTZ
  Basis Set:
  Basis Set: CC-PVTZ
  Basis Set:
  @DF-RHF Final Energy:  -271.27635503902087
    Total Energy =                       -271.2763550390207001
  Basis Set: CC-PVTZ
  Basis Set:
  Basis Set: CC-PVTZ
  Basis Set:
  @DF-RHF Final Energy:  -271.27635669766261
    Total Energy =                       -271.2763566976626635
  Basis Set: CC-PVTZ
  Basis Set:
  Charge       = 0
  Multiplicity = 1
  Basis Set: CC-PVTZ
  Basis Set:

    Orbital Energies (a.u.)
    -----------------------

    Doubly Occupied:

       1A    -20.539995     2A    -11.280242     3A    -11.258373
       4A    -11.207966     5A    -11.206184     6A    -11.201879
       7A     -1.373178     8A     -1.074419     9A     -0.947156
      10A     -0.940563    11A     -0.913264    12A     -0.753639
      13A     -0.656585    14A     -0.646876    15A     -0.639884
      16A     -0.592612    17A     -0.574170    18A     -0.553139
      19A     -0.535713    20A     -0.525179    21A     -0.515311
      22A     -0.489907    23A     -0.488080    24A     -0.440673
      25A     -0.406462

  @DF-RHF Final Energy:  -271.27635713322621

   => Energetics <=

    Nuclear Repulsion Energy =            272.7150645692960893
    One-Electron Energy =                -908.4599433280736775
    Two-Electron Energy =                 364.4685216255511477
    DFT Exchange-Correlation Energy =       0.0000000000000000
    Empirical Dispersion Energy =           0.0000000000000000
    PCM Polarization Energy =               0.0000000000000000
    EFP Energy =                            0.0000000000000000
    Total Energy =                       -271.2763571332263837
    Molecular point group: c1
  Basis Set: CC-PVTZ
  Basis Set:

  -Total Gradient:
     Atom            X                  Y                   Z
    ------   -----------------  -----------------  -----------------
       1       -0.000038705764     0.000001473720    -0.000001659960
       2        0.000574733185     0.000301480029     0.001055493995
       3        0.000488988368     0.001144331536     0.000720100536
       4        0.000053837469     0.000003063732     0.000014659422
       5       -0.000658437767    -0.000516523772    -0.001090157055
       6       -0.000358497461    -0.000878953682    -0.000789334343
       7        0.000062768952    -0.000001900058    -0.000002614663
       8       -0.000064345104     0.000004408570    -0.000028430719
       9       -0.000071003808    -0.000063063845     0.000049721595
      10       -0.000020617061     0.000023812953    -0.000003936409
      11        0.000024870282    -0.000019920168    -0.000010724508
      12        0.000015158575     0.000011671136     0.000023794362
      13       -0.000016192365     0.000091673327     0.000015522712
      14       -0.000032047562    -0.000064096759     0.000098381721
      15        0.000087174374    -0.000010287866    -0.000054499081
      16       -0.000010483464    -0.000025328411    -0.000008308614
      17        0.000004476333    -0.000009772377    -0.000011006056
      18       -0.000041677183     0.000007931937     0.000022997066

  **** Optimization is complete! (in 7 steps) ****
    Final optimized geometry and variables:
    Molecular point group: c1

    Geometry (in Angstrom), charge = 0, multiplicity = 1:

    H           -1.266631610042     0.133976808048     2.173415380145
    C           -1.234165383308    -0.673378886970     1.448455520617
    O           -0.011532575287    -0.728339528487     0.786137350015
    H           -2.074035128197    -0.560133719419     0.771873890995
    H           -1.357716995417    -1.612527814006     1.969651953268
    C            0.239913444543     0.144432269953    -0.297531915881
    C            1.715779642460    -0.070638662759    -0.614359551728
    C           -0.611204157586    -0.240215287137    -1.509498041833
    C           -0.003470766662     1.602047669926     0.096260036018
    H            1.896327343061    -1.109183655119    -0.860975604532
    H            2.323905143722     0.182083728692     0.244912685391
    H            2.026500026635     0.542960874095    -1.451657586293
    H           -0.465993142167    -1.286095844952    -1.749724519510
    H           -0.325820922479     0.351439846215    -2.371186030815
    H           -1.667004876996    -0.073464464478    -1.338087041523
    H            0.568250183886     1.855040755008     0.981157564155
    H            0.302591096956     2.262230963735    -0.706311080074
    H           -1.049618519430     1.797003712017     0.298766725774

  Mulliken Charges: (a.u.)
   Center  Symbol    Alpha    Beta     Spin     Total
       1     H     0.46500  0.46500  0.00000  0.07001
       2     C     3.04478  3.04478  0.00000 -0.08955
       3     O     4.19114  4.19114  0.00000 -0.38228
       4     H     0.46994  0.46994  0.00000  0.06013
       5     H     0.44305  0.44305  0.00000  0.11391
       6     C     2.87633  2.87633  0.00000  0.24734
       7     C     3.14187  3.14187  0.00000 -0.28374
       8     C     3.15942  3.15942  0.00000 -0.31885
       9     C     3.16633  3.16633  0.00000 -0.33267
      10     H     0.44837  0.44837  0.00000  0.10326
      11     H     0.44943  0.44943  0.00000  0.10114
      12     H     0.45927  0.45927  0.00000  0.08145
      13     H     0.44633  0.44633  0.00000  0.10733
      14     H     0.44983  0.44983  0.00000  0.10033
      15     H     0.44883  0.44883  0.00000  0.10234
      16     H     0.44526  0.44526  0.00000  0.10949
      17     H     0.44661  0.44661  0.00000  0.10677
      18     H     0.44821  0.44821  0.00000  0.10359

   Total alpha = 25.00000, Total beta = 25.00000, Total charge =  0.00000

*** Psi4 exiting successfully. Buy a developer a beer!
