  ==> Input File <==

--------------------------------------------------------------------------
set {
	reference rhf
	basis 6-31G*
}

set_num_threads( 1 )
memory 2 gb

molecule MOL {
0 1

H	 -0.646935	 2.986948	 2.321629
O	 -0.495135	 3.280530	 1.434412
C	 -0.308686	 2.171926	 0.595828
C	 1.059820	 1.547662	 0.803558
H	 -1.079526	 1.421174	 0.745948
H	 -0.391517	 2.529713	 -0.420822
O	 1.171513	 0.459272	 -0.058250
H	 1.172144	 1.228102	 1.841462
H	 1.832855	 2.287646	 0.605001
C	 2.397842	 -0.198080	 -0.002151
H	 2.508049	 -0.905315	 -0.822092
H	 3.173794	 0.550865	 -0.078850
H	 2.517602	 -0.735921	 0.936026

	symmetry c1
}
set optking {
	frozen_dihedral = ("
		8 4 3 5,
		1 2 3 5,
		10 7 4 8
	")
}

ee = energy('scf')
oeprop('DIPOLE', 'QUADRUPOLE', 'MULLIKEN_CHARGES')
f=open( 'psi4out.xyz', 'w' )
f.write( "13  " )
f.write( str(ee) + "\n" )
f.write( MOL.save_string_xyz() )
f.close()
--------------------------------------------------------------------------

    Molecular point group: c1

    Geometry (in Angstrom), charge = 0, multiplicity = 1:

       Center              X                  Y                   Z               Mass
    ------------   -----------------  -----------------  -----------------  -----------------
           H         -1.406462192378     1.520691236637     1.743779678003     1.007825032070
           O         -1.254662192378     1.814273236637     0.856562678003    15.994914619560
           C         -1.068213192378     0.705669236637     0.017978678003    12.000000000000
           C          0.300292807622     0.081405236637     0.225708678003    12.000000000000
           H         -1.839053192378    -0.045082763363     0.168098678003     1.007825032070
           H         -1.151044192378     1.063456236637    -0.998671321997     1.007825032070
           O          0.411985807622    -1.006984763363    -0.636099321997    15.994914619560
           H          0.412616807622    -0.238154763363     1.263612678003     1.007825032070
           H          1.073327807622     0.821389236637     0.027151678003     1.007825032070
           C          1.638314807622    -1.664336763363    -0.580000321997    12.000000000000
           H          1.748521807622    -2.371571763363    -1.399941321997     1.007825032070
           H          2.414266807622    -0.915391763363    -0.656699321997     1.007825032070
           H          1.758074807622    -2.202177763363     0.358176678003     1.007825032070

  Charge       = 0
  Multiplicity = 1
  Basis Set: 6-31G*
  Basis Set:

    Orbital Energies (a.u.)
    -----------------------

    Doubly Occupied:

       1A    -20.561269     2A    -20.560362     3A    -11.271545
       4A    -11.270596     5A    -11.269213     6A     -1.388643
       7A     -1.365369     8A     -1.018243     9A     -0.913336
      10A     -0.842517    11A     -0.710169    12A     -0.674043
      13A     -0.658184    14A     -0.640715    15A     -0.595213
      16A     -0.570386    17A     -0.546225    18A     -0.489588
      19A     -0.480119    20A     -0.438795    21A     -0.421418

  @DF-RHF Final Energy:  -267.94919266171178

   => Energetics <=

    Nuclear Repulsion Energy =            190.3029911920566803
    One-Electron Energy =                -743.1324974414065991
    Two-Electron Energy =                 284.8803135876377723
    DFT Exchange-Correlation Energy =       0.0000000000000000
    Empirical Dispersion Energy =           0.0000000000000000
    PCM Polarization Energy =               0.0000000000000000
    EFP Energy =                            0.0000000000000000
    Total Energy =                       -267.9491926617121749

  Mulliken Charges: (a.u.)
   Center  Symbol    Alpha    Beta     Spin     Total
       1     H     0.28122  0.28122  0.00000  0.43756
       2     O     4.37085  4.37085  0.00000 -0.74169
       3     C     3.00463  3.00463  0.00000 -0.00926
       4     C     2.99672  2.99672  0.00000  0.00656
       5     H     0.42207  0.42207  0.00000  0.15587
       6     H     0.40835  0.40835  0.00000  0.18331
       7     O     4.30847  4.30847  0.00000 -0.61695
       8     H     0.43753  0.43753  0.00000  0.12494
       9     H     0.42304  0.42304  0.00000  0.15393
      10     C     3.07898  3.07898  0.00000 -0.15797
      11     H     0.41109  0.41109  0.00000  0.17781
      12     H     0.42868  0.42868  0.00000  0.14264
      13     H     0.42838  0.42838  0.00000  0.14324

   Total alpha = 21.00000, Total beta = 21.00000, Total charge = -0.00000
