                              Psi4 1.0.54 Driver

  ==> Input File <==

--------------------------------------------------------------------------
set {
	reference rhf
	basis cc-pvtz
}

set_num_threads( 4 )
memory 2 gb

molecule MOL {
0 1

H	 2.614283	 2.028610	 0.296620
O	 3.358864	 1.662087	 -0.142800
C	 3.565468	 0.338079	 0.273842
C	 4.811089	 0.158688	 1.128789
H	 2.689873	 0.069471	 0.849310
H	 3.603101	 -0.328662	 -0.585513
C	 6.121501	 0.426380	 0.391898
H	 4.735656	 0.814551	 1.990944
H	 4.812831	 -0.860861	 1.506829
C	 7.350639	 0.204440	 1.272125
H	 6.122328	 1.445747	 0.020560
H	 6.184366	 -0.224032	 -0.478906
C	 8.694260	 0.386806	 0.563831
H	 7.302382	 0.873575	 2.127786
H	 7.309058	 -0.803810	 1.674832
C	 9.002786	 1.815801	 0.120517
H	 9.481443	 0.056189	 1.235815
H	 8.737474	 -0.274492	 -0.298707
C	 10.393844	 1.964490	 -0.490433
H	 8.914950	 2.482572	 0.975601
H	 8.265316	 2.150075	 -0.602948
C	 10.703721	 3.389251	 -0.937564
H	 11.139177	 1.644142	 0.232363
H	 10.486151	 1.292780	 -1.339754
H	 10.651231	 4.081305	 -0.103572
H	 11.698087	 3.460117	 -1.363382
H	 9.997697	 3.726231	 -1.689446

	symmetry c1
}
set optking {
	frozen_dihedral = ("
		4 3 2 1
	")
}

ee,wfn = optimize('scf', return_wfn=True)
oeprop( wfn, 'DIPOLE', 'QUADRUPOLE', 'MULLIKEN_CHARGES')
f=open( 'psi4out.xyz', 'w' )
f.write( "27  " )
f.write( str(ee) + "\n" )
f.write( MOL.save_string_xyz() )
f.close()
--------------------------------------------------------------------------

    Molecular point group: c1
  Charge       = 0
  Multiplicity = 1
  Basis Set: CC-PVTZ
  Basis Set:
  @DF-RHF Final Energy:  -388.42543669767394
    Total Energy =                       -388.4254366976742858
    Molecular point group: c1
  Basis Set: CC-PVTZ
  Basis Set:
  Basis Set: CC-PVTZ
  Basis Set:
  @DF-RHF Final Energy:  -388.42651887901843
    Total Energy =                       -388.4265188790187722
  Basis Set: CC-PVTZ
  Basis Set:
  Basis Set: CC-PVTZ
  Basis Set:
  @DF-RHF Final Energy:  -388.42690590812487
    Total Energy =                       -388.4269059081246951
  Basis Set: CC-PVTZ
  Basis Set:
  Basis Set: CC-PVTZ
  Basis Set:
  @DF-RHF Final Energy:  -388.42690832858659
    Total Energy =                       -388.4269083285861370
  Basis Set: CC-PVTZ
  Basis Set:
  Charge       = 0
  Multiplicity = 1
  Basis Set: CC-PVTZ
  Basis Set:

    Orbital Energies (a.u.)
    -----------------------

    Doubly Occupied:

       1A    -20.545374     2A    -11.266173     3A    -11.210417
       4A    -11.208595     5A    -11.207621     6A    -11.206821
       7A    -11.205149     8A    -11.204478     9A    -11.202545
      10A     -1.362749    11A     -1.089591    12A     -1.057507
      13A     -1.008785    14A     -0.943875    15A     -0.881151
      16A     -0.814775    17A     -0.797438    18A     -0.772319
      19A     -0.698832    20A     -0.648207    21A     -0.640662
      22A     -0.607672    23A     -0.593492    24A     -0.584879
      25A     -0.569093    26A     -0.549509    27A     -0.536634
      28A     -0.523160    29A     -0.507580    30A     -0.494232
      31A     -0.476343    32A     -0.468430    33A     -0.462225
      34A     -0.455191    35A     -0.447563    36A     -0.435827
      37A     -0.423880

  @DF-RHF Final Energy:  -388.42690808784312

   => Energetics <=

    Nuclear Repulsion Energy =            460.4134960828857857
    One-Electron Energy =               -1439.4632539680151240
    Two-Electron Energy =                 590.6228497972867899
    DFT Exchange-Correlation Energy =       0.0000000000000000
    Empirical Dispersion Energy =           0.0000000000000000
    PCM Polarization Energy =               0.0000000000000000
    EFP Energy =                            0.0000000000000000
    Total Energy =                       -388.4269080878425484
    Molecular point group: c1
  Basis Set: CC-PVTZ
  Basis Set:

  -Total Gradient:
     Atom            X                  Y                   Z
    ------   -----------------  -----------------  -----------------
       1       -0.000490974584    -0.000119203351    -0.000577267022
       2        0.000632960254     0.000216786280     0.000611910298
       3       -0.000349835696     0.000149200441     0.000403311178
       4        0.000165392238    -0.000199527403    -0.000480727248
       5       -0.000008190387     0.000024063683     0.000034568456
       6        0.000098945783    -0.000066625912     0.000057496538
       7        0.000031739902     0.000001297870    -0.000035153973
       8       -0.000076906204     0.000012656563    -0.000038191981
       9        0.000020446771    -0.000027857801     0.000052760360
      10       -0.000020814014    -0.000030819197    -0.000024852445
      11        0.000044907347     0.000076625972    -0.000025339888
      12        0.000009710748    -0.000022641193     0.000003962005
      13        0.000034681106     0.000010699820     0.000044457615
      14        0.000006263668    -0.000023034081     0.000002266409
      15       -0.000032154264    -0.000003029909    -0.000027287056
      16       -0.000019499541    -0.000007360843     0.000009208212
      17        0.000007946924     0.000021697160     0.000006102794
      18        0.000007418097    -0.000011228340     0.000019144460
      19       -0.000003395601     0.000000974511    -0.000018045791
      20        0.000006884507    -0.000013158967    -0.000004093729
      21       -0.000063884396     0.000009592179    -0.000007530019
      22       -0.000000071338    -0.000001556057    -0.000007905037
      23       -0.000007218230    -0.000001824165     0.000004764391
      24        0.000005417391    -0.000000370204    -0.000003551095
      25        0.000000881934    -0.000000531715     0.000001693643
      26        0.000000255698     0.000001630113     0.000000044446
      27       -0.000000908113     0.000003544548    -0.000001745519

  **** Optimization is complete! (in 5 steps) ****
    Final optimized geometry and variables:
    Molecular point group: c1

    Geometry (in Angstrom), charge = 0, multiplicity = 1:

    H           -4.295826475209     0.924720542543     0.066305919845
    O           -3.578121325341     0.508068744276    -0.369936814853
    C           -3.469936047247    -0.836367535578     0.032736883343
    C           -2.237168975280    -1.071556750276     0.889378046025
    H           -4.359037555602    -1.142976137521     0.574738634145
    H           -3.415907807140    -1.444870942720    -0.863909386189
    C           -0.927538429999    -0.774740879103     0.164212826431
    H           -2.309462519249    -0.455394588210     1.782006806820
    H           -2.246771610822    -2.107185607688     1.222160709594
    C            0.298693086064    -0.983219365344     1.050757595738
    H           -0.957910647622     0.242087045283    -0.205268925017
    H           -0.851021994787    -1.419797603844    -0.708889328081
    C            1.642210390238    -0.780597682478     0.347717814966
    H            0.239507279263    -0.315526557400     1.907355642028
    H            0.270909616511    -1.992579166287     1.453188723982
    C            1.922864221666     0.651209691330    -0.104513344265
    H            2.433898542955    -1.091346991027     1.024225628417
    H            1.700717720350    -1.446160912356    -0.510563750287
    C            3.307094031575     0.821515013451    -0.724997203227
    H            1.829193095315     1.320047032492     0.748445682518
    H            1.174157645997     0.968471141193    -0.823402513205
    C            3.589500539425     2.249790109614    -1.179083455551
    H            4.063169500377     0.516300035382    -0.006604297487
    H            3.404912400409     0.148929954568    -1.572976948049
    H            3.532468038641     2.943440815832    -0.346653019663
    H            4.578942634842     2.336181804874    -1.613658773175
    H            2.871217003111     2.572396251966    -1.925476024872

  Mulliken Charges: (a.u.)
   Center  Symbol    Alpha    Beta     Spin     Total
       1     H     0.39284  0.39284  0.00000  0.21432
       2     O     4.20429  4.20429  0.00000 -0.40859
       3     C     2.97949  2.97949  0.00000  0.04102
       4     C     3.08523  3.08523  0.00000 -0.17045
       5     H     0.46264  0.46264  0.00000  0.07471
       6     H     0.46487  0.46487  0.00000  0.07026
       7     C     3.09473  3.09473  0.00000 -0.18946
       8     H     0.45908  0.45908  0.00000  0.08185
       9     H     0.45597  0.45597  0.00000  0.08805
      10     C     3.09826  3.09826  0.00000 -0.19652
      11     H     0.44179  0.44179  0.00000  0.11641
      12     H     0.45683  0.45683  0.00000  0.08633
      13     C     3.09757  3.09757  0.00000 -0.19515
      14     H     0.45394  0.45394  0.00000  0.09213
      15     H     0.45027  0.45027  0.00000  0.09946
      16     C     3.08807  3.08807  0.00000 -0.17615
      17     H     0.44938  0.44938  0.00000  0.10123
      18     H     0.45435  0.45435  0.00000  0.09130
      19     C     3.08382  3.08382  0.00000 -0.16763
      20     H     0.45585  0.45585  0.00000  0.08830
      21     H     0.45140  0.45140  0.00000  0.09720
      22     C     3.14974  3.14974  0.00000 -0.29948
      23     H     0.45487  0.45487  0.00000  0.09026
      24     H     0.45503  0.45503  0.00000  0.08994
      25     H     0.45562  0.45562  0.00000  0.08876
      26     H     0.44917  0.44917  0.00000  0.10165
      27     H     0.45489  0.45489  0.00000  0.09022

   Total alpha = 37.00000, Total beta = 37.00000, Total charge =  0.00000

*** Psi4 exiting successfully. Buy a developer a beer!
