  ==> Input File <==

--------------------------------------------------------------------------
set {
	reference rhf
	basis cc-pvtz
}

set_num_threads( 4 )
memory 2 gb

molecule MOL {
0 1

H	 -0.000105	 1.988529	 0.748933
O	 -0.000098	 1.879786	 -0.188206
C	 -0.000014	 0.545691	 -0.532416
C	 0.405009	 -0.309768	 0.669218
C	 0.851594	 0.323059	 -1.783405
H	 -1.012244	 0.268841	 -0.788162
F	 -0.442416	 -0.110046	 1.648423
F	 0.404698	 -1.589175	 0.392039
F	 1.603103	 0.014740	 1.105842
F	 0.362452	 1.030476	 -2.771918
F	 0.868844	 -0.931487	 -2.156944
F	 2.094303	 0.710807	 -1.591828

	symmetry c1
}
set optking {
	frozen_dihedral = ("
		6 3 2 1
	")
}

ee = optimize('scf')
oeprop('DIPOLE', 'QUADRUPOLE', 'MULLIKEN_CHARGES')
f=open( 'psi4out.xyz', 'w' )
f.write( "12  " )
f.write( str(ee) + "\n" )
f.write( MOL.save_string_xyz() )
f.close()
--------------------------------------------------------------------------

    Molecular point group: c1
  Charge       = 0
  Multiplicity = 1
  Basis Set: CC-PVTZ
  Basis Set:
  @DF-RHF Final Energy:  -786.58413956687195
    Total Energy =                       -786.5841395668721816
    Molecular point group: c1
  Basis Set: CC-PVTZ
  Basis Set:
  Basis Set: CC-PVTZ
  Basis Set:
  @DF-RHF Final Energy:  -786.58560563700905
    Total Energy =                       -786.5856056370087117
  Basis Set: CC-PVTZ
  Basis Set:
  Basis Set: CC-PVTZ
  Basis Set:
  @DF-RHF Final Energy:  -786.58590005728138
    Total Energy =                       -786.5859000572817195
  Basis Set: CC-PVTZ
  Basis Set:
  Basis Set: CC-PVTZ
  Basis Set:
  @DF-RHF Final Energy:  -786.58596549286290
    Total Energy =                       -786.5859654928628970
  Basis Set: CC-PVTZ
  Basis Set:
  Basis Set: CC-PVTZ
  Basis Set:
  @DF-RHF Final Energy:  -786.58598054490722
    Total Energy =                       -786.5859805449065334
  Basis Set: CC-PVTZ
  Basis Set:
  Basis Set: CC-PVTZ
  Basis Set:
  @DF-RHF Final Energy:  -786.58598455173933
    Total Energy =                       -786.5859845517387612
  Basis Set: CC-PVTZ
  Basis Set:
  Charge       = 0
  Multiplicity = 1
  Basis Set: CC-PVTZ
  Basis Set:

    Orbital Energies (a.u.)
    -----------------------

    Doubly Occupied:

       1A    -26.365499     2A    -26.362785     3A    -26.361397
       4A    -26.351463     5A    -26.348224     6A    -26.347797
       7A    -20.607291     8A    -11.526802     9A    -11.514704
      10A    -11.351729    11A     -1.776527    12A     -1.762020
      13A     -1.671774    14A     -1.669690    15A     -1.657441
      16A     -1.655663    17A     -1.437156    18A     -1.105190
      19A     -1.003071    20A     -0.943427    21A     -0.876726
      22A     -0.868541    23A     -0.863391    24A     -0.849434
      25A     -0.839001    26A     -0.800022    27A     -0.755016
      28A     -0.741186    29A     -0.726295    30A     -0.724821
      31A     -0.713946    32A     -0.695744    33A     -0.691815
      34A     -0.676229    35A     -0.674870    36A     -0.671131
      37A     -0.659230    38A     -0.654047    39A     -0.621052
      40A     -0.549819    41A     -0.507408

  @DF-RHF Final Energy:  -786.58598560838732

   => Energetics <=

    Nuclear Repulsion Energy =            671.2156855273703968
    One-Electron Energy =               -2429.6445771841399619
    Two-Electron Energy =                 971.8429060483820194
    DFT Exchange-Correlation Energy =       0.0000000000000000
    Empirical Dispersion Energy =           0.0000000000000000
    PCM Polarization Energy =               0.0000000000000000
    EFP Energy =                            0.0000000000000000
    Total Energy =                       -786.5859856083875457
    Molecular point group: c1
  Basis Set: CC-PVTZ
  Basis Set:

  -Total Gradient:
     Atom            X                  Y                   Z
    ------   -----------------  -----------------  -----------------
       1        0.001862835415     0.000007086366     0.000080007934
       2       -0.002255053128     0.000023176691    -0.000553339656
       3        0.000010220682    -0.000400812259     0.001952542625
       4        0.000165898175    -0.000047104030     0.000014115675
       5        0.000137385411     0.000099918955     0.000019289069
       6        0.000346474279     0.000374044107    -0.001500925469
       7       -0.000085319774     0.000047219799     0.000078266552
       8       -0.000003217040    -0.000019277599    -0.000030118212
       9       -0.000066052351    -0.000003447168    -0.000035607378
      10       -0.000047389546     0.000030026709    -0.000039250678
      11       -0.000023586070    -0.000094454318     0.000002265975
      12       -0.000042196060    -0.000016377266     0.000012753561

  **** Optimization is complete! (in 7 steps) ****
    Final optimized geometry and variables:
    Molecular point group: c1

    Geometry (in Angstrom), charge = 0, multiplicity = 1:

    H           -0.706542017123     1.885066519422     1.220115008099
    O           -0.675350065086     1.733720068900     0.292102918527
    C           -0.658321962880     0.387992024293    -0.016523676029
    C           -0.226253733981    -0.466546569930     1.174021033624
    C            0.230379706159     0.219269019523    -1.248630055992
    H           -1.642168651002     0.037717847688    -0.308117328010
    F           -0.977238720042    -0.144917787296     2.212218486489
    F           -0.394003601199    -1.740809778497     0.939415487412
    F            1.019837367059    -0.268158633370     1.521458343867
    F           -0.275804156100     0.909747718483    -2.241193925439
    F            0.280032128091    -1.040040459796    -1.619956149002
    F            1.453565117783     0.633666104759    -1.048683347269

  Mulliken Charges: (a.u.)
   Center  Symbol    Alpha    Beta     Spin     Total
       1     H     0.38247  0.38247  0.00000  0.23506
       2     O     4.18864  4.18864  0.00000 -0.37727
       3     C     2.99471  2.99471  0.00000  0.01058
       4     C     2.68588  2.68588  0.00000  0.62824
       5     C     2.67899  2.67899  0.00000  0.64203
       6     H     0.44289  0.44289  0.00000  0.11422
       7     F     4.61280  4.61280  0.00000 -0.22559
       8     F     4.59968  4.59968  0.00000 -0.19936
       9     F     4.60170  4.60170  0.00000 -0.20340
      10     F     4.60316  4.60316  0.00000 -0.20632
      11     F     4.60666  4.60666  0.00000 -0.21332
      12     F     4.60243  4.60243  0.00000 -0.20486

   Total alpha = 41.00000, Total beta = 41.00000, Total charge =  0.00000
