  ==> Input File <==

--------------------------------------------------------------------------
set {
	reference rhf
	basis 6-31G*
}

set_num_threads( 4 )
memory 2 gb

molecule MOL {
0 1

H	 -2.098997	 -0.674324	 -0.616650
O	 -2.035884	 -0.060112	 0.102722
C	 -0.955155	 0.788182	 -0.092531
C	 0.353668	 0.040312	 -0.004810
H	 -0.985057	 1.290372	 -1.054184
H	 -0.974469	 1.533190	 0.688632
F	 1.296660	 0.809296	 0.528107
F	 0.225114	 -1.028856	 0.764314
F	 0.787211	 -0.357980	 -1.183349

	symmetry c1
}
set optking {
	frozen_dihedral = ("
		7 4 3 5
	")
}

ee = optimize('scf')
oeprop('DIPOLE', 'QUADRUPOLE', 'MULLIKEN_CHARGES')
f=open( 'psi4out.xyz', 'w' )
f.write( "9  " )
f.write( str(ee) + "\n" )
f.write( MOL.save_string_xyz() )
f.close()
--------------------------------------------------------------------------

    Molecular point group: c1
  Charge       = 0
  Multiplicity = 1
  Basis Set: 6-31G*
  Basis Set:
  @DF-RHF Final Energy:  -450.65707233407312
    Total Energy =                       -450.6570723340730638
    Molecular point group: c1
  Basis Set: 6-31G*
  Basis Set:
  Basis Set: 6-31G*
  Basis Set:
  @DF-RHF Final Energy:  -450.65753929406668
    Total Energy =                       -450.6575392940665665
  Basis Set: 6-31G*
  Basis Set:
  Basis Set: 6-31G*
  Basis Set:
  @DF-RHF Final Energy:  -450.65779857310855
    Total Energy =                       -450.6577985731087210
  Basis Set: 6-31G*
  Basis Set:
  Basis Set: 6-31G*
  Basis Set:
  @DF-RHF Final Energy:  -450.65781172394384
    Total Energy =                       -450.6578117239439507
  Basis Set: 6-31G*
  Basis Set:
  Basis Set: 6-31G*
  Basis Set:
  @DF-RHF Final Energy:  -450.65781346315430
    Total Energy =                       -450.6578134631542980
  Basis Set: 6-31G*
  Basis Set:
  Charge       = 0
  Multiplicity = 1
  Basis Set: 6-31G*
  Basis Set:

    Orbital Energies (a.u.)
    -----------------------

    Doubly Occupied:

       1A    -26.341766     2A    -26.340425     3A    -26.337031
       4A    -20.589418     5A    -11.499603     6A    -11.310067
       7A     -1.738674     8A     -1.637002     9A     -1.634256
      10A     -1.400782    11A     -1.044184    12A     -0.922791
      13A     -0.829113    14A     -0.825482    15A     -0.803057
      16A     -0.728095    17A     -0.711335    18A     -0.696218
      19A     -0.662792    20A     -0.656509    21A     -0.640061
      22A     -0.627460    23A     -0.609031    24A     -0.529367
      25A     -0.479760

  @DF-RHF Final Energy:  -450.65781353078461

   => Energetics <=

    Nuclear Repulsion Energy =            276.2366224724252675
    One-Electron Energy =               -1174.6003127294816295
    Two-Electron Energy =                 447.7058767262717538
    DFT Exchange-Correlation Energy =       0.0000000000000000
    Empirical Dispersion Energy =           0.0000000000000000
    PCM Polarization Energy =               0.0000000000000000
    EFP Energy =                            0.0000000000000000
    Total Energy =                       -450.6578135307845514
    Molecular point group: c1
  Basis Set: 6-31G*
  Basis Set:

  -Total Gradient:
     Atom            X                  Y                   Z
    ------   -----------------  -----------------  -----------------
       1        0.000009288863    -0.000000349547     0.000000011211
       2       -0.000011449877     0.000004079923     0.000009012978
       3        0.002612456938     0.005088721962     0.003954589268
       4        0.000996060198     0.000951322716    -0.006089502804
       5       -0.002426199460    -0.004567158498    -0.002170455745
       6       -0.000008358363     0.000002260716     0.000003214385
       7       -0.001163086454    -0.001475946100     0.004329562920
       8       -0.000005014297     0.000021658278     0.000008047788
       9       -0.000003697540    -0.000024589457    -0.000044479998

  **** Optimization is complete! (in 6 steps) ****
    Final optimized geometry and variables:
    Molecular point group: c1

    Geometry (in Angstrom), charge = 0, multiplicity = 1:

    H           -2.150875574966    -0.641848894128    -0.665825181031
    O           -2.061438097675    -0.055142554805     0.073134588044
    C           -0.967367827654     0.783772786313    -0.102563941544
    C            0.357143493971     0.036215731288    -0.007537772818
    H           -1.001236920643     1.265079973671    -1.073862444744
    H           -0.999518740030     1.524876592320     0.679980727071
    F            1.296748272926     0.816630538460     0.502763109898
    F            0.271552674662    -1.030372657575     0.761322598129
    F            0.772913507584    -0.371716474818    -1.199899354803

  Mulliken Charges: (a.u.)
   Center  Symbol    Alpha    Beta     Spin     Total
       1     H     0.27439  0.27439  0.00000  0.45122
       2     O     4.35929  4.35929  0.00000 -0.71858
       3     C     3.06178  3.06178  0.00000 -0.12357
       4     C     2.46298  2.46298  0.00000  1.07405
       5     H     0.40728  0.40728  0.00000  0.18545
       6     H     0.39292  0.39292  0.00000  0.21416
       7     F     4.68261  4.68261  0.00000 -0.36523
       8     F     4.67470  4.67470  0.00000 -0.34941
       9     F     4.68405  4.68405  0.00000 -0.36809

   Total alpha = 25.00000, Total beta = 25.00000, Total charge =  0.00000
