                              Psi4 1.0.54 Driver

  ==> Input File <==

--------------------------------------------------------------------------
set {
	reference rhf
	basis cc-pvtz
}

set_num_threads( 4 )
memory 2 gb

molecule MOL {
0 1

O	 1.847685	 1.294399	 -0.000190
C	 1.704209	 0.119472	 -0.000093
C	 0.380337	 -0.600947	 -0.000234
O	 2.715427	 -0.733672	 0.000025
C	 -0.824290	 0.329213	 -0.000115
H	 0.371455	 -1.255476	 -0.865660
H	 0.371410	 -1.255787	 0.864952
C	 -2.146151	 -0.432825	 -0.000068
H	 -0.773936	 0.979158	 -0.866319
H	 -0.773838	 0.979034	 0.866186
C	 -3.366283	 0.483552	 0.000557
H	 -2.189286	 -1.084450	 -0.869996
H	 -2.188867	 -1.085083	 0.869399
C	 -3.761513	 0.955790	 -1.394504
H	 -3.165751	 1.346034	 0.629898
H	 -4.204219	 -0.036529	 0.456120
H	 -2.955208	 1.509960	 -1.863548
H	 -4.629711	 1.603590	 -1.358122
H	 -4.002273	 0.116492	 -2.038591
C	 4.020999	 -0.192556	 0.000019
H	 4.182809	 0.412891	 -0.879449
H	 4.692590	 -1.035653	 0.000152
H	 4.182726	 0.413087	 0.879368

	symmetry c1
}
set optking {
	frozen_dihedral = ("
		15 11 8 12
	")
}

ee,wfn = optimize('scf', return_wfn=True)
oeprop( wfn, 'DIPOLE', 'QUADRUPOLE', 'MULLIKEN_CHARGES')
f=open( 'psi4out.xyz', 'w' )
f.write( "23  " )
f.write( str(ee) + "\n" )
f.write( MOL.save_string_xyz() )
f.close()
--------------------------------------------------------------------------

    Molecular point group: c1
  Charge       = 0
  Multiplicity = 1
  Basis Set: CC-PVTZ
  Basis Set:
  @DF-RHF Final Energy:  -423.12830206922126
    Total Energy =                       -423.1283020692214905
    Molecular point group: c1
  Basis Set: CC-PVTZ
  Basis Set:
  Basis Set: CC-PVTZ
  Basis Set:
  @DF-RHF Final Energy:  -423.12845241008409
    Total Energy =                       -423.1284524100839235
  Basis Set: CC-PVTZ
  Basis Set:
  Basis Set: CC-PVTZ
  Basis Set:
  @DF-RHF Final Energy:  -423.12848951408557
    Total Energy =                       -423.1284895140853450
  Basis Set: CC-PVTZ
  Basis Set:
  Basis Set: CC-PVTZ
  Basis Set:
  @DF-RHF Final Energy:  -423.12832175703795
    Total Energy =                       -423.1283217570376110
  Basis Set: CC-PVTZ
  Basis Set:
  Basis Set: CC-PVTZ
  Basis Set:
  @DF-RHF Final Energy:  -423.12850034260612
    Total Energy =                       -423.1285003426062303
  Basis Set: CC-PVTZ
  Basis Set:
  Charge       = 0
  Multiplicity = 1
  Basis Set: CC-PVTZ
  Basis Set:

    Orbital Energies (a.u.)
    -----------------------

    Doubly Occupied:

       1A    -20.596334     2A    -20.534160     3A    -11.364588
       4A    -11.278495     5A    -11.233658     6A    -11.217006
       7A    -11.215893     8A    -11.214643     9A    -11.206867
      10A     -1.472193    11A     -1.365798    12A     -1.094150
      13A     -1.043316    14A     -0.986633    15A     -0.931835
      16A     -0.851850    17A     -0.788614    18A     -0.769468
      19A     -0.698851    20A     -0.686582    21A     -0.676021
      22A     -0.643921    23A     -0.617766    24A     -0.597883
      25A     -0.587828    26A     -0.564014    27A     -0.534180
      28A     -0.530907    29A     -0.522899    30A     -0.508939
      31A     -0.492621    32A     -0.468375    33A     -0.463577
      34A     -0.461889    35A     -0.456715    36A     -0.438425

  @DF-RHF Final Energy:  -423.12850059062919

   => Energetics <=

    Nuclear Repulsion Energy =            456.9222807131492345
    One-Electron Energy =               -1481.8677693841507335
    Two-Electron Energy =                 601.8169880803723117
    DFT Exchange-Correlation Energy =       0.0000000000000000
    Empirical Dispersion Energy =           0.0000000000000000
    PCM Polarization Energy =               0.0000000000000000
    EFP Energy =                            0.0000000000000000
    Total Energy =                       -423.1285005906290735
    Molecular point group: c1
  Basis Set: CC-PVTZ
  Basis Set:

  -Total Gradient:
     Atom            X                  Y                   Z
    ------   -----------------  -----------------  -----------------
       1       -0.000065347356     0.000043189421     0.000010466069
       2        0.000022048651     0.000008634796    -0.000008026817
       3        0.000015742642    -0.000006971534    -0.000038744313
       4        0.000007812272    -0.000084447241    -0.000009284099
       5       -0.000021925070     0.000013028590     0.000040644662
       6        0.000012860507    -0.000001866838     0.000013865120
       7        0.000009293031     0.000009430430     0.000010195720
       8       -0.001383096469    -0.001854109436     0.001201335395
       9       -0.000003786118     0.000007512129    -0.000004771077
      10        0.000005807623     0.000002047433    -0.000001569664
      11       -0.000915357694    -0.001120524698     0.002181999656
      12        0.001307961758     0.001737514054    -0.001367977443
      13       -0.000007195865     0.000017785576    -0.000000210487
      14        0.000015566257    -0.000016747908     0.000011218388
      15        0.000987372014     0.001239220933    -0.002033658241
      16        0.000016030628    -0.000007184255    -0.000005357145
      17       -0.000000950324     0.000002263553    -0.000001815100
      18       -0.000000037143    -0.000000855553     0.000003416912
      19        0.000000350846     0.000000149609    -0.000005468294
      20       -0.000004863263     0.000030246131     0.000003920210
      21        0.000007657227    -0.000005978075     0.000006062307
      22       -0.000015292709    -0.000007484631    -0.000000234702
      23        0.000009348557    -0.000004852482    -0.000006007056

  **** Optimization is complete! (in 6 steps) ****
    Final optimized geometry and variables:
    Molecular point group: c1

    Geometry (in Angstrom), charge = 0, multiplicity = 1:

    O            1.740896037244     1.153991461578     0.171561338837
    C            1.597497866339    -0.020969519671     0.161627909792
    C            0.273620946617    -0.741217985299     0.158162161879
    O            2.608694003131    -0.874156565527     0.151223785972
    C           -0.930677451177     0.189193412765     0.178048617834
    H            0.260584361923    -1.382922791564    -0.716766935789
    H            0.268920404813    -1.408790869170     1.013644228137
    C           -2.252971421642    -0.577316405298     0.183314064131
    H           -0.881287225232     0.850301031370    -0.678733546409
    H           -0.875001237844     0.826337272630     1.053269715496
    C           -3.485436221552     0.333857464597     0.152160237800
    H           -2.276252466078    -1.238538435201    -0.679677419301
    H           -2.289308254096    -1.210154947445     1.064932052824
    C           -3.858883042806     0.809276217688    -1.250746505540
    H           -3.302109142116     1.204430527199     0.775086541501
    H           -4.333267657124    -0.188112493500     0.582319257088
    H           -3.046497898592     1.353367701533    -1.718991791554
    H           -4.718750615748     1.468695314894    -1.221301328212
    H           -4.107752178839    -0.029752837345    -1.892050578683
    C            3.914292787428    -0.333287708551     0.151981484568
    H            4.073731408142     0.279752390509    -0.722653913077
    H            4.585656993973    -1.176531607957     0.142696566242
    H            4.078991352667     0.264589629944     1.036084821050

  Mulliken Charges: (a.u.)
   Center  Symbol    Alpha    Beta     Spin     Total
       1     O     4.19712  4.19712  0.00000 -0.39425
       2     C     2.80608  2.80608  0.00000  0.38783
       3     C     3.10225  3.10225  0.00000 -0.20451
       4     O     4.14645  4.14645  0.00000 -0.29289
       5     C     3.08494  3.08494  0.00000 -0.16989
       6     H     0.43979  0.43979  0.00000  0.12043
       7     H     0.43959  0.43959  0.00000  0.12083
       8     C     3.09689  3.09689  0.00000 -0.19377
       9     H     0.44545  0.44545  0.00000  0.10909
      10     H     0.44633  0.44633  0.00000  0.10734
      11     C     3.09057  3.09057  0.00000 -0.18113
      12     H     0.45678  0.45678  0.00000  0.08644
      13     H     0.44846  0.44846  0.00000  0.10307
      14     C     3.14890  3.14890  0.00000 -0.29780
      15     H     0.45412  0.45412  0.00000  0.09176
      16     H     0.44739  0.44739  0.00000  0.10522
      17     H     0.45368  0.45368  0.00000  0.09265
      18     H     0.44755  0.44755  0.00000  0.10491
      19     H     0.45587  0.45587  0.00000  0.08826
      20     C     3.03776  3.03776  0.00000 -0.07552
      21     H     0.45435  0.45435  0.00000  0.09130
      22     H     0.44533  0.44533  0.00000  0.10934
      23     H     0.45436  0.45436  0.00000  0.09128

   Total alpha = 36.00000, Total beta = 36.00000, Total charge = -0.00000

*** Psi4 exiting successfully. Buy a developer a beer!
