  ==> Input File <==

--------------------------------------------------------------------------
set {
	reference rhf
	basis 6-31G*
}

set_num_threads( 4 )
memory 2 gb

molecule MOL {
0 1

H	 -0.216825	 0.021369	 -3.357402
C	 0.374198	 0.036393	 -2.447010
C	 -0.521757	 -0.028637	 -1.217342
H	 0.969602	 0.942322	 -2.434777
H	 1.053364	 -0.811668	 -2.481329
N	 0.263400	 0.031178	 0.000000
H	 -1.199035	 0.820290	 -1.219355
H	 -1.147901	 -0.924895	 -1.265384
C	 -0.521757	 -0.028637	 1.217342
H	 0.935769	 -0.712709	 0.000000
C	 -1.896905	 -0.625607	 0.949675
H	 0.010987	 -0.654321	 1.927335
H	 -0.632172	 0.952084	 1.690244
H	 -1.802934	 -1.616872	 0.520809
H	 -2.472719	 -0.697148	 1.867099
H	 -2.461550	 -0.010472	 0.253660

	symmetry c1
}
set optking {
	frozen_dihedral = ("
		12 9 6 3
	")
}

ee = optimize('scf')
oeprop('DIPOLE', 'QUADRUPOLE', 'MULLIKEN_CHARGES')
f=open( 'psi4out.xyz', 'w' )
f.write( "16  " )
f.write( str(ee) + "\n" )
f.write( MOL.save_string_xyz() )
f.close()
--------------------------------------------------------------------------

    Molecular point group: c1
  Charge       = 0
  Multiplicity = 1
  Basis Set: 6-31G*
  Basis Set:
  @DF-RHF Final Energy:  -212.29733265456096
    Total Energy =                       -212.2973326545607620
    Molecular point group: c1
  Basis Set: 6-31G*
  Basis Set:
  Basis Set: 6-31G*
  Basis Set:
  @DF-RHF Final Energy:  -212.29688934944613
    Total Energy =                       -212.2968893494461895
  Basis Set: 6-31G*
  Basis Set:
  Basis Set: 6-31G*
  Basis Set:
  @DF-RHF Final Energy:  -212.30346483182160
    Total Energy =                       -212.3034648318216568
  Basis Set: 6-31G*
  Basis Set:
  Basis Set: 6-31G*
  Basis Set:
  @DF-RHF Final Energy:  -212.30468255551037
    Total Energy =                       -212.3046825555104533
  Basis Set: 6-31G*
  Basis Set:
  Basis Set: 6-31G*
  Basis Set:
  @DF-RHF Final Energy:  -212.30488157158950
    Total Energy =                       -212.3048815715894762
  Basis Set: 6-31G*
  Basis Set:
  Basis Set: 6-31G*
  Basis Set:
  @DF-RHF Final Energy:  -212.30495685733453
    Total Energy =                       -212.3049568573345596
  Basis Set: 6-31G*
  Basis Set:
  Basis Set: 6-31G*
  Basis Set:
  @DF-RHF Final Energy:  -212.30496308708544
    Total Energy =                       -212.3049630870851843
  Basis Set: 6-31G*
  Basis Set:
  Charge       = 0
  Multiplicity = 1
  Basis Set: 6-31G*
  Basis Set:

    Orbital Energies (a.u.)
    -----------------------

    Doubly Occupied:

       1A    -15.531384     2A    -11.241782     3A    -11.239717
       4A    -11.209432     5A    -11.207003     6A     -1.198148
       7A     -1.023687     8A     -0.967902     9A     -0.853308
      10A     -0.795496    11A     -0.662176    12A     -0.627535
      13A     -0.601867    14A     -0.588832    15A     -0.538480
      16A     -0.531752    17A     -0.510157    18A     -0.493525
      19A     -0.480230    20A     -0.471522    21A     -0.351968

  @DF-RHF Final Energy:  -212.30496337118109

   => Energetics <=

    Nuclear Repulsion Energy =            191.4705995490710393
    One-Electron Energy =                -665.2993212387334552
    Two-Electron Energy =                 261.5237583184813843
    DFT Exchange-Correlation Energy =       0.0000000000000000
    Empirical Dispersion Energy =           0.0000000000000000
    PCM Polarization Energy =               0.0000000000000000
    EFP Energy =                            0.0000000000000000
    Total Energy =                       -212.3049633711810316
    Molecular point group: c1
  Basis Set: 6-31G*
  Basis Set:

  -Total Gradient:
     Atom            X                  Y                   Z
    ------   -----------------  -----------------  -----------------
       1        0.000001504582     0.000001316369     0.000000473024
       2        0.000002274677    -0.000006258931    -0.000004575237
       3        0.000349811628    -0.004702393662    -0.000008916202
       4       -0.000000368502     0.000002371155    -0.000002769034
       5        0.000000936138     0.000000163841    -0.000001499154
       6       -0.001120263276     0.005885747682    -0.000404969855
       7       -0.000001760712     0.000007020448    -0.000001153051
       8       -0.000005366778    -0.000005527317     0.000008369978
       9        0.003627070793     0.003436186985     0.002384576366
      10        0.000010338770    -0.000005316898    -0.000024680070
      11       -0.000010620223     0.000014322286     0.000009739825
      12       -0.002854294673    -0.004613440334    -0.001962863236
      13       -0.000014901613    -0.000000846962     0.000019373181
      14        0.000004092191    -0.000004925097    -0.000028821136
      15        0.000009001410    -0.000007578257    -0.000003558337
      16        0.000002545587    -0.000000841309     0.000021272937

  **** Optimization is complete! (in 8 steps) ****
    Final optimized geometry and variables:
    Molecular point group: c1

    Geometry (in Angstrom), charge = 0, multiplicity = 1:

    H            0.422272801749     0.218752951966    -3.113921466238
    C            0.946323200542     0.226966769371    -2.163098864023
    C           -0.033235676207     0.100787389608    -1.003087849854
    H            1.511302811104     1.148696917604    -2.084724284315
    H            1.652466173035    -0.599784858990    -2.169705591718
    N            0.684092082252     0.143759825967     0.257917664317
    H           -0.726857520369     0.935477582419    -1.034838525524
    H           -0.628337573396    -0.804607242515    -1.131230103196
    C           -0.078163864434     0.085125560894     1.506428360978
    H            1.369927265974    -0.583865413528     0.256604485717
    C           -1.496311374901    -0.490902131160     1.430991712104
    H            0.473609266593    -0.547611721345     2.194020187494
    H           -0.127504670205     1.078644927863     1.942605862467
    H           -1.495670156352    -1.511520085600     1.060758968072
    H           -1.932606148402    -0.499940345978     2.425547516486
    H           -2.148587040340     0.097307396281     0.795169782838

  Mulliken Charges: (a.u.)
   Center  Symbol    Alpha    Beta     Spin     Total
       1     H     0.42093  0.42093  0.00000  0.15815
       2     C     3.24078  3.24078  0.00000 -0.48157
       3     C     3.05435  3.05435  0.00000 -0.10871
       4     H     0.41197  0.41197  0.00000  0.17607
       5     H     0.42569  0.42569  0.00000  0.14861
       6     N     3.85784  3.85784  0.00000 -0.71568
       7     H     0.42070  0.42070  0.00000  0.15861
       8     H     0.43252  0.43252  0.00000  0.13497
       9     C     3.04725  3.04725  0.00000 -0.09449
      10     H     0.33360  0.33360  0.00000  0.33281
      11     C     3.25221  3.25221  0.00000 -0.50442
      12     H     0.42450  0.42450  0.00000  0.15101
      13     H     0.41972  0.41972  0.00000  0.16057
      14     H     0.42128  0.42128  0.00000  0.15744
      15     H     0.41867  0.41867  0.00000  0.16266
      16     H     0.41801  0.41801  0.00000  0.16398

   Total alpha = 21.00000, Total beta = 21.00000, Total charge =  0.00000
