  ==> Input File <==

--------------------------------------------------------------------------
set {
	reference rhf
	basis cc-pvtz
}

set_num_threads( 4 )
memory 2 gb

molecule MOL {
0 1

H	 3.066000	 -1.412000	 0.000000
O	 2.155000	 -1.670000	 0.000000
C	 1.345000	 -0.589000	 -0.000000
C	 1.837000	 0.710000	 -0.000000
C	 -0.021000	 -0.811000	 0.000000
H	 2.901000	 0.881000	 -0.000000
C	 0.964000	 1.785000	 -0.000000
H	 -0.402000	 -1.814000	 0.000000
C	 -0.888000	 0.270000	 0.000000
H	 1.356000	 2.785000	 -0.000000
C	 -0.403000	 1.572000	 0.000000
C	 -2.357000	 0.038000	 0.000000
H	 -1.083000	 2.405000	 0.000000
O	 -2.871000	 -1.034000	 -0.000000
H	 -2.968000	 0.947000	 0.000000

	symmetry c1
}
ee = optimize('scf')
oeprop('DIPOLE', 'QUADRUPOLE', 'MULLIKEN_CHARGES')
f=open( 'psi4out.xyz', 'w' )
f.write( "15  " )
f.write( str(ee) + "\n" )
f.write( MOL.save_string_xyz() )
f.close()
--------------------------------------------------------------------------

    Molecular point group: c1
  Charge       = 0
  Multiplicity = 1
  Basis Set: CC-PVTZ
  Basis Set:
  @DF-RHF Final Energy:  -418.43867503988554
    Total Energy =                       -418.4386750398856520
    Molecular point group: c1
  Basis Set: CC-PVTZ
  Basis Set:
  Basis Set: CC-PVTZ
  Basis Set:
  @DF-RHF Final Energy:  -418.43889951430282
    Total Energy =                       -418.4388995143032162
  Basis Set: CC-PVTZ
  Basis Set:
  Charge       = 0
  Multiplicity = 1
  Basis Set: CC-PVTZ
  Basis Set:

    Orbital Energies (a.u.)
    -----------------------

    Doubly Occupied:

       1A    -20.595743     2A    -20.554350     3A    -11.327431
       4A    -11.311880     5A    -11.251066     6A    -11.250694
       7A    -11.247730     8A    -11.243171     9A    -11.237349
      10A     -1.427454    11A     -1.410039    12A     -1.174347
      13A     -1.052159    14A     -1.031007    15A     -0.902849
      16A     -0.850286    17A     -0.816976    18A     -0.740345
      19A     -0.706305    20A     -0.690048    21A     -0.644531
      22A     -0.640526    23A     -0.614507    24A     -0.608785
      25A     -0.579704    26A     -0.556893    27A     -0.546001
      28A     -0.516406    29A     -0.492706    30A     -0.426838
      31A     -0.358364    32A     -0.330915

  @DF-RHF Final Energy:  -418.43890722485094

   => Energetics <=

    Nuclear Repulsion Energy =            404.1054453404733522
    One-Electron Energy =               -1370.8138970310706100
    Two-Electron Energy =                 548.2695444657462076
    DFT Exchange-Correlation Energy =       0.0000000000000000
    Empirical Dispersion Energy =           0.0000000000000000
    PCM Polarization Energy =               0.0000000000000000
    EFP Energy =                            0.0000000000000000
    Total Energy =                       -418.4389072248510502
    Molecular point group: c1
  Basis Set: CC-PVTZ
  Basis Set:

  -Total Gradient:
     Atom            X                  Y                   Z
    ------   -----------------  -----------------  -----------------
       1       -0.000131900417    -0.000100914541    -0.000000000000
       2        0.000281406889    -0.000053845095     0.000000000000
       3        0.000081947049     0.000416222976    -0.000000000000
       4        0.000084402415    -0.000371861911    -0.000000000000
       5       -0.000271157278     0.000051436636    -0.000000000000
       6       -0.000049958207     0.000026788864    -0.000000000000
       7       -0.000324774644     0.000112169644     0.000000000000
       8        0.000035855285     0.000052182992    -0.000000000000
       9       -0.000117942447    -0.000294895413    -0.000000000000
      10        0.000011625585    -0.000014750246    -0.000000000000
      11        0.000318614544     0.000178619253    -0.000000000000
      12        0.000223138347     0.000321921910     0.000000000001
      13        0.000010311558    -0.000033928703    -0.000000000000
      14       -0.000129604745    -0.000144711248    -0.000000000000
      15       -0.000021963932    -0.000144435121    -0.000000000000

  **** Optimization is complete! (in 3 steps) ****
    Final optimized geometry and variables:
    Molecular point group: c1

    Geometry (in Angstrom), charge = 0, multiplicity = 1:

    H            3.083658619542    -1.378386924290    -0.000000000001
    O            2.179005282076    -1.633390787744    -0.000000000000
    C            1.366949577758    -0.558201436756    -0.000000000000
    C            1.856078887362     0.739270786814    -0.000000000001
    C            0.005259214639    -0.781402252157     0.000000000001
    H            2.917129063847     0.911324624228    -0.000000000001
    C            0.983940835363     1.809004670361    -0.000000000000
    H           -0.375621832268    -1.782288586498     0.000000000001
    C           -0.861704391281     0.296438621022     0.000000000001
    H            1.373839539228     2.808405325013    -0.000000000001
    C           -0.379626797086     1.594293014231     0.000000000001
    C           -2.330689393564     0.069586704055     0.000000000002
    H           -1.060251772921     2.424134714197     0.000000000001
    O           -2.848621368302    -0.993976225699    -0.000000000002
    H           -2.934306583041     0.982409672793    -0.000000000003

  Mulliken Charges: (a.u.)
   Center  Symbol    Alpha    Beta     Spin     Total
       1     H     0.38737  0.38737  0.00000  0.22525
       2     O     4.16968  4.16968  0.00000 -0.33937
       3     C     2.84170  2.84170  0.00000  0.31659
       4     C     3.12656  3.12656  0.00000 -0.25312
       5     C     3.11854  3.11854  0.00000 -0.23709
       6     H     0.43116  0.43116  0.00000  0.13767
       7     C     3.06285  3.06285  0.00000 -0.12570
       8     H     0.40489  0.40489  0.00000  0.19022
       9     C     2.97065  2.97065  0.00000  0.05870
      10     H     0.41938  0.41938  0.00000  0.16124
      11     C     3.10956  3.10956  0.00000 -0.21912
      12     C     2.90909  2.90909  0.00000  0.18182
      13     H     0.42328  0.42328  0.00000  0.15345
      14     O     4.16888  4.16888  0.00000 -0.33777
      15     H     0.45639  0.45639  0.00000  0.08723

   Total alpha = 32.00000, Total beta = 32.00000, Total charge =  0.00000
