                              Psi4 1.0.54 Driver

  ==> Input File <==

--------------------------------------------------------------------------
set {
	reference rhf
	basis cc-pvtz
}

set_num_threads( 4 )
memory 2 gb

molecule MOL {
0 1

H	 -4.230259	 0.539112	 0.036360
O	 -3.515113	 -0.019339	 -0.206321
C	 -2.302264	 0.528872	 0.237390
C	 -1.175688	 -0.398187	 -0.171891
H	 -2.148018	 1.514076	 -0.197759
H	 -2.310727	 0.646384	 1.319032
C	 0.196029	 0.106276	 0.266738
H	 -1.201873	 -0.515469	 -1.250677
H	 -1.365975	 -1.378728	 0.252664
C	 1.330220	 -0.826136	 -0.155230
H	 0.359542	 1.097229	 -0.145561
H	 0.212134	 0.218135	 1.348778
C	 2.719700	 -0.407669	 0.328325
H	 1.339388	 -0.911200	 -1.239363
H	 1.119001	 -1.821953	 0.224128
C	 3.310936	 0.799957	 -0.395164
H	 3.393094	 -1.250291	 0.204889
H	 2.681917	 -0.205307	 1.395591
H	 3.354705	 0.629088	 -1.466121
H	 2.729632	 1.698649	 -0.227455
H	 4.320075	 0.997347	 -0.051874

	symmetry c1
}
set optking {
	frozen_dihedral = ("
		16 13 10 14
	")
}

ee,wfn = optimize('scf', return_wfn=True)
oeprop( wfn, 'DIPOLE', 'QUADRUPOLE', 'MULLIKEN_CHARGES')
f=open( 'psi4out.xyz', 'w' )
f.write( "21  " )
f.write( str(ee) + "\n" )
f.write( MOL.save_string_xyz() )
f.close()
--------------------------------------------------------------------------

    Molecular point group: c1
  Charge       = 0
  Multiplicity = 1
  Basis Set: CC-PVTZ
  Basis Set:
  @DF-RHF Final Energy:  -310.33287263949831
    Total Energy =                       -310.3328726394981913
    Molecular point group: c1
  Basis Set: CC-PVTZ
  Basis Set:
  Basis Set: CC-PVTZ
  Basis Set:
  @DF-RHF Final Energy:  -310.33289218603898
    Total Energy =                       -310.3328921860387482
  Basis Set: CC-PVTZ
  Basis Set:
  Basis Set: CC-PVTZ
  Basis Set:
  @DF-RHF Final Energy:  -310.33292595097134
    Total Energy =                       -310.3329259509714007
  Basis Set: CC-PVTZ
  Basis Set:
  Charge       = 0
  Multiplicity = 1
  Basis Set: CC-PVTZ
  Basis Set:

    Orbital Energies (a.u.)
    -----------------------

    Doubly Occupied:

       1A    -20.545368     2A    -11.264965     3A    -11.213157
       4A    -11.213019     5A    -11.211247     6A    -11.208910
       7A    -11.206161     8A     -1.363222     9A     -1.087360
      10A     -1.034524    11A     -0.955719    12A     -0.875402
      13A     -0.807077    14A     -0.780808    15A     -0.696220
      16A     -0.662868    17A     -0.621607    18A     -0.610102
      19A     -0.588588    20A     -0.569974    21A     -0.538169
      22A     -0.520769    23A     -0.511303    24A     -0.487725
      25A     -0.480103    26A     -0.461868    27A     -0.455843
      28A     -0.443843    29A     -0.437374

  @DF-RHF Final Energy:  -310.33292627631994

   => Energetics <=

    Nuclear Repulsion Energy =            312.6998050778390166
    One-Electron Energy =               -1040.3588658750418290
    Two-Electron Energy =                 417.3261345208824196
    DFT Exchange-Correlation Energy =       0.0000000000000000
    Empirical Dispersion Energy =           0.0000000000000000
    PCM Polarization Energy =               0.0000000000000000
    EFP Energy =                            0.0000000000000000
    Total Energy =                       -310.3329262763203360
    Molecular point group: c1
  Basis Set: CC-PVTZ
  Basis Set:

  -Total Gradient:
     Atom            X                  Y                   Z
    ------   -----------------  -----------------  -----------------
       1        0.000006616524     0.000002141209    -0.000001236217
       2        0.000009105369    -0.000007909238    -0.000003349712
       3        0.000002953033     0.000022603679    -0.000012311148
       4       -0.000008379416     0.000003332706    -0.000009565219
       5       -0.000002408953     0.000012941161     0.000004457838
       6        0.000004802270    -0.000011287053    -0.000008917781
       7       -0.000009925030    -0.000017057355     0.000041327978
       8       -0.000002920959    -0.000011924024    -0.000004606568
       9        0.000004845967     0.000005176508     0.000010779375
      10        0.000506901989    -0.001515946481    -0.000108312043
      11       -0.000007894643     0.000000638496     0.000010983028
      12       -0.000007932399     0.000003196139     0.000013999187
      13       -0.000553382223     0.000947421857     0.000722913109
      14       -0.000280852109     0.001042597942    -0.000110697719
      15        0.000006758127     0.000021485156     0.000008433301
      16        0.000349097900    -0.000493433993    -0.000550796052
      17        0.000016545002    -0.000003972197     0.000004079427
      18       -0.000020715358    -0.000006104068    -0.000013818367
      19       -0.000012245582     0.000002840495     0.000014151674
      20       -0.000000667740     0.000009318009    -0.000000800872
      21       -0.000000301760    -0.000006058946    -0.000006713222

  **** Optimization is complete! (in 4 steps) ****
    Final optimized geometry and variables:
    Molecular point group: c1

    Geometry (in Angstrom), charge = 0, multiplicity = 1:

    H           -4.229094000693     0.592908827734     0.019452810183
    O           -3.517322990368     0.028532741076    -0.219234367269
    C           -2.304101962351     0.558399422338     0.245182241665
    C           -1.182988170736    -0.377710698644    -0.158376684077
    H           -2.132957240694     1.545797528793    -0.178560304696
    H           -2.325184564034     0.665833135274     1.327671657862
    C            0.188732417927     0.107681833398     0.300713415393
    H           -1.197674637944    -0.485871422731    -1.238273630361
    H           -1.389020423783    -1.359537454470     0.255828368419
    C            1.318032234733    -0.838037954716    -0.106194852228
    H            0.371574704065     1.097609271222    -0.106563692678
    H            0.190938528555     0.216856244468     1.382933013195
    C            2.708786702114    -0.402826043877     0.360565306747
    H            1.320461262066    -0.939902731854    -1.188740444645
    H            1.105205652164    -1.824294405169     0.295426771234
    C            3.280889995625     0.797401025239    -0.390111968371
    H            3.390495981064    -1.239165708105     0.239943512863
    H            2.680911351710    -0.187612953031     1.425380610837
    H            3.338758843962     0.596038451427    -1.454768520972
    H            2.677563123306     1.687353837127    -0.254799250454
    H            4.281831658510     1.027810903315    -0.043393470038

  Mulliken Charges: (a.u.)
   Center  Symbol    Alpha    Beta     Spin     Total
       1     H     0.39762  0.39762  0.00000  0.20476
       2     O     4.19429  4.19429  0.00000 -0.38858
       3     C     2.96326  2.96326  0.00000  0.07349
       4     C     3.08406  3.08406  0.00000 -0.16812
       5     H     0.47499  0.47499  0.00000  0.05002
       6     H     0.47489  0.47489  0.00000  0.05021
       7     C     3.10231  3.10231  0.00000 -0.20462
       8     H     0.45088  0.45088  0.00000  0.09824
       9     H     0.45068  0.45068  0.00000  0.09863
      10     C     3.09392  3.09392  0.00000 -0.18783
      11     H     0.45415  0.45415  0.00000  0.09171
      12     H     0.45561  0.45561  0.00000  0.08878
      13     C     3.09004  3.09004  0.00000 -0.18008
      14     H     0.45398  0.45398  0.00000  0.09204
      15     H     0.44827  0.44827  0.00000  0.10346
      16     C     3.15063  3.15063  0.00000 -0.30126
      17     H     0.44840  0.44840  0.00000  0.10320
      18     H     0.45533  0.45533  0.00000  0.08934
      19     H     0.45478  0.45478  0.00000  0.09045
      20     H     0.45497  0.45497  0.00000  0.09007
      21     H     0.44696  0.44696  0.00000  0.10607

   Total alpha = 29.00000, Total beta = 29.00000, Total charge =  0.00000

*** Psi4 exiting successfully. Buy a developer a beer!
