  ==> Input File <==

--------------------------------------------------------------------------
set {
	reference rhf
	basis 6-31G*
}

set_num_threads( 1 )
memory 2 gb

molecule MOL {
0 1

O	 -2.042549	 -1.228399	 -0.269030
C	 -1.653912	 -0.146171	 0.050137
C	 -0.332303	 0.024011	 0.778412
C	 -2.438579	 1.106236	 -0.272369
C	 0.845713	 -0.001731	 -0.208243
H	 -0.323783	 0.953829	 1.340327
H	 -0.235459	 -0.796807	 1.480410
C	 1.691804	 1.270901	 -0.148489
H	 0.473551	 -0.137395	 -1.222232
H	 1.464707	 -0.865739	 0.014193
C	 2.869203	 1.244263	 -1.122259
H	 1.063948	 2.132979	 -0.363068
H	 2.062989	 1.406413	 0.864639
H	 2.527868	 1.143680	 -2.148624
H	 3.532832	 0.410822	 -0.911509
H	 3.452604	 2.157098	 -1.055917
H	 -3.277823	 0.863061	 -0.908988
H	 -1.806773	 1.843019	 -0.759671
H	 -2.802853	 1.554979	 0.648059

	symmetry c1
}
set optking {
	frozen_dihedral = ("
		11 8 5 9,
		5 3 2 4
	")
}

ee = energy('scf')
oeprop('DIPOLE', 'QUADRUPOLE', 'MULLIKEN_CHARGES')
f=open( 'psi4out.xyz', 'w' )
f.write( "19  " )
f.write( str(ee) + "\n" )
f.write( MOL.save_string_xyz() )
f.close()
--------------------------------------------------------------------------

    Molecular point group: c1

    Geometry (in Angstrom), charge = 0, multiplicity = 1:

       Center              X                  Y                   Z               Mass
    ------------   -----------------  -----------------  -----------------  -----------------
           O         -1.895604556044    -1.558819249151    -0.084964726497    15.994914619560
           C         -1.506967556044    -0.476591249151     0.234202273503    12.000000000000
           C         -0.185358556044    -0.306409249151     0.962477273503    12.000000000000
           C         -2.291634556044     0.775815750849    -0.088303726497    12.000000000000
           C          0.992657443956    -0.332151249151    -0.024177726497    12.000000000000
           H         -0.176838556044     0.623408750849     1.524392273503     1.007825032070
           H         -0.088514556044    -1.127227249151     1.664475273503     1.007825032070
           C          1.838748443956     0.940480750849     0.035576273503    12.000000000000
           H          0.620495443956    -0.467815249151    -1.038166726497     1.007825032070
           H          1.611651443956    -1.196159249151     0.198258273503     1.007825032070
           C          3.016147443956     0.913842750849    -0.938193726497    12.000000000000
           H          1.210892443956     1.802558750849    -0.179002726497     1.007825032070
           H          2.209933443956     1.075992750849     1.048704273503     1.007825032070
           H          2.674812443956     0.813259750849    -1.964558726497     1.007825032070
           H          3.679776443956     0.080401750849    -0.727443726497     1.007825032070
           H          3.599548443956     1.826677750849    -0.871851726497     1.007825032070
           H         -3.130878556044     0.532640750849    -0.724922726497     1.007825032070
           H         -1.659828556044     1.512598750849    -0.575605726497     1.007825032070
           H         -2.655908556044     1.224558750849     0.832124273503     1.007825032070

  Charge       = 0
  Multiplicity = 1
  Basis Set: 6-31G*
  Basis Set:

    Orbital Energies (a.u.)
    -----------------------

    Doubly Occupied:

       1A    -20.546242     2A    -11.324379     3A    -11.229646
       4A    -11.228692     5A    -11.227726     6A    -11.226589
       7A    -11.215677     8A     -1.392511     9A     -1.092602
      10A     -1.028640    11A     -0.984631    12A     -0.890152
      13A     -0.808917    14A     -0.734804    15A     -0.659926
      16A     -0.645983    17A     -0.621906    18A     -0.611098
      19A     -0.585481    20A     -0.576124    21A     -0.557587
      22A     -0.531454    23A     -0.514745    24A     -0.505067
      25A     -0.481839    26A     -0.474464    27A     -0.462587
      28A     -0.396502

  @DF-RHF Final Energy:  -309.05907709560790

   => Energetics <=

    Nuclear Repulsion Energy =            303.7759461930229463
    One-Electron Energy =               -1020.5578644561904866
    Two-Electron Energy =                 407.7228411675580446
    DFT Exchange-Correlation Energy =       0.0000000000000000
    Empirical Dispersion Energy =           0.0000000000000000
    PCM Polarization Energy =               0.0000000000000000
    EFP Energy =                            0.0000000000000000
    Total Energy =                       -309.0590770956094957

  Mulliken Charges: (a.u.)
   Center  Symbol    Alpha    Beta     Spin     Total
       1     O     4.26165  4.26165  0.00000 -0.52330
       2     C     2.74162  2.74162  0.00000  0.51676
       3     C     3.20236  3.20236  0.00000 -0.40472
       4     C     3.28969  3.28969  0.00000 -0.57938
       5     C     3.15829  3.15829  0.00000 -0.31657
       6     H     0.41410  0.41410  0.00000  0.17179
       7     H     0.39875  0.39875  0.00000  0.20250
       8     C     3.15580  3.15580  0.00000 -0.31161
       9     H     0.41216  0.41216  0.00000  0.17567
      10     H     0.41043  0.41043  0.00000  0.17913
      11     C     3.24075  3.24075  0.00000 -0.48149
      12     H     0.42360  0.42360  0.00000  0.15281
      13     H     0.42014  0.42014  0.00000  0.15973
      14     H     0.41988  0.41988  0.00000  0.16024
      15     H     0.41940  0.41940  0.00000  0.16120
      16     H     0.41774  0.41774  0.00000  0.16452
      17     H     0.39703  0.39703  0.00000  0.20594
      18     H     0.41014  0.41014  0.00000  0.17972
      19     H     0.40646  0.40646  0.00000  0.18707

   Total alpha = 28.00000, Total beta = 28.00000, Total charge =  0.00000
