                              Psi4 1.0.54 Driver

  ==> Input File <==

--------------------------------------------------------------------------
set {
	reference rhf
	basis cc-pvtz
}

set_num_threads( 4 )
memory 2 gb

molecule MOL {
0 1

H	 1.128311	 0.207724	 1.465118
C	 1.134565	 0.093781	 0.372499
C	 0.062554	 0.862911	 -0.350953
O	 1.948932	 -0.587720	 -0.146651
C	 -0.441841	 0.136544	 -1.601789
H	 0.445841	 1.846471	 -0.590110
H	 -0.761249	 0.984399	 0.348808
C	 0.605178	 0.032611	 -2.707048
H	 -1.311836	 0.663235	 -1.976328
H	 -0.784900	 -0.857116	 -1.327208
H	 0.934429	 1.015981	 -3.023488
H	 0.201689	 -0.478759	 -3.572691
H	 1.481778	 -0.515298	 -2.379323

	symmetry c1
}
set optking {
	frozen_dihedral = ("
		6 3 2 4
	")
}

ee,wfn = optimize('scf', return_wfn=True)
oeprop( wfn, 'DIPOLE', 'QUADRUPOLE', 'MULLIKEN_CHARGES')
f=open( 'psi4out.xyz', 'w' )
f.write( "13  " )
f.write( str(ee) + "\n" )
f.write( MOL.save_string_xyz() )
f.close()
--------------------------------------------------------------------------

    Molecular point group: c1
  Charge       = 0
  Multiplicity = 1
  Basis Set: CC-PVTZ
  Basis Set:
  @DF-RHF Final Energy:  -231.06648049459676
    Total Energy =                       -231.0664804945964761
    Molecular point group: c1
  Basis Set: CC-PVTZ
  Basis Set:
  Basis Set: CC-PVTZ
  Basis Set:
  @DF-RHF Final Energy:  -231.06835521468707
    Total Energy =                       -231.0683552146871307
  Basis Set: CC-PVTZ
  Basis Set:
  Basis Set: CC-PVTZ
  Basis Set:
  @DF-RHF Final Energy:  -231.06789591675911
    Total Energy =                       -231.0678959167589142
  Basis Set: CC-PVTZ
  Basis Set:
  Basis Set: CC-PVTZ
  Basis Set:
  @DF-RHF Final Energy:  -231.06877522547211
    Total Energy =                       -231.0687752254720522
  Basis Set: CC-PVTZ
  Basis Set:
  Basis Set: CC-PVTZ
  Basis Set:
  @DF-RHF Final Energy:  -231.06891593085072
    Total Energy =                       -231.0689159308506078
  Basis Set: CC-PVTZ
  Basis Set:
  Basis Set: CC-PVTZ
  Basis Set:
  @DF-RHF Final Energy:  -231.06892109779403
    Total Energy =                       -231.0689210977940604
  Basis Set: CC-PVTZ
  Basis Set:
  Basis Set: CC-PVTZ
  Basis Set:
  @DF-RHF Final Energy:  -231.06892259121966
    Total Energy =                       -231.0689225912196321
  Basis Set: CC-PVTZ
  Basis Set:
  Charge       = 0
  Multiplicity = 1
  Basis Set: CC-PVTZ
  Basis Set:

    Orbital Energies (a.u.)
    -----------------------

    Doubly Occupied:

       1A    -20.553504     2A    -11.324182     3A    -11.236835
       4A    -11.226830     5A    -11.205803     6A     -1.409319
       7A     -1.077938     8A     -0.972741     9A     -0.847278
      10A     -0.772107    11A     -0.686892    12A     -0.648959
      13A     -0.609486    14A     -0.586984    15A     -0.571369
      16A     -0.524237    17A     -0.498054    18A     -0.485606
      19A     -0.481746    20A     -0.410818

  @DF-RHF Final Energy:  -231.06892267754355

   => Energetics <=

    Nuclear Repulsion Energy =            176.2226645103009162
    One-Electron Energy =                -662.3218028073401911
    Two-Electron Energy =                 255.0302156194958343
    DFT Exchange-Correlation Energy =       0.0000000000000000
    Empirical Dispersion Energy =           0.0000000000000000
    PCM Polarization Energy =               0.0000000000000000
    EFP Energy =                            0.0000000000000000
    Total Energy =                       -231.0689226775434690
    Molecular point group: c1
  Basis Set: CC-PVTZ
  Basis Set:

  -Total Gradient:
     Atom            X                  Y                   Z
    ------   -----------------  -----------------  -----------------
       1       -0.000004694833    -0.000000556954    -0.000004611769
       2       -0.002801499610    -0.003668686602    -0.000029585706
       3       -0.000482093138     0.002661874762     0.002604957712
       4        0.002081862531     0.002351935826    -0.000296216873
       5       -0.000001220892     0.000012574518     0.000003296820
       6        0.001194196114    -0.001341911508    -0.002291415913
       7        0.000008462206    -0.000003873899     0.000008371572
       8       -0.000003434905    -0.000003623805    -0.000003419776
       9       -0.000001681834    -0.000002822427     0.000005828628
      10        0.000003711516     0.000001627733    -0.000003358275
      11       -0.000004100035    -0.000007869377     0.000006986390
      12        0.000008124552     0.000002849062     0.000003500258
      13        0.000002368330    -0.000001517330    -0.000004333066

  **** Optimization is complete! (in 8 steps) ****
    Final optimized geometry and variables:
    Molecular point group: c1

    Geometry (in Angstrom), charge = 0, multiplicity = 1:

    H            0.247772321551     0.303269927208     2.418463055316
    C            0.333938146282     0.036271584865     1.357823445591
    C           -0.614243906297     0.765876497645     0.437977607710
    O            1.158179709464    -0.738597381590     1.013530823563
    C           -1.016008834777     0.002975319209    -0.828659819986
    H           -0.110387572445     1.690167780881     0.159209551433
    H           -1.489232041487     1.047762377400     1.013207563622
    C            0.054377594023    -0.023611086209    -1.916216895407
    H           -1.911573015544     0.469104944077    -1.225657932495
    H           -1.290193207662    -1.012009303779    -0.561579472582
    H            0.314357939836     0.983966184509    -2.225723692743
    H           -0.307710664257    -0.551725914748    -2.790827064121
    H            0.953344884595    -0.513792817773    -1.572080363186

  Mulliken Charges: (a.u.)
   Center  Symbol    Alpha    Beta     Spin     Total
       1     H     0.44932  0.44932  0.00000  0.10137
       2     C     2.92102  2.92102  0.00000  0.15797
       3     C     3.09572  3.09572  0.00000 -0.19143
       4     O     4.16751  4.16751  0.00000 -0.33502
       5     C     3.08324  3.08324  0.00000 -0.16647
       6     H     0.44595  0.44595  0.00000  0.10810
       7     H     0.44086  0.44086  0.00000  0.11827
       8     C     3.14869  3.14869  0.00000 -0.29739
       9     H     0.44786  0.44786  0.00000  0.10429
      10     H     0.45037  0.45037  0.00000  0.09925
      11     H     0.45979  0.45979  0.00000  0.08041
      12     H     0.45015  0.45015  0.00000  0.09969
      13     H     0.43952  0.43952  0.00000  0.12096

   Total alpha = 20.00000, Total beta = 20.00000, Total charge = -0.00000

*** Psi4 exiting successfully. Buy a developer a beer!
