                              Psi4 1.0.54 Driver

  ==> Input File <==

--------------------------------------------------------------------------
set {
	reference rhf
	basis cc-pvtz
}

set_num_threads( 4 )
memory 2 gb

molecule MOL {
0 1

H	 2.196569	 -1.250021	 -0.468871
N	 2.433987	 -0.362316	 -0.080024
C	 1.263552	 0.494993	 0.021953
H	 3.123591	 0.045513	 -0.676227
C	 -0.016533	 -0.325589	 -0.026925
H	 1.280915	 1.180773	 -0.818522
H	 1.263064	 1.106893	 0.925038
C	 -1.280353	 0.525521	 0.047747
H	 -0.016686	 -0.912532	 -0.939714
H	 -0.014099	 -1.037598	 0.796369
C	 -2.560681	 -0.301323	 -0.007747
H	 -1.279957	 1.241025	 -0.770189
H	 -1.270445	 1.110526	 0.963468
H	 -2.617064	 -0.872870	 -0.928010
H	 -3.439525	 0.331102	 0.043462
H	 -2.609427	 -1.002736	 0.818585

	symmetry c1
}
set optking {
	frozen_dihedral = ("
		1 2 3 6
	")
}

ee,wfn = optimize('scf', return_wfn=True)
oeprop( wfn, 'DIPOLE', 'QUADRUPOLE', 'MULLIKEN_CHARGES')
f=open( 'psi4out.xyz', 'w' )
f.write( "16  " )
f.write( str(ee) + "\n" )
f.write( MOL.save_string_xyz() )
f.close()
--------------------------------------------------------------------------

    Molecular point group: c1
  Charge       = 0
  Multiplicity = 1
  Basis Set: CC-PVTZ
  Basis Set:
  @DF-RHF Final Energy:  -212.39599625024439
    Total Energy =                       -212.3959962502444796
    Molecular point group: c1
  Basis Set: CC-PVTZ
  Basis Set:
  Basis Set: CC-PVTZ
  Basis Set:
  @DF-RHF Final Energy:  -212.39738956493383
    Total Energy =                       -212.3973895649338601
  Basis Set: CC-PVTZ
  Basis Set:
  Basis Set: CC-PVTZ
  Basis Set:
  @DF-RHF Final Energy:  -212.39758855914280
    Total Energy =                       -212.3975885591427186
  Basis Set: CC-PVTZ
  Basis Set:
  Basis Set: CC-PVTZ
  Basis Set:
  @DF-RHF Final Energy:  -212.39759525371787
    Total Energy =                       -212.3975952537177818
  Basis Set: CC-PVTZ
  Basis Set:
  Charge       = 0
  Multiplicity = 1
  Basis Set: CC-PVTZ
  Basis Set:

    Orbital Energies (a.u.)
    -----------------------

    Doubly Occupied:

       1A    -15.522878     2A    -11.237429     3A    -11.215387
       4A    -11.213189     5A    -11.207940     6A     -1.175450
       7A     -1.062978     8A     -0.960961     9A     -0.846365
      10A     -0.797377    11A     -0.657550    12A     -0.647838
      13A     -0.599514    14A     -0.580017    15A     -0.572428
      16A     -0.521004    17A     -0.510151    18A     -0.472520
      19A     -0.469373    20A     -0.463281    21A     -0.377580

  @DF-RHF Final Energy:  -212.39759611265785

   => Energetics <=

    Nuclear Repulsion Energy =            186.6743008146875411
    One-Electron Energy =                -655.9213731743564040
    Two-Electron Energy =                 256.8494762470108981
    DFT Exchange-Correlation Energy =       0.0000000000000000
    Empirical Dispersion Energy =           0.0000000000000000
    PCM Polarization Energy =               0.0000000000000000
    EFP Energy =                            0.0000000000000000
    Total Energy =                       -212.3975961126579932
    Molecular point group: c1
  Basis Set: CC-PVTZ
  Basis Set:

  -Total Gradient:
     Atom            X                  Y                   Z
    ------   -----------------  -----------------  -----------------
       1       -0.000542872273    -0.000934160223     0.002628782246
       2        0.001090374689     0.001608926466    -0.002904929563
       3       -0.001962382849    -0.002493727451    -0.001109336854
       4       -0.000008752301     0.000013655341    -0.000008485765
       5        0.000142639237     0.000037155590    -0.000010156660
       6        0.001352817618     0.001738963065     0.001378308400
       7       -0.000018011419     0.000013401391     0.000023181409
       8       -0.000014626324    -0.000005131948    -0.000003480261
       9        0.000011778427     0.000011877985     0.000002943957
      10       -0.000009798465     0.000014443318    -0.000023231811
      11       -0.000042106137     0.000022235678     0.000032400297
      12        0.000016145276    -0.000018132499    -0.000004400398
      13       -0.000006002876    -0.000002718965    -0.000007962410
      14        0.000012044175     0.000010716621     0.000001333663
      15       -0.000020029840    -0.000009374244     0.000006150467
      16       -0.000001216941    -0.000008130124    -0.000001116718

  **** Optimization is complete! (in 5 steps) ****
    Final optimized geometry and variables:
    Molecular point group: c1

    Geometry (in Angstrom), charge = 0, multiplicity = 1:

    H            2.233949229299    -1.247084809793    -0.523428144984
    N            2.444239303348    -0.346094590124    -0.153724851400
    C            1.261234771104     0.501957747302    -0.086244179425
    H            3.173502660411     0.057565443751    -0.697908145705
    C           -0.016796088483    -0.320187706568    -0.034623628135
    H            1.215651010119     1.201330300482    -0.919258264484
    H            1.322084308105     1.111063784339     0.811234194527
    C           -1.272415009431     0.526924613653     0.145959745231
    H           -0.103161965957    -0.902934591448    -0.949504276847
    H            0.061218116681    -1.033332336828     0.781921806319
    C           -2.550597136590    -0.303622163402     0.194681476757
    H           -1.341690037147     1.245887435466    -0.665719096409
    H           -1.185368817291     1.106432988808     1.060434672203
    H           -2.685403818354    -0.868840406712    -0.721548451645
    H           -3.422998368517     0.326095027173     0.325671407969
    H           -2.526266860663    -1.010552128701     1.017206834534

  Mulliken Charges: (a.u.)
   Center  Symbol    Alpha    Beta     Spin     Total
       1     H     0.42942  0.42942  0.00000  0.14116
       2     N     3.69493  3.69493  0.00000 -0.38987
       3     C     3.01521  3.01521  0.00000 -0.03043
       4     H     0.42851  0.42851  0.00000  0.14298
       5     C     3.08721  3.08721  0.00000 -0.17442
       6     H     0.46752  0.46752  0.00000  0.06496
       7     H     0.46325  0.46325  0.00000  0.07349
       8     C     3.08848  3.08848  0.00000 -0.17697
       9     H     0.45935  0.45935  0.00000  0.08130
      10     H     0.45026  0.45026  0.00000  0.09947
      11     C     3.14917  3.14917  0.00000 -0.29833
      12     H     0.45531  0.45531  0.00000  0.08938
      13     H     0.45318  0.45318  0.00000  0.09363
      14     H     0.45542  0.45542  0.00000  0.08916
      15     H     0.44834  0.44834  0.00000  0.10333
      16     H     0.45442  0.45442  0.00000  0.09116

   Total alpha = 21.00000, Total beta = 21.00000, Total charge = -0.00000

*** Psi4 exiting successfully. Buy a developer a beer!
