  ==> Input File <==

--------------------------------------------------------------------------
set {
	reference rhf
	basis cc-pvtz
}

set_num_threads( 4 )
memory 2 gb

molecule MOL {
0 1

H	 -1.626355	 0.067691	 -1.364214
C	 -0.925371	 -0.484941	 -0.776206
C	 -0.919549	 -1.865041	 -0.771353
C	 0.000000	 0.179985	 0.000046
H	 -1.631070	 -2.400772	 -1.368214
C	 0.000002	 -2.552036	 -0.000012
N	 0.000000	 1.644631	 0.000076
C	 0.925371	 -0.484972	 0.776272
H	 0.000000	 -3.625035	 -0.000032
C	 0.919551	 -1.865072	 0.771359
O	 1.050559	 2.194174	 -0.000073
O	 -1.050559	 2.194174	 -0.000074
H	 1.626360	 0.067635	 1.364295
H	 1.631069	 -2.400828	 1.368201

	symmetry c1
}
set optking {
	frozen_dihedral = ("
		2 4 7 11
	")
}

ee = optimize('scf')
oeprop('DIPOLE', 'QUADRUPOLE', 'MULLIKEN_CHARGES')
f=open( 'psi4out.xyz', 'w' )
f.write( "14  " )
f.write( str(ee) + "\n" )
f.write( MOL.save_string_xyz() )
f.close()
--------------------------------------------------------------------------

    Molecular point group: c1
  Charge       = 0
  Multiplicity = 1
  Basis Set: CC-PVTZ
  Basis Set:
  @DF-RHF Final Energy:  -434.32675190709887
    Total Energy =                       -434.3267519070990375
    Molecular point group: c1
  Basis Set: CC-PVTZ
  Basis Set:
  Basis Set: CC-PVTZ
  Basis Set:
  @DF-RHF Final Energy:  -434.32010070183765
    Total Energy =                       -434.3201007018375321
  Basis Set: CC-PVTZ
  Basis Set:
  Basis Set: CC-PVTZ
  Basis Set:
  @DF-RHF Final Energy:  -434.32690852434752
    Total Energy =                       -434.3269085243475729
  Basis Set: CC-PVTZ
  Basis Set:
  Basis Set: CC-PVTZ
  Basis Set:
  @DF-RHF Final Energy:  -434.32711826715837
    Total Energy =                       -434.3271182671587667
  Basis Set: CC-PVTZ
  Basis Set:
  Charge       = 0
  Multiplicity = 1
  Basis Set: CC-PVTZ
  Basis Set:

    Orbital Energies (a.u.)
    -----------------------

    Doubly Occupied:

       1A    -20.594153     2A    -20.593848     3A    -15.847478
       4A    -11.304186     5A    -11.267897     6A    -11.267685
       7A    -11.262955     8A    -11.259287     9A    -11.259052
      10A     -1.642175    11A     -1.425091    12A     -1.205716
      13A     -1.096602    14A     -1.056105    15A     -0.959529
      16A     -0.870691    17A     -0.829704    18A     -0.787534
      19A     -0.740369    20A     -0.735856    21A     -0.714714
      22A     -0.656727    23A     -0.651507    24A     -0.626332
      25A     -0.558364    26A     -0.545748    27A     -0.532728
      28A     -0.495829    29A     -0.490039    30A     -0.456920
      31A     -0.375199    32A     -0.370087

  @DF-RHF Final Energy:  -434.32711862779342

   => Energetics <=

    Nuclear Repulsion Energy =            418.0871410262949439
    One-Electron Energy =               -1419.8683150314966497
    Two-Electron Energy =                 567.4540553774083946
    DFT Exchange-Correlation Energy =       0.0000000000000000
    Empirical Dispersion Energy =           0.0000000000000000
    PCM Polarization Energy =               0.0000000000000000
    EFP Energy =                            0.0000000000000000
    Total Energy =                       -434.3271186277933111
    Molecular point group: c1
  Basis Set: CC-PVTZ
  Basis Set:

  -Total Gradient:
     Atom            X                  Y                   Z
    ------   -----------------  -----------------  -----------------
       1        0.000001836355    -0.000009294300     0.000006718898
       2        0.002602017626    -0.000116283072    -0.003028616738
       3        0.000008929948     0.000039284348    -0.000046345341
       4       -0.003691999964     0.000136815442     0.002670498363
       5       -0.000000815836     0.000001970313    -0.000000721721
       6       -0.000034131174    -0.000000601901     0.000105062051
       7        0.001008337851     0.000188161058     0.004901558581
       8       -0.000035438380     0.000041672522     0.000004785301
       9        0.000005811162     0.000001480663    -0.000014814530
      10        0.000031278945    -0.000029617077    -0.000068728870
      11        0.000191121402    -0.000191639689    -0.004567144793
      12       -0.000084679514    -0.000071963839     0.000022278613
      13       -0.000003079064    -0.000000561970     0.000010816134
      14        0.000000810647     0.000010577503     0.000004654050

  **** Optimization is complete! (in 5 steps) ****
    Final optimized geometry and variables:
    Molecular point group: c1

    Geometry (in Angstrom), charge = 0, multiplicity = 1:

    H           -1.648171024178     0.076889060684    -1.332396781522
    C           -0.937632791280    -0.478492413448    -0.756180248883
    C           -0.916142153219    -1.858992517128    -0.771807904847
    C           -0.019228290992     0.180023811220     0.029489074666
    H           -1.616298885593    -2.393998092534    -1.382660452454
    C            0.003586946556    -2.546842149628    -0.001881428594
    N            0.000323548011     1.641306885159     0.003928577321
    C            0.925810675943    -0.480984673658     0.781282274357
    H            0.010403389810    -3.619618572307    -0.011676104529
    C            0.919186357372    -1.861225475248     0.775760090135
    O            1.060796175695     2.171350007889     0.017172678726
    O           -1.044008033114     2.198895359717    -0.062832083341
    H            1.641114590342     0.072860418172     1.353187248363
    H            1.632772327878    -2.398362882896     1.368945924025

  Mulliken Charges: (a.u.)
   Center  Symbol    Alpha    Beta     Spin     Total
       1     H     0.40482  0.40482  0.00000  0.19036
       2     C     3.08478  3.08478  0.00000 -0.16956
       3     C     3.07035  3.07035  0.00000 -0.14070
       4     C     2.94775  2.94775  0.00000  0.10450
       5     H     0.41707  0.41707  0.00000  0.16585
       6     C     3.06798  3.06798  0.00000 -0.13596
       7     N     3.27068  3.27068  0.00000  0.45863
       8     C     3.08305  3.08305  0.00000 -0.16609
       9     H     0.41737  0.41737  0.00000  0.16527
      10     C     3.06990  3.06990  0.00000 -0.13979
      11     O     4.17056  4.17056  0.00000 -0.34111
      12     O     4.17234  4.17234  0.00000 -0.34468
      13     H     0.40624  0.40624  0.00000  0.18753
      14     H     0.41712  0.41712  0.00000  0.16575

   Total alpha = 32.00000, Total beta = 32.00000, Total charge = -0.00000
