  ==> Input File <==

--------------------------------------------------------------------------
set {
	reference rhf
	basis cc-pvtz
}

set_num_threads( 4 )
memory 2 gb

molecule MOL {
0 1

H	 -0.449441	 -1.533894	 -0.437849
N	 -0.625934	 -0.663929	 -0.000707
C	 -1.978635	 -0.158664	 0.001017
C	 0.415671	 -0.014306	 0.564651
H	 -2.519057	 -0.493535	 -0.876362
H	 -1.938890	 0.917202	 -0.004137
H	 -2.514266	 -0.485137	 0.884506
C	 1.743193	 -0.730458	 0.447898
O	 0.308408	 1.038608	 1.120477
H	 2.005774	 -0.872737	 -0.593931
H	 2.503096	 -0.139586	 0.932133
H	 1.690274	 -1.705854	 0.917388

	symmetry c1
}
set optking {
	frozen_dihedral = ("
		4 2 3 5
	")
}

ee = optimize('scf')
oeprop('DIPOLE', 'QUADRUPOLE', 'MULLIKEN_CHARGES')
f=open( 'psi4out.xyz', 'w' )
f.write( "12  " )
f.write( str(ee) + "\n" )
f.write( MOL.save_string_xyz() )
f.close()
--------------------------------------------------------------------------

    Molecular point group: c1
  Charge       = 0
  Multiplicity = 1
  Basis Set: CC-PVTZ
  Basis Set:
  @DF-RHF Final Energy:  -247.10086472264496
    Total Energy =                       -247.1008647226449852
    Molecular point group: c1
  Basis Set: CC-PVTZ
  Basis Set:
  Basis Set: CC-PVTZ
  Basis Set:
  @DF-RHF Final Energy:  -247.10103077276011
    Total Energy =                       -247.1010307727599979
  Basis Set: CC-PVTZ
  Basis Set:
  Basis Set: CC-PVTZ
  Basis Set:
  @DF-RHF Final Energy:  -247.10083882682932
    Total Energy =                       -247.1008388268293174
  Basis Set: CC-PVTZ
  Basis Set:
  Basis Set: CC-PVTZ
  Basis Set:
  @DF-RHF Final Energy:  -247.10112163655148
    Total Energy =                       -247.1011216365514542
  Basis Set: CC-PVTZ
  Basis Set:
  @DF-RHF Final Energy:  -247.10113523108413
    Total Energy =                       -247.1011352310841858
  @DF-RHF Final Energy:  -247.10115438598044
    Total Energy =                       -247.1011543859804078
  @DF-RHF Final Energy:  -247.10115877202307
    Total Energy =                       -247.1011587720230409
  @DF-RHF Final Energy:  -247.10116056331898
    Total Energy =                       -247.1011605633188424
  @DF-RHF Final Energy:  -247.10116269295079
    Total Energy =                       -247.1011626929509362
  @DF-RHF Final Energy:  -247.10116680095030
    Total Energy =                       -247.1011668009501250
  @DF-RHF Final Energy:  -247.10117287892490
    Total Energy =                       -247.1011728789248423
  @DF-RHF Final Energy:  -247.10088121762419
    Total Energy =                       -247.1008812176241918
  @DF-RHF Final Energy:  -247.10117567403748
    Total Energy =                       -247.1011756740375063
  @DF-RHF Final Energy:  -247.10118218023803
    Total Energy =                       -247.1011821802378563
  @DF-RHF Final Energy:  -247.10118996981498
    Total Energy =                       -247.1011899698151524
  @DF-RHF Final Energy:  -247.10121487480342
    Total Energy =                       -247.1012148748033042
  @DF-RHF Final Energy:  -247.10128612850991
    Total Energy =                       -247.1012861285097415
  @DF-RHF Final Energy:  -247.10128078765618
    Total Energy =                       -247.1012807876563215
  Basis Set: CC-PVTZ
  Basis Set:
  @DF-RHF Final Energy:  -247.10133099268208
    Total Energy =                       -247.1013309926821648
  Basis Set: CC-PVTZ
  Basis Set:
  Basis Set: CC-PVTZ
  Basis Set:
  @DF-RHF Final Energy:  -247.10133721019389
    Total Energy =                       -247.1013372101939467
  Basis Set: CC-PVTZ
  Basis Set:
  Basis Set: CC-PVTZ
  Basis Set:
  @DF-RHF Final Energy:  -247.10133822074275
    Total Energy =                       -247.1013382207427185
  Basis Set: CC-PVTZ
  Basis Set:
  Charge       = 0
  Multiplicity = 1
  Basis Set: CC-PVTZ
  Basis Set:

    Orbital Energies (a.u.)
    -----------------------

    Doubly Occupied:

       1A    -20.504177     2A    -15.577094     3A    -11.336193
       4A    -11.253498     5A    -11.228418     6A     -1.387427
       7A     -1.231921     8A     -1.016069     9A     -0.934255
      10A     -0.789825    11A     -0.690927    12A     -0.652256
      13A     -0.635488    14A     -0.586540    15A     -0.583103
      16A     -0.554788    17A     -0.547436    18A     -0.506991
      19A     -0.416806    20A     -0.390559

  @DF-RHF Final Energy:  -247.10133839350203

   => Energetics <=

    Nuclear Repulsion Energy =            181.7673904664610518
    One-Electron Energy =                -696.0899087541006338
    Two-Electron Energy =                 267.2211798941376060
    DFT Exchange-Correlation Energy =       0.0000000000000000
    Empirical Dispersion Energy =           0.0000000000000000
    PCM Polarization Energy =               0.0000000000000000
    EFP Energy =                            0.0000000000000000
    Total Energy =                       -247.1013383935019760
    Molecular point group: c1
  Basis Set: CC-PVTZ
  Basis Set:

  -Total Gradient:
     Atom            X                  Y                   Z
    ------   -----------------  -----------------  -----------------
       1        0.000009823556    -0.000010608375    -0.000000801601
       2       -0.000013989275    -0.000170619978     0.000268681937
       3       -0.000086233995    -0.000212609633     0.000013170577
       4        0.000015631367     0.000112449369    -0.000242497614
       5        0.000082830513     0.000250476970    -0.000076143355
       6       -0.000008366825    -0.000003018770     0.000000317623
       7       -0.000002787641    -0.000000370217    -0.000000862770
       8       -0.000020031650    -0.000017656739     0.000016815029
       9        0.000009062929     0.000032946048     0.000031514989
      10        0.000009621432    -0.000004053269    -0.000004700178
      11        0.000002705727     0.000014584107     0.000004337513
      12        0.000001733863     0.000008480485    -0.000009832149

  **** Optimization is complete! (in 22 steps) ****
    Final optimized geometry and variables:
    Molecular point group: c1

    Geometry (in Angstrom), charge = 0, multiplicity = 1:

    H           -0.370785480441    -1.261146223822    -1.120428575546
    N           -0.555322365555    -0.454961075211    -0.578634655632
    C           -1.918054650071     0.014382728705    -0.482628447804
    C            0.446352733563     0.063751265817     0.161584077889
    H           -2.410033225587    -0.112471121851    -1.437534699354
    H           -1.912461561814     1.061225505255    -0.227117931084
    H           -2.479990145202    -0.520050874689     0.275298611356
    C            1.795070896615    -0.600663411339     0.000177282251
    O            0.292245190926     0.985430364272     0.908336882773
    H            1.854669942585    -1.246040726123    -0.866181880422
    H            2.550388676568     0.168219977662    -0.068661247317
    H            1.995612947887    -1.186174740944     0.888922254724

  Mulliken Charges: (a.u.)
   Center  Symbol    Alpha    Beta     Spin     Total
       1     H     0.41043  0.41043  0.00000  0.17914
       2     N     3.61494  3.61494  0.00000 -0.22988
       3     C     3.08065  3.08065  0.00000 -0.16130
       4     C     2.84215  2.84215  0.00000  0.31569
       5     H     0.45525  0.45525  0.00000  0.08949
       6     H     0.43501  0.43501  0.00000  0.12998
       7     H     0.45719  0.45719  0.00000  0.08561
       8     C     3.14395  3.14395  0.00000 -0.28791
       9     O     4.22057  4.22057  0.00000 -0.44115
      10     H     0.45863  0.45863  0.00000  0.08273
      11     H     0.43792  0.43792  0.00000  0.12416
      12     H     0.44329  0.44329  0.00000  0.11343

   Total alpha = 20.00000, Total beta = 20.00000, Total charge = -0.00000
