  ==> Input File <==

--------------------------------------------------------------------------
set {
	reference rhf
	basis cc-pvtz
}

set_num_threads( 4 )
memory 2 gb

molecule MOL {
0 1

H	 -4.037000	 -0.436000	 0.000000
C	 -2.973000	 -0.280000	 0.000000
C	 -2.464000	 1.010000	 -0.000000
C	 -2.116000	 -1.369000	 0.000000
H	 -3.130000	 1.854000	 -0.000000
C	 -1.096000	 1.210000	 -0.000000
H	 -2.512000	 -2.368000	 0.000000
C	 -0.746000	 -1.171000	 0.000000
H	 -0.684000	 2.201000	 -0.000000
C	 -0.232000	 0.121000	 -0.000000
H	 -0.078000	 -2.010000	 0.000000
C	 1.234000	 0.391000	 -0.000000
O	 1.965000	 -0.714000	 -0.000000
O	 1.710000	 1.483000	 0.000000
C	 3.372000	 -0.549000	 0.000000
H	 3.690000	 -0.011000	 -0.881000
H	 3.784000	 -1.546000	 -0.000000
H	 3.690000	 -0.012000	 0.881000

	symmetry c1
}
ee = optimize('scf')
oeprop('DIPOLE', 'QUADRUPOLE', 'MULLIKEN_CHARGES')
f=open( 'psi4out.xyz', 'w' )
f.write( "18  " )
f.write( str(ee) + "\n" )
f.write( MOL.save_string_xyz() )
f.close()
--------------------------------------------------------------------------

    Molecular point group: c1
  Charge       = 0
  Multiplicity = 1
  Basis Set: CC-PVTZ
  Basis Set:
  @DF-RHF Final Energy:  -457.51004086717620
    Total Energy =                       -457.5100408671764853
    Molecular point group: c1
  Basis Set: CC-PVTZ
  Basis Set:
  Basis Set: CC-PVTZ
  Basis Set:
  @DF-RHF Final Energy:  -457.51023626856102
    Total Energy =                       -457.5102362685605613
  Basis Set: CC-PVTZ
  Basis Set:
  Charge       = 0
  Multiplicity = 1
  Basis Set: CC-PVTZ
  Basis Set:

    Orbital Energies (a.u.)
    -----------------------

    Doubly Occupied:

       1A    -20.600979     2A    -20.534497     3A    -11.371746
       4A    -11.281258     5A    -11.244994     6A    -11.243525
       7A    -11.242723     8A    -11.240097     9A    -11.236083
      10A    -11.235331    11A     -1.476970    12A     -1.368435
      13A     -1.170854    14A     -1.051908    15A     -1.029118
      16A     -0.980491    17A     -0.863304    18A     -0.838533
      19A     -0.781253    20A     -0.745068    21A     -0.687882
      22A     -0.681769    23A     -0.676390    24A     -0.634113
      25A     -0.630114    26A     -0.601358    27A     -0.587560
      28A     -0.565014    29A     -0.531988    30A     -0.520385
      31A     -0.509513    32A     -0.502279    33A     -0.464220
      34A     -0.449513    35A     -0.350246    36A     -0.346309

  @DF-RHF Final Energy:  -457.51024308735748

   => Energetics <=

    Nuclear Repulsion Energy =            494.0499322057492009
    One-Electron Energy =               -1602.5687042551962804
    Two-Electron Energy =                 651.0085289620898266
    DFT Exchange-Correlation Energy =       0.0000000000000000
    Empirical Dispersion Energy =           0.0000000000000000
    PCM Polarization Energy =               0.0000000000000000
    EFP Energy =                            0.0000000000000000
    Total Energy =                       -457.5102430873572530
    Molecular point group: c1
  Basis Set: CC-PVTZ
  Basis Set:

  -Total Gradient:
     Atom            X                  Y                   Z
    ------   -----------------  -----------------  -----------------
       1        0.000028599838    -0.000006439210    -0.000000003622
       2        0.000011689695     0.000060478482     0.000000037692
       3       -0.000040782038    -0.000027959930    -0.000000038349
       4        0.000077877577    -0.000024450915     0.000000052884
       5        0.000022415810    -0.000034060246    -0.000000012569
       6       -0.000001952623     0.000012091218     0.000000010273
       7       -0.000007389847     0.000026809067     0.000000031711
       8       -0.000095144002    -0.000088496017    -0.000000238522
       9        0.000000498563    -0.000046283868     0.000000007026
      10        0.000189301096     0.000142224104    -0.000001275878
      11       -0.000006020784     0.000045121773    -0.000000045878
      12       -0.000186458178     0.000043852775     0.000007048951
      13       -0.000100695785    -0.000199042079    -0.000003756504
      14       -0.000034302823     0.000055138176    -0.000003525012
      15        0.000283727096     0.000094651077    -0.000000555542
      16       -0.000039817674    -0.000028112141     0.000032604611
      17       -0.000063902842    -0.000001798472    -0.000002172003
      18       -0.000037643076    -0.000023723795    -0.000028169271

  **** Optimization is complete! (in 3 steps) ****
    Final optimized geometry and variables:
    Molecular point group: c1

    Geometry (in Angstrom), charge = 0, multiplicity = 1:

    H           -4.024093824665    -0.454726045171     0.000003866390
    C           -2.962214171632    -0.297919284984     0.000004315747
    C           -2.454735929224     0.988978841377     0.000025202093
    C           -2.105836070224    -1.382631891404    -0.000016418676
    H           -3.120051165310     1.830438015537     0.000040748346
    C           -1.090105913723     1.189675975699     0.000026174008
    H           -2.500389563176    -2.380228060178    -0.000032797381
    C           -0.739174307734    -1.183301443613    -0.000015892585
    H           -0.680213554729     2.179144504218     0.000041900446
    C           -0.227340898618     0.104540849596     0.000005703054
    H           -0.073208567255    -2.021167804741    -0.000032288331
    C            1.238974326564     0.374429582084     0.000004105450
    O            1.968286754869    -0.725611751030    -0.000027431427
    O            1.709187059234     1.462583224059    -0.000009956018
    C            3.373556727971    -0.568202265999     0.000010928854
    H            3.695416510875    -0.031587618039    -0.879663399454
    H            3.782700708274    -1.565293694011    -0.000151634277
    H            3.695405791736    -0.031850363379     0.879861665327

  Mulliken Charges: (a.u.)
   Center  Symbol    Alpha    Beta     Spin     Total
       1     H     0.42028  0.42028  0.00000  0.15944
       2     C     3.06972  3.06972  0.00000 -0.13943
       3     C     3.07554  3.07554  0.00000 -0.15108
       4     C     3.07495  3.07495  0.00000 -0.14991
       5     H     0.42036  0.42036  0.00000  0.15927
       6     C     3.07587  3.07587  0.00000 -0.15173
       7     H     0.42187  0.42187  0.00000  0.15625
       8     C     3.08209  3.08209  0.00000 -0.16417
       9     H     0.40667  0.40667  0.00000  0.18666
      10     C     3.01230  3.01230  0.00000 -0.02461
      11     H     0.41101  0.41101  0.00000  0.17797
      12     C     2.78241  2.78241  0.00000  0.43518
      13     O     4.14849  4.14849  0.00000 -0.29698
      14     O     4.21127  4.21127  0.00000 -0.42254
      15     C     3.03660  3.03660  0.00000 -0.07320
      16     H     0.45264  0.45264  0.00000  0.09473
      17     H     0.44528  0.44528  0.00000  0.10943
      18     H     0.45264  0.45264  0.00000  0.09472

   Total alpha = 36.00000, Total beta = 36.00000, Total charge = -0.00000
