  ==> Input File <==

--------------------------------------------------------------------------
set {
	reference rhf
	basis 6-31G*
}

set_num_threads( 4 )
memory 2 gb

molecule MOL {
0 1

H	 -2.798360	 -0.862255	 -0.071053
N	 -1.863561	 -0.715187	 0.256814
C	 -1.344686	 0.554728	 -0.219830
H	 -1.300452	 -1.461917	 -0.101532
C	 0.081427	 0.741154	 0.254071
H	 -1.362155	 0.656231	 -1.305829
H	 -1.952773	 1.354456	 0.191809
O	 0.874168	 -0.245412	 -0.342030
H	 0.444037	 1.730782	 -0.023037
H	 0.121165	 0.653424	 1.337565
C	 2.165388	 -0.331937	 0.170643
H	 2.678232	 -1.120312	 -0.363354
H	 2.711852	 0.599279	 0.032092
H	 2.156558	 -0.572264	 1.231763

	symmetry c1
}
set optking {
	frozen_dihedral = ("
		11 8 5 3
	")
}

ee = optimize('scf')
oeprop('DIPOLE', 'QUADRUPOLE', 'MULLIKEN_CHARGES')
f=open( 'psi4out.xyz', 'w' )
f.write( "14  " )
f.write( str(ee) + "\n" )
f.write( MOL.save_string_xyz() )
f.close()
--------------------------------------------------------------------------

    Molecular point group: c1
  Charge       = 0
  Multiplicity = 1
  Basis Set: 6-31G*
  Basis Set:
  @DF-RHF Final Energy:  -248.12517427097720
    Total Energy =                       -248.1251742709772543
    Molecular point group: c1
  Basis Set: 6-31G*
  Basis Set:
  Basis Set: 6-31G*
  Basis Set:
  @DF-RHF Final Energy:  -248.12517818749353
    Total Energy =                       -248.1251781874937024
  Basis Set: 6-31G*
  Basis Set:
  Charge       = 0
  Multiplicity = 1
  Basis Set: 6-31G*
  Basis Set:

    Orbital Energies (a.u.)
    -----------------------

    Doubly Occupied:

       1A    -20.557318     2A    -15.528653     3A    -11.266066
       4A    -11.265525     5A    -11.240796     6A     -1.381157
       7A     -1.173814     8A     -0.999023     9A     -0.907005
      10A     -0.815228    11A     -0.684194    12A     -0.673318
      13A     -0.645405    14A     -0.610890    15A     -0.604505
      16A     -0.540569    17A     -0.530010    18A     -0.497038
      19A     -0.472601    20A     -0.417543    21A     -0.380262

  @DF-RHF Final Energy:  -248.12517869873099

   => Energetics <=

    Nuclear Repulsion Energy =            194.7912045358178545
    One-Electron Energy =                -723.4509261547469805
    Two-Electron Energy =                 280.5345429201982483
    DFT Exchange-Correlation Energy =       0.0000000000000000
    Empirical Dispersion Energy =           0.0000000000000000
    PCM Polarization Energy =               0.0000000000000000
    EFP Energy =                            0.0000000000000000
    Total Energy =                       -248.1251786987308492
    Molecular point group: c1
  Basis Set: 6-31G*
  Basis Set:

  -Total Gradient:
     Atom            X                  Y                   Z
    ------   -----------------  -----------------  -----------------
       1        0.000009800125     0.000020361609    -0.000001477788
       2        0.000013746960     0.000026522589     0.000009212830
       3       -0.000133452106    -0.000459231650     0.000471426765
       4        0.000003937965     0.000013116200     0.000005203843
       5        0.000034675451     0.000305993439    -0.000412007364
       6       -0.000022410999     0.000002100080    -0.000025713000
       7        0.000026624612     0.000001674387    -0.000003357489
       8        0.000290059709     0.000564307398    -0.000527582673
       9        0.000010846392    -0.000012390192     0.000009774396
      10       -0.000009106117     0.000007085557     0.000000851139
      11       -0.000214321937    -0.000463693470     0.000488658757
      12       -0.000008103203     0.000003805688    -0.000008365022
      13        0.000008055785    -0.000008469598    -0.000003133732
      14       -0.000010352640    -0.000001182035    -0.000003490661

  **** Optimization is complete! (in 3 steps) ****
    Final optimized geometry and variables:
    Molecular point group: c1

    Geometry (in Angstrom), charge = 0, multiplicity = 1:

    H           -2.791578908480    -0.843019535989    -0.086178326378
    N           -1.855262978893    -0.696752440441     0.237583649404
    C           -1.337381155468     0.572676877282    -0.241334828108
    H           -1.294408732916    -1.443541584112    -0.124053332243
    C            0.088533618963     0.760202357835     0.233168643082
    H           -1.355884707465     0.672335842989    -1.327547094517
    H           -1.945499325928     1.372995780075     0.168959166709
    O            0.882266343653    -0.226617131831    -0.361806726031
    H            0.453836500039     1.749748594418    -0.039987567565
    H            0.123249473608     0.669918738752     1.316466654842
    C            2.173866378299    -0.313493187425     0.150482967828
    H            2.686258947423    -1.101289137586    -0.384788009592
    H            2.720909265909     0.617466055510     0.012459789880
    H            2.164543159303    -0.554768994515     1.211192023175

  Mulliken Charges: (a.u.)
   Center  Symbol    Alpha    Beta     Spin     Total
       1     H     0.33275  0.33275  0.00000  0.33450
       2     N     3.92528  3.92528  0.00000 -0.85056
       3     C     3.06916  3.06916  0.00000 -0.13833
       4     H     0.32401  0.32401  0.00000  0.35199
       5     C     2.99016  2.99016  0.00000  0.01967
       6     H     0.42639  0.42639  0.00000  0.14723
       7     H     0.42045  0.42045  0.00000  0.15910
       8     O     4.30980  4.30980  0.00000 -0.61961
       9     H     0.43031  0.43031  0.00000  0.13938
      10     H     0.42286  0.42286  0.00000  0.15428
      11     C     3.07924  3.07924  0.00000 -0.15847
      12     H     0.41267  0.41267  0.00000  0.17466
      13     H     0.42996  0.42996  0.00000  0.14008
      14     H     0.42696  0.42696  0.00000  0.14608

   Total alpha = 21.00000, Total beta = 21.00000, Total charge = -0.00000
