                              Psi4 1.0.54 Driver

  ==> Input File <==

--------------------------------------------------------------------------
set {
	reference rhf
	basis cc-pvtz
}

set_num_threads( 4 )
memory 2 gb

molecule MOL {
0 1

O	 2.561778	 -0.017690	 -0.804332
C	 1.704209	 0.119472	 -0.000093
C	 0.380337	 -0.600947	 -0.000234
O	 1.801796	 0.945053	 1.029135
C	 -0.824290	 0.329213	 -0.000115
H	 0.371455	 -1.255476	 -0.865660
H	 0.371410	 -1.255787	 0.864952
C	 -2.146151	 -0.432825	 -0.000068
H	 -0.773936	 0.979158	 -0.866319
H	 -0.773838	 0.979034	 0.866186
C	 -3.366283	 0.483552	 0.000557
H	 -2.189286	 -1.084450	 -0.869996
H	 -2.188867	 -1.085083	 0.869399
C	 -4.687436	 -0.278003	 0.000108
H	 -3.325150	 1.134819	 -0.867957
H	 -3.325087	 1.133730	 0.869885
H	 -4.773783	 -0.912098	 -0.876078
H	 -5.531922	 0.401392	 0.000363
H	 -4.773901	 -0.912898	 0.875703
C	 2.997183	 1.688626	 1.153533
H	 3.846688	 1.030143	 1.258192
H	 2.881978	 2.291203	 2.039804
H	 3.145078	 2.320028	 0.290010

	symmetry c1
}
set optking {
	frozen_dihedral = ("
		1 2 3 6
	")
}

ee,wfn = optimize('scf', return_wfn=True)
oeprop( wfn, 'DIPOLE', 'QUADRUPOLE', 'MULLIKEN_CHARGES')
f=open( 'psi4out.xyz', 'w' )
f.write( "23  " )
f.write( str(ee) + "\n" )
f.write( MOL.save_string_xyz() )
f.close()
--------------------------------------------------------------------------

    Molecular point group: c1
  Charge       = 0
  Multiplicity = 1
  Basis Set: CC-PVTZ
  Basis Set:
  @DF-RHF Final Energy:  -423.12943159977129
    Total Energy =                       -423.1294315997715785
    Molecular point group: c1
  Basis Set: CC-PVTZ
  Basis Set:
  Basis Set: CC-PVTZ
  Basis Set:
  @DF-RHF Final Energy:  -423.12926442844690
    Total Energy =                       -423.1292644284468452
  Basis Set: CC-PVTZ
  Basis Set:
  Basis Set: CC-PVTZ
  Basis Set:
  @DF-RHF Final Energy:  -423.12937488007145
    Total Energy =                       -423.1293748800711683
  Basis Set: CC-PVTZ
  Basis Set:
  Basis Set: CC-PVTZ
  Basis Set:
  @DF-RHF Final Energy:  -423.12977130830774
    Total Energy =                       -423.1297713083075678
  Basis Set: CC-PVTZ
  Basis Set:
  Basis Set: CC-PVTZ
  Basis Set:
  @DF-RHF Final Energy:  -423.12977549202066
    Total Energy =                       -423.1297754920203715
  Basis Set: CC-PVTZ
  Basis Set:
  Charge       = 0
  Multiplicity = 1
  Basis Set: CC-PVTZ
  Basis Set:

    Orbital Energies (a.u.)
    -----------------------

    Doubly Occupied:

       1A    -20.596878     2A    -20.532551     3A    -11.363424
       4A    -11.278583     5A    -11.232614     6A    -11.225662
       7A    -11.219380     8A    -11.218006     9A    -11.210197
      10A     -1.471865    11A     -1.364431    12A     -1.098307
      13A     -1.046708    14A     -0.984822    15A     -0.935778
      16A     -0.848248    17A     -0.798825    18A     -0.775547
      19A     -0.695678    20A     -0.683906    21A     -0.676062
      22A     -0.655320    23A     -0.609978    24A     -0.594234
      25A     -0.579922    26A     -0.570914    27A     -0.547359
      28A     -0.532002    29A     -0.525270    30A     -0.506850
      31A     -0.491396    32A     -0.479023    33A     -0.471103
      34A     -0.469278    35A     -0.458342    36A     -0.429652

  @DF-RHF Final Energy:  -423.12977605046126

   => Energetics <=

    Nuclear Repulsion Energy =            455.7191036628018992
    One-Electron Energy =               -1479.3415349369604428
    Two-Electron Energy =                 600.4926552236975112
    DFT Exchange-Correlation Energy =       0.0000000000000000
    Empirical Dispersion Energy =           0.0000000000000000
    PCM Polarization Energy =               0.0000000000000000
    EFP Energy =                            0.0000000000000000
    Total Energy =                       -423.1297760504610324
    Molecular point group: c1
  Basis Set: CC-PVTZ
  Basis Set:

  -Total Gradient:
     Atom            X                  Y                   Z
    ------   -----------------  -----------------  -----------------
       1        0.000197018269    -0.000425710909     0.000413906824
       2       -0.000328363087     0.000658384430    -0.000689185015
       3        0.000417916575    -0.000681485092     0.000601974506
       4       -0.000010253803     0.000041739053     0.000031744168
       5        0.000016747738     0.000003454613     0.000000925445
       6       -0.000247251801     0.000426679591    -0.000332974951
       7       -0.000011809709     0.000013342988    -0.000031977796
       8       -0.000014959230    -0.000012829233     0.000009455907
       9       -0.000007259946    -0.000009340044     0.000022945604
      10        0.000013842713     0.000004296496    -0.000001795796
      11        0.000001179667     0.000002871951    -0.000012917726
      12        0.000000602560    -0.000000421933     0.000007324176
      13        0.000000270653     0.000002955459    -0.000000750110
      14       -0.000004585223    -0.000000950491    -0.000004058033
      15       -0.000002473519     0.000005884336     0.000001563412
      16        0.000002987625    -0.000008608488    -0.000007266544
      17       -0.000001278720     0.000001850349     0.000002814607
      18        0.000003222342    -0.000002135846     0.000001190418
      19        0.000000704568    -0.000000146687    -0.000001823214
      20       -0.000018210058    -0.000021937990    -0.000001462358
      21       -0.000010213911     0.000015840176    -0.000000033744
      22       -0.000002563364    -0.000015759518    -0.000018680056
      23        0.000004729664     0.000002026788     0.000009080281

  **** Optimization is complete! (in 6 steps) ****
    Final optimized geometry and variables:
    Molecular point group: c1

    Geometry (in Angstrom), charge = 0, multiplicity = 1:

    O            2.686336149731    -0.293072898303    -0.946142569138
    C            1.843003136737    -0.127081142181    -0.131652528782
    C            0.528505557493    -0.862770826918    -0.095532326850
    O            1.964950195190     0.728645958320     0.869996342646
    C           -0.690860415268     0.061278050578    -0.143424337450
    H            0.525687007283    -1.541848183771    -0.935784116118
    H            0.506513713206    -1.450627339622     0.816277764233
    C           -2.003955035371    -0.715592231112    -0.150224419843
    H           -0.634140551330     0.680691955534    -1.034178742218
    H           -0.667298893271     0.733371867958     0.705766604950
    C           -3.234071152727     0.185604632652    -0.206386133858
    H           -2.017844709892    -1.394446145728    -0.999229018904
    H           -2.056549484716    -1.338970999234     0.739305416898
    C           -4.545526458997    -0.592553073850    -0.211390960000
    H           -3.181607860272     0.808621507871    -1.094912935058
    H           -3.220544028352     0.863793190394     0.642274167619
    H           -4.604147515151    -1.255313821760    -1.068289449358
    H           -5.397819108813     0.075727146225    -0.251785762227
    H           -4.643760147203    -1.199983888787     0.682163393475
    C            3.164084692668     1.472610039988     0.945390305071
    H            4.013990480354     0.815277883314     1.053346255493
    H            3.068770415248     2.103875772675     1.813920220460
    H            3.295140809089     2.075125084508     0.058898557794

  Mulliken Charges: (a.u.)
   Center  Symbol    Alpha    Beta     Spin     Total
       1     O     4.19990  4.19990  0.00000 -0.39981
       2     C     2.81112  2.81112  0.00000  0.37776
       3     C     3.07727  3.07727  0.00000 -0.15454
       4     O     4.14902  4.14902  0.00000 -0.29804
       5     C     3.09999  3.09999  0.00000 -0.19998
       6     H     0.43698  0.43698  0.00000  0.12604
       7     H     0.44697  0.44697  0.00000  0.10607
       8     C     3.09104  3.09104  0.00000 -0.18209
       9     H     0.44913  0.44913  0.00000  0.10173
      10     H     0.44273  0.44273  0.00000  0.11453
      11     C     3.08408  3.08408  0.00000 -0.16815
      12     H     0.45276  0.45276  0.00000  0.09449
      13     H     0.45423  0.45423  0.00000  0.09155
      14     C     3.15033  3.15033  0.00000 -0.30067
      15     H     0.45346  0.45346  0.00000  0.09307
      16     H     0.45382  0.45382  0.00000  0.09237
      17     H     0.45453  0.45453  0.00000  0.09093
      18     H     0.44767  0.44767  0.00000  0.10466
      19     H     0.45493  0.45493  0.00000  0.09015
      20     C     3.03728  3.03728  0.00000 -0.07456
      21     H     0.45279  0.45279  0.00000  0.09442
      22     H     0.44576  0.44576  0.00000  0.10848
      23     H     0.45420  0.45420  0.00000  0.09159

   Total alpha = 36.00000, Total beta = 36.00000, Total charge =  0.00000

*** Psi4 exiting successfully. Buy a developer a beer!
