  ==> Input File <==

--------------------------------------------------------------------------
set {
	reference rhf
	basis 6-31G*
}

set_num_threads( 4 )
memory 2 gb

molecule MOL {
0 1

H	 4.503947	 0.103927	 -1.249160
C	 3.671397	 -0.489896	 -0.885864
C	 2.376441	 0.321306	 -0.884109
H	 3.586197	 -1.363870	 -1.525503
H	 3.923432	 -0.834986	 0.112954
C	 1.179525	 -0.477515	 -0.378466
H	 2.156053	 0.677763	 -1.885487
H	 2.506391	 1.205350	 -0.262039
N	 -0.034174	 0.314143	 -0.419342
H	 1.033602	 -1.346155	 -1.014968
H	 1.392921	 -0.861634	 0.624675
C	 -1.217365	 -0.386708	 0.039277
H	 0.092374	 1.145839	 0.125917
C	 -2.452633	 0.504241	 -0.042481
H	 -1.359282	 -1.255468	 -0.597962
H	 -1.106954	 -0.766988	 1.060345
C	 -3.758029	 -0.289423	 -0.010781
H	 -2.394220	 1.093569	 -0.952170
H	 -2.440793	 1.210787	 0.785871
H	 -3.816659	 -0.981993	 -0.845726
H	 -4.617837	 0.370165	 -0.069296
H	 -3.847478	 -0.867502	 0.904682

	symmetry c1
}
set optking {
	frozen_dihedral = ("
		15 12 14 18
	")
}

ee = optimize('scf')
oeprop('DIPOLE', 'QUADRUPOLE', 'MULLIKEN_CHARGES')
f=open( 'psi4out.xyz', 'w' )
f.write( "22  " )
f.write( str(ee) + "\n" )
f.write( MOL.save_string_xyz() )
f.close()
--------------------------------------------------------------------------

    Molecular point group: c1
  Charge       = 0
  Multiplicity = 1
  Basis Set: 6-31G*
  Basis Set:
  @DF-RHF Final Energy:  -290.38206718270385
    Total Energy =                       -290.3820671827033948
    Molecular point group: c1
  Basis Set: 6-31G*
  Basis Set:
  Basis Set: 6-31G*
  Basis Set:
  @DF-RHF Final Energy:  -290.38219615000492
    Total Energy =                       -290.3821961500046882
  Basis Set: 6-31G*
  Basis Set:
  Basis Set: 6-31G*
  Basis Set:
  @DF-RHF Final Energy:  -290.38222996449446
    Total Energy =                       -290.3822299644949112
  Basis Set: 6-31G*
  Basis Set:
  Basis Set: 6-31G*
  Basis Set:
  @DF-RHF Final Energy:  -290.38223098963880
    Total Energy =                       -290.3822309896389129
  Basis Set: 6-31G*
  Basis Set:
  Charge       = 0
  Multiplicity = 1
  Basis Set: 6-31G*
  Basis Set:

    Orbital Energies (a.u.)
    -----------------------

    Doubly Occupied:

       1A    -15.534060     2A    -11.237981     3A    -11.237781
       4A    -11.213528     5A    -11.213356     6A    -11.209973
       7A    -11.209713     8A     -1.205803     9A     -1.059019
      10A     -1.025895    11A     -0.928168    12A     -0.868413
      13A     -0.811698    14A     -0.793979    15A     -0.667247
      16A     -0.626210    17A     -0.615751    18A     -0.612862
      19A     -0.573466    20A     -0.563263    21A     -0.530742
      22A     -0.527359    23A     -0.516446    24A     -0.485976
      25A     -0.481494    26A     -0.474183    27A     -0.464850
      28A     -0.450570    29A     -0.358963

  @DF-RHF Final Energy:  -290.38223126487418

   => Energetics <=

    Nuclear Repulsion Energy =            313.1520761280660849
    One-Electron Energy =               -1012.0711175828150772
    Two-Electron Energy =                 408.5368101898750979
    DFT Exchange-Correlation Energy =       0.0000000000000000
    Empirical Dispersion Energy =           0.0000000000000000
    PCM Polarization Energy =               0.0000000000000000
    EFP Energy =                            0.0000000000000000
    Total Energy =                       -290.3822312648739512
    Molecular point group: c1
  Basis Set: 6-31G*
  Basis Set:

  -Total Gradient:
     Atom            X                  Y                   Z
    ------   -----------------  -----------------  -----------------
       1        0.000000836921     0.000000471328     0.000002437382
       2        0.000003049700     0.000002663359     0.000003667563
       3        0.000008115553    -0.000004981404    -0.000004650199
       4        0.000000259611     0.000001655032    -0.000002228194
       5       -0.000000381598    -0.000002478155    -0.000000055510
       6        0.000031861569     0.000000550436     0.000004753806
       7       -0.000002890808    -0.000004743067    -0.000001093517
       8       -0.000000344177    -0.000000346328    -0.000001091632
       9       -0.000020357478    -0.000005468255     0.000009021386
      10       -0.000007065762     0.000008783157    -0.000001907691
      11       -0.000002108902     0.000001215496    -0.000003966089
      12        0.001954207425     0.002609045305    -0.002815444035
      13        0.000013235920     0.000009699978     0.000002401235
      14       -0.002327564071    -0.003322380603    -0.001393466565
      15       -0.001311446786    -0.001682148896     0.002545088821
      16        0.000012079479     0.000011894049     0.000016873924
      17       -0.000000095228     0.000014762133    -0.000005771761
      18        0.001649890085     0.002353865025     0.001627768682
      19       -0.000004258833     0.000004702478     0.000014734628
      20        0.000004502432     0.000007561154     0.000006784465
      21       -0.000006135476    -0.000005450677    -0.000003524584
      22        0.000004610425     0.000001128456    -0.000000332115

  **** Optimization is complete! (in 5 steps) ****
    Final optimized geometry and variables:
    Molecular point group: c1

    Geometry (in Angstrom), charge = 0, multiplicity = 1:

    H            4.548497521653     0.189702085941    -0.845660895433
    C            3.713417317620    -0.404240290234    -0.488369833481
    C            2.414659372852     0.400360386640    -0.515701585729
    H            3.642330402688    -1.285818364549    -1.119196091583
    H            3.951799620868    -0.736688623307     0.518067849700
    C            1.214113213829    -0.398930228832    -0.019682595907
    H            2.208057352371     0.744509437950    -1.524255322389
    H            2.530493638085     1.291963080408     0.098412005246
    N           -0.002614540400     0.386288971344    -0.087159595869
    H            1.081226895341    -1.274678927074    -0.649235154398
    H            1.413876743092    -0.771719983862     0.990445136718
    C           -1.188630859249    -0.318596128018     0.354955469732
    H            0.109464879505     1.221446347224     0.456477444912
    C           -2.424168291460     0.578563024614     0.310910551003
    H           -1.341104652076    -1.182305808432    -0.287070628427
    H           -1.077486432456    -0.723033091090     1.367127166848
    C           -3.734219439837    -0.201421117450     0.393020403380
    H           -2.384460004436     1.178337060547    -0.593237502740
    H           -2.376575337327     1.285802920447     1.137998023266
    H           -3.847207822492    -0.867361453534    -0.457369342875
    H           -4.588356822010     0.467907192490     0.405394337264
    H           -3.776734302801    -0.806199469405     1.294813352951

  Mulliken Charges: (a.u.)
   Center  Symbol    Alpha    Beta     Spin     Total
       1     H     0.41773  0.41773  0.00000  0.16454
       2     C     3.24328  3.24328  0.00000 -0.48656
       3     C     3.15542  3.15542  0.00000 -0.31085
       4     H     0.42068  0.42068  0.00000  0.15863
       5     H     0.42168  0.42168  0.00000  0.15664
       6     C     3.04700  3.04700  0.00000 -0.09400
       7     H     0.41298  0.41298  0.00000  0.17404
       8     H     0.42668  0.42668  0.00000  0.14663
       9     N     3.85772  3.85772  0.00000 -0.71545
      10     H     0.42159  0.42159  0.00000  0.15681
      11     H     0.43616  0.43616  0.00000  0.12768
      12     C     3.04625  3.04625  0.00000 -0.09249
      13     H     0.33518  0.33518  0.00000  0.32963
      14     C     3.15934  3.15934  0.00000 -0.31868
      15     H     0.42192  0.42192  0.00000  0.15615
      16     H     0.43638  0.43638  0.00000  0.12723
      17     C     3.24267  3.24267  0.00000 -0.48533
      18     H     0.41191  0.41191  0.00000  0.17618
      19     H     0.42606  0.42606  0.00000  0.14788
      20     H     0.41964  0.41964  0.00000  0.16072
      21     H     0.41796  0.41796  0.00000  0.16408
      22     H     0.42175  0.42175  0.00000  0.15651

   Total alpha = 29.00000, Total beta = 29.00000, Total charge =  0.00000
