  ==> Input File <==

--------------------------------------------------------------------------
set {
	reference rhf
	basis 6-31G*
}

set_num_threads( 4 )
memory 2 gb

molecule MOL {
0 1

H	 1.752461	 -1.570776	 -0.581538
O	 2.016064	 -0.864478	 0.000222
C	 1.050492	 0.053836	 0.000068
C	 -0.318135	 -0.576402	 0.000164
O	 1.285279	 1.218255	 -0.000078
C	 -1.454360	 0.441875	 -0.000474
H	 -0.374042	 -1.230163	 -0.866135
H	 -0.374274	 -1.229227	 0.867154
C	 -2.826123	 -0.230780	 0.000056
H	 -1.357605	 1.085198	 -0.868380
H	 -1.357504	 1.086451	 0.866496
H	 -2.959731	 -0.858053	 -0.876869
H	 -3.619374	 0.509403	 -0.000080
H	 -2.959371	 -0.857318	 0.877556

	symmetry c1
}
set optking {
	frozen_dihedral = ("
		1 2 3 5
	")
}

ee = optimize('scf')
oeprop('DIPOLE', 'QUADRUPOLE', 'MULLIKEN_CHARGES')
f=open( 'psi4out.xyz', 'w' )
f.write( "14  " )
f.write( str(ee) + "\n" )
f.write( MOL.save_string_xyz() )
f.close()
--------------------------------------------------------------------------

    Molecular point group: c1
  Charge       = 0
  Multiplicity = 1
  Basis Set: 6-31G*
  Basis Set:
  @DF-RHF Final Energy:  -305.86337730569392
    Total Energy =                       -305.8633773056938026
    Molecular point group: c1
  Basis Set: 6-31G*
  Basis Set:
  Basis Set: 6-31G*
  Basis Set:
  @DF-RHF Final Energy:  -305.86478235744244
    Total Energy =                       -305.8647823574424365
  Basis Set: 6-31G*
  Basis Set:
  Basis Set: 6-31G*
  Basis Set:
  @DF-RHF Final Energy:  -305.86492185567579
    Total Energy =                       -305.8649218556759024
  Basis Set: 6-31G*
  Basis Set:
  Basis Set: 6-31G*
  Basis Set:
  @DF-RHF Final Energy:  -305.86482763925648
    Total Energy =                       -305.8648276392564185
  Basis Set: 6-31G*
  Basis Set:
  Basis Set: 6-31G*
  Basis Set:
  @DF-RHF Final Energy:  -305.86493367181743
    Total Energy =                       -305.8649336718176528
  Basis Set: 6-31G*
  Basis Set:
  Charge       = 0
  Multiplicity = 1
  Basis Set: 6-31G*
  Basis Set:

    Orbital Energies (a.u.)
    -----------------------

    Doubly Occupied:

       1A    -20.605787     2A    -20.554163     3A    -11.381408
       4A    -11.250835     5A    -11.230570     6A    -11.221706
       7A     -1.464973     8A     -1.370537     9A     -1.086999
      10A     -0.978003    11A     -0.852253    12A     -0.813148
      13A     -0.718719    14A     -0.672738    15A     -0.659232
      16A     -0.626961    17A     -0.582708    18A     -0.575902
      19A     -0.550344    20A     -0.507884    21A     -0.495663
      22A     -0.488054    23A     -0.479321    24A     -0.442372

  @DF-RHF Final Energy:  -305.86493423069936

   => Energetics <=

    Nuclear Repulsion Energy =            239.6125789002374518
    One-Electron Energy =                -891.7344629615406575
    Two-Electron Energy =                 346.2569498306037872
    DFT Exchange-Correlation Energy =       0.0000000000000000
    Empirical Dispersion Energy =           0.0000000000000000
    PCM Polarization Energy =               0.0000000000000000
    EFP Energy =                            0.0000000000000000
    Total Energy =                       -305.8649342306994754
    Molecular point group: c1
  Basis Set: 6-31G*
  Basis Set:

  -Total Gradient:
     Atom            X                  Y                   Z
    ------   -----------------  -----------------  -----------------
       1        0.002945362630     0.003434849835    -0.005308034113
       2       -0.003803519248    -0.004235181786     0.004005381905
       3        0.000874848971     0.000687884886     0.007356257152
       4        0.000017255698     0.000007900489     0.000046319158
       5       -0.000006903245     0.000109316251    -0.006064479707
       6        0.000005724321     0.000004633372    -0.000010513557
       7        0.000002492173     0.000005263482    -0.000016715875
       8       -0.000012354960    -0.000004798977    -0.000019478913
       9       -0.000015086404     0.000004023668    -0.000000154687
      10        0.000001388500    -0.000007196285     0.000011849449
      11        0.000001803585    -0.000004988369    -0.000000727763
      12        0.000000915431    -0.000001373107     0.000001815322
      13       -0.000010543761    -0.000002831586    -0.000001429557
      14       -0.000001383692     0.000002498128    -0.000000088815

  **** Optimization is complete! (in 6 steps) ****
    Final optimized geometry and variables:
    Molecular point group: c1

    Geometry (in Angstrom), charge = 0, multiplicity = 1:

    H            1.897568078486    -1.566406331741    -0.577462140877
    O            2.076073188142    -0.832462050940    -0.004014274962
    C            1.061342960254     0.053812888981     0.005898094121
    C           -0.319402486260    -0.567549317450     0.005831049545
    O            1.277271187418     1.214119092329     0.017828856035
    C           -1.450383240890     0.456756963221     0.004175939426
    H           -0.398705022624    -1.221696279047    -0.862295621591
    H           -0.382775167208    -1.218495669174     0.874599716271
    C           -2.827012825149    -0.205698870646     0.009894071289
    H           -1.349580907026     1.097444171243    -0.864970847144
    H           -1.344127929277     1.101129797012     0.869575701028
    H           -2.969030406429    -0.833649653180    -0.865424274225
    H           -3.614043870626     0.540899528488     0.010154992396
    H           -2.963249424197    -0.828733827737     0.889388936126

  Mulliken Charges: (a.u.)
   Center  Symbol    Alpha    Beta     Spin     Total
       1     H     0.26940  0.26940  0.00000  0.46121
       2     O     4.35807  4.35807  0.00000 -0.71614
       3     C     2.61512  2.61512  0.00000  0.76975
       4     C     3.22541  3.22541  0.00000 -0.45082
       5     O     4.25499  4.25499  0.00000 -0.50999
       6     C     3.15102  3.15102  0.00000 -0.30204
       7     H     0.41288  0.41288  0.00000  0.17424
       8     H     0.39834  0.39834  0.00000  0.20331
       9     C     3.24354  3.24354  0.00000 -0.48709
      10     H     0.40915  0.40915  0.00000  0.18170
      11     H     0.40683  0.40683  0.00000  0.18634
      12     H     0.42185  0.42185  0.00000  0.15630
      13     H     0.41294  0.41294  0.00000  0.17412
      14     H     0.42046  0.42046  0.00000  0.15909

   Total alpha = 24.00000, Total beta = 24.00000, Total charge = -0.00000
