                              Psi4 1.0.54 Driver

  ==> Input File <==

--------------------------------------------------------------------------
set {
	reference rhf
	basis cc-pvtz
}

set_num_threads( 4 )
memory 2 gb

molecule MOL {
0 1

H	 3.083659	 -1.378387	 0.000000
O	 2.179005	 -1.633391	 0.000000
C	 1.366950	 -0.558201	 0.000000
C	 -0.000622	 -0.663033	 0.203565
C	 1.939309	 0.679321	 -0.212045
H	 -0.444830	 -1.627850	 0.368598
C	 -0.791615	 0.467987	 0.194668
H	 2.995211	 0.763589	 -0.369571
C	 1.139212	 1.807664	 -0.219376
H	 -1.848478	 0.374697	 0.353288
C	 -0.226863	 1.709670	 -0.016749
C	 1.743368	 3.146586	 -0.446671
H	 -0.839400	 2.590937	 -0.024214
O	 2.895261	 3.344186	 -0.629747
H	 1.031302	 3.977501	 -0.434781

	symmetry c1
}
set optking {
	frozen_dihedral = ("
		4 3 2 1
	")
}

ee,wfn = optimize('scf', return_wfn=True)
oeprop( wfn, 'DIPOLE', 'QUADRUPOLE', 'MULLIKEN_CHARGES')
f=open( 'psi4out.xyz', 'w' )
f.write( "15  " )
f.write( str(ee) + "\n" )
f.write( MOL.save_string_xyz() )
f.close()
--------------------------------------------------------------------------

    Molecular point group: c1
  Charge       = 0
  Multiplicity = 1
  Basis Set: CC-PVTZ
  Basis Set:
  @DF-RHF Final Energy:  -418.43804065598925
    Total Energy =                       -418.4380406559894254
    Molecular point group: c1
  Basis Set: CC-PVTZ
  Basis Set:
  Basis Set: CC-PVTZ
  Basis Set:
  @DF-RHF Final Energy:  -418.43996520564502
    Total Energy =                       -418.4399652056453078
  Basis Set: CC-PVTZ
  Basis Set:
  Basis Set: CC-PVTZ
  Basis Set:
  @DF-RHF Final Energy:  -418.44010447349234
    Total Energy =                       -418.4401044734922834
  Basis Set: CC-PVTZ
  Basis Set:
  Basis Set: CC-PVTZ
  Basis Set:
  @DF-RHF Final Energy:  -418.43781061094978
    Total Energy =                       -418.4378106109495548
  Basis Set: CC-PVTZ
  Basis Set:
  Basis Set: CC-PVTZ
  Basis Set:
  @DF-RHF Final Energy:  -418.44011653560545
    Total Energy =                       -418.4401165356052843
  Basis Set: CC-PVTZ
  Basis Set:
  Basis Set: CC-PVTZ
  Basis Set:
  @DF-RHF Final Energy:  -418.44016138779898
    Total Energy =                       -418.4401613877988666
  Basis Set: CC-PVTZ
  Basis Set:
  Charge       = 0
  Multiplicity = 1
  Basis Set: CC-PVTZ
  Basis Set:

    Orbital Energies (a.u.)
    -----------------------

    Doubly Occupied:

       1A    -20.595197     2A    -20.556678     3A    -11.329987
       4A    -11.311497     5A    -11.252124     6A    -11.249264
       7A    -11.244555     8A    -11.242957     9A    -11.241519
      10A     -1.426869    11A     -1.412367    12A     -1.174549
      13A     -1.053293    14A     -1.029598    15A     -0.904174
      16A     -0.857644    17A     -0.799787    18A     -0.759162
      19A     -0.704236    20A     -0.672031    21A     -0.665901
      22A     -0.633820    23A     -0.616698    24A     -0.609856
      25A     -0.578424    26A     -0.559358    27A     -0.539571
      28A     -0.521077    29A     -0.492566    30A     -0.429249
      31A     -0.358214    32A     -0.331971

  @DF-RHF Final Energy:  -418.44016356288716

   => Energetics <=

    Nuclear Repulsion Energy =            404.2510896876659672
    One-Electron Energy =               -1371.0741247998182644
    Two-Electron Energy =                 548.3828715492650190
    DFT Exchange-Correlation Energy =       0.0000000000000000
    Empirical Dispersion Energy =           0.0000000000000000
    PCM Polarization Energy =               0.0000000000000000
    EFP Energy =                            0.0000000000000000
    Total Energy =                       -418.4401635628872782
    Molecular point group: c1
  Basis Set: CC-PVTZ
  Basis Set:

  -Total Gradient:
     Atom            X                  Y                   Z
    ------   -----------------  -----------------  -----------------
       1        0.000007353711    -0.000021649798     0.001122174764
       2        0.000067677035     0.000060138897    -0.001016856527
       3       -0.000317175433    -0.000164527548    -0.000893710295
       4        0.000251274160    -0.000008227198     0.000781158573
       5       -0.000028022594     0.000126774328    -0.000000847834
       6        0.000018303382     0.000013218124    -0.000002065203
       7       -0.000021170375     0.000259434588    -0.000017629357
       8       -0.000001596951     0.000014986973     0.000000865073
       9        0.000259678134    -0.000034887031    -0.000024551588
      10       -0.000005247916    -0.000025226576     0.000003654067
      11       -0.000244122072    -0.000197260776     0.000049358511
      12       -0.000090137851     0.000032583750     0.000003008410
      13        0.000029203672     0.000009452631    -0.000005058472
      14        0.000003891732     0.000003894088     0.000002024962
      15        0.000070091364    -0.000068704452    -0.000001525086

  **** Optimization is complete! (in 7 steps) ****
    Final optimized geometry and variables:
    Molecular point group: c1

    Geometry (in Angstrom), charge = 0, multiplicity = 1:

    H            1.832900724158    -2.405259914119     0.124379372801
    O            0.911220862583    -2.592248070698     0.128340422722
    C            0.185900399930    -1.456606032838     0.120854551646
    C           -1.182362190255    -1.574010893276     0.340147790139
    C            0.744784848938    -0.217785150501    -0.091154606923
    H           -1.596620273762    -2.548767908785     0.507250897752
    C           -1.977946344732    -0.452976873252     0.338516022011
    H            1.798273411194    -0.104756493170    -0.262911252235
    C           -0.065371800378     0.910381802462    -0.086220651302
    H           -3.032708498917    -0.552568318390     0.507135106993
    C           -1.423314207237     0.799882747945     0.125610484676
    C            0.531401250555     2.250777125604    -0.312501736022
    H           -2.043748557396     1.675745740357     0.126610716271
    O            1.682925473196     2.451408601442    -0.499406412590
    H           -0.183113578863     3.079071880162    -0.295847568965

  Mulliken Charges: (a.u.)
   Center  Symbol    Alpha    Beta     Spin     Total
       1     H     0.38451  0.38451  0.00000  0.23099
       2     O     4.17318  4.17318  0.00000 -0.34635
       3     C     2.84123  2.84123  0.00000  0.31755
       4     C     3.10187  3.10187  0.00000 -0.20375
       5     C     3.14290  3.14290  0.00000 -0.28579
       6     H     0.41535  0.41535  0.00000  0.16930
       7     C     3.05634  3.05634  0.00000 -0.11269
       8     H     0.41729  0.41729  0.00000  0.16541
       9     C     2.98006  2.98006  0.00000  0.03988
      10     H     0.41936  0.41936  0.00000  0.16128
      11     C     3.10825  3.10825  0.00000 -0.21651
      12     C     2.90933  2.90933  0.00000  0.18134
      13     H     0.42311  0.42311  0.00000  0.15378
      14     O     4.17228  4.17228  0.00000 -0.34456
      15     H     0.45494  0.45494  0.00000  0.09011

   Total alpha = 32.00000, Total beta = 32.00000, Total charge =  0.00000

*** Psi4 exiting successfully. Buy a developer a beer!
