  ==> Input File <==

--------------------------------------------------------------------------
set {
	reference rhf
	basis 6-31G*
}

set_num_threads( 1 )
memory 2 gb

molecule MOL {
0 1

H	 -3.021103	 -1.320899	 0.215744
O	 -2.196288	 -0.982083	 -0.101524
C	 -2.026376	 0.340750	 0.341611
C	 -0.673256	 0.843270	 -0.132153
H	 -2.814278	 0.977990	 -0.055970
H	 -2.081528	 0.389781	 1.428445
C	 0.486613	 -0.083066	 0.235839
H	 -0.715586	 0.970948	 -1.210718
H	 -0.508072	 1.829858	 0.297090
C	 1.840406	 0.433480	 -0.254303
H	 0.300215	 -1.068318	 -0.178947
H	 0.519509	 -0.203625	 1.318070
C	 3.000220	 -0.489290	 0.118523
H	 1.809207	 0.553576	 -1.335192
H	 2.021860	 1.424500	 0.157276
H	 2.864959	 -1.479103	 -0.307933
H	 3.946603	 -0.099227	 -0.243630
H	 3.080049	 -0.602997	 1.196117

	symmetry c1
}
set optking {
	frozen_dihedral = ("
		14 10 7 11,
		10 7 4 8,
		1 2 3 4
	")
}

ee = energy('scf')
oeprop('DIPOLE', 'QUADRUPOLE', 'MULLIKEN_CHARGES')
f=open( 'psi4out.xyz', 'w' )
f.write( "18  " )
f.write( str(ee) + "\n" )
f.write( MOL.save_string_xyz() )
f.close()
--------------------------------------------------------------------------

    Molecular point group: c1

    Geometry (in Angstrom), charge = 0, multiplicity = 1:

       Center              X                  Y                   Z               Mass
    ------------   -----------------  -----------------  -----------------  -----------------
           H         -3.042058549147    -1.300653728192     0.177365607880     1.007825032070
           O         -2.217243549147    -0.961837728192    -0.139902392120    15.994914619560
           C         -2.047331549147     0.360995271808     0.303232607880    12.000000000000
           C         -0.694211549147     0.863515271808    -0.170531392120    12.000000000000
           H         -2.835233549147     0.998235271808    -0.094348392120     1.007825032070
           H         -2.102483549147     0.410026271808     1.390066607880     1.007825032070
           C          0.465657450853    -0.062820728192     0.197460607880    12.000000000000
           H         -0.736541549147     0.991193271808    -1.249096392120     1.007825032070
           H         -0.529027549147     1.850103271808     0.258711607880     1.007825032070
           C          1.819450450853     0.453725271808    -0.292681392120    12.000000000000
           H          0.279259450853    -1.048072728192    -0.217325392120     1.007825032070
           H          0.498553450853    -0.183379728192     1.279691607880     1.007825032070
           C          2.979264450853    -0.469044728192     0.080144607880    12.000000000000
           H          1.788251450853     0.573821271808    -1.373570392120     1.007825032070
           H          2.000904450853     1.444745271808     0.118897607880     1.007825032070
           H          2.844003450853    -1.458857728192    -0.346311392120     1.007825032070
           H          3.925647450853    -0.078981728192    -0.282008392120     1.007825032070
           H          3.059093450853    -0.582751728192     1.157738607880     1.007825032070

  Charge       = 0
  Multiplicity = 1
  Basis Set: 6-31G*
  Basis Set:

    Orbital Energies (a.u.)
    -----------------------

    Doubly Occupied:

       1A    -20.553341     2A    -11.268216     3A    -11.211915
       4A    -11.209717     5A    -11.204679     6A    -11.203728
       7A     -1.360240     8A     -1.073616     9A     -1.008237
      10A     -0.912909    11A     -0.817192    12A     -0.782158
      13A     -0.704322    14A     -0.645227    15A     -0.622543
      16A     -0.579597    17A     -0.570692    18A     -0.556556
      19A     -0.521194    20A     -0.501003    21A     -0.487985
      22A     -0.465925    23A     -0.456404    24A     -0.446119
      25A     -0.429584

  @DF-RHF Final Energy:  -271.17924664393024

   => Energetics <=

    Nuclear Repulsion Energy =            249.7061976435673785
    One-Electron Energy =                -862.5848258868263656
    Two-Electron Energy =                 341.6993815993290582
    DFT Exchange-Correlation Energy =       0.0000000000000000
    Empirical Dispersion Energy =           0.0000000000000000
    PCM Polarization Energy =               0.0000000000000000
    EFP Energy =                            0.0000000000000000
    Total Energy =                       -271.1792466439299005

  Mulliken Charges: (a.u.)
   Center  Symbol    Alpha    Beta     Spin     Total
       1     H     0.28044  0.28044  0.00000  0.43913
       2     O     4.36955  4.36955  0.00000 -0.73910
       3     C     2.99655  2.99655  0.00000  0.00690
       4     C     3.16209  3.16209  0.00000 -0.32417
       5     H     0.42908  0.42908  0.00000  0.14185
       6     H     0.43251  0.43251  0.00000  0.13498
       7     C     3.15164  3.15164  0.00000 -0.30328
       8     H     0.41727  0.41727  0.00000  0.16547
       9     H     0.42386  0.42386  0.00000  0.15229
      10     C     3.15179  3.15179  0.00000 -0.30359
      11     H     0.40567  0.40567  0.00000  0.18865
      12     H     0.42771  0.42771  0.00000  0.14458
      13     C     3.23877  3.23877  0.00000 -0.47753
      14     H     0.42310  0.42310  0.00000  0.15381
      15     H     0.42579  0.42579  0.00000  0.14842
      16     H     0.42091  0.42091  0.00000  0.15817
      17     H     0.42063  0.42063  0.00000  0.15873
      18     H     0.42265  0.42265  0.00000  0.15469

   Total alpha = 25.00000, Total beta = 25.00000, Total charge = -0.00000
