  ==> Input File <==

--------------------------------------------------------------------------
set {
	reference rhf
	basis 6-31G*
}

set_num_threads( 4 )
memory 2 gb

molecule MOL {
0 1

H	 -2.698709	 -0.000305	 0.034435
C	 -1.693833	 0.000034	 0.434417
O	 -0.828952	 -0.000968	 -0.659236
H	 -1.574200	 0.882896	 1.055746
H	 -1.574147	 -0.881698	 1.057355
C	 -0.895867	 -1.072984	 -1.570722
C	 -0.515052	 -2.407758	 -0.933325
C	 -2.236654	 -1.139142	 -2.299333
H	 -0.133989	 -0.824197	 -2.299885
H	 0.414910	 -2.310368	 -0.383566
H	 -0.378401	 -3.160900	 -1.702960
H	 -1.279039	 -2.771354	 -0.253408
H	 -2.498649	 -0.163574	 -2.694405
H	 -2.174251	 -1.836788	 -3.128707
H	 -3.040388	 -1.474043	 -1.651495

	symmetry c1
}
set optking {
	frozen_dihedral = ("
		6 3 2 1
	")
}

ee = optimize('scf')
oeprop('DIPOLE', 'QUADRUPOLE', 'MULLIKEN_CHARGES')
f=open( 'psi4out.xyz', 'w' )
f.write( "15  " )
f.write( str(ee) + "\n" )
f.write( MOL.save_string_xyz() )
f.close()
--------------------------------------------------------------------------

    Molecular point group: c1
  Charge       = 0
  Multiplicity = 1
  Basis Set: 6-31G*
  Basis Set:
  @DF-RHF Final Energy:  -232.13524741079226
    Total Energy =                       -232.1352474107922603
    Molecular point group: c1
  Basis Set: 6-31G*
  Basis Set:
  Basis Set: 6-31G*
  Basis Set:
  @DF-RHF Final Energy:  -232.13725460338190
    Total Energy =                       -232.1372546033817912
  Basis Set: 6-31G*
  Basis Set:
  Basis Set: 6-31G*
  Basis Set:
  @DF-RHF Final Energy:  -232.13776367812028
    Total Energy =                       -232.1377636781201659
  Basis Set: 6-31G*
  Basis Set:
  Basis Set: 6-31G*
  Basis Set:
  @DF-RHF Final Energy:  -232.13776397665328
    Total Energy =                       -232.1377639766532752
  Basis Set: 6-31G*
  Basis Set:
  Basis Set: 6-31G*
  Basis Set:
  @DF-RHF Final Energy:  -232.13777158603395
    Total Energy =                       -232.1377715860336934
  Basis Set: 6-31G*
  Basis Set:
  Charge       = 0
  Multiplicity = 1
  Basis Set: 6-31G*
  Basis Set:

    Orbital Energies (a.u.)
    -----------------------

    Doubly Occupied:

       1A    -20.548426     2A    -11.274304     3A    -11.260992
       4A    -11.210655     5A    -11.210405     6A     -1.370498
       7A     -1.050507     8A     -0.939567     9A     -0.931315
      10A     -0.781260    11A     -0.674151    12A     -0.640316
      13A     -0.633543    14A     -0.572932    15A     -0.565541
      16A     -0.552690    17A     -0.533925    18A     -0.497243
      19A     -0.496801    20A     -0.443107    21A     -0.406716

  @DF-RHF Final Energy:  -232.13777224921935

   => Energetics <=

    Nuclear Repulsion Energy =            198.7712895603887944
    One-Electron Energy =                -708.6283359980540126
    Two-Electron Energy =                 277.7192741884459792
    DFT Exchange-Correlation Energy =       0.0000000000000000
    Empirical Dispersion Energy =           0.0000000000000000
    PCM Polarization Energy =               0.0000000000000000
    EFP Energy =                            0.0000000000000000
    Total Energy =                       -232.1377722492192106
    Molecular point group: c1
  Basis Set: 6-31G*
  Basis Set:

  -Total Gradient:
     Atom            X                  Y                   Z
    ------   -----------------  -----------------  -----------------
       1        0.000015188124    -0.000086055054    -0.000024713631
       2       -0.000008885684     0.000159942248     0.000025198346
       3        0.000014023543    -0.000138628494     0.000069951292
       4        0.000001912688    -0.000006406728     0.000003948637
       5        0.000013151740     0.000010763083    -0.000038847363
       6       -0.000018807773     0.000028991257    -0.000089421704
       7       -0.000012095885     0.000012238094     0.000012393333
       8        0.000002436155    -0.000001619389     0.000029077568
       9        0.000004753012     0.000003911131    -0.000006367808
      10       -0.000009036852     0.000007052329     0.000009501136
      11        0.000002394347     0.000010751376     0.000004532024
      12       -0.000004570152    -0.000007135824    -0.000001017242
      13       -0.000009453962     0.000002122177     0.000011627589
      14        0.000010519506     0.000009324999     0.000004329684
      15       -0.000001528806    -0.000005251208    -0.000010191861

  **** Optimization is complete! (in 6 steps) ****
    Final optimized geometry and variables:
    Molecular point group: c1

    Geometry (in Angstrom), charge = 0, multiplicity = 1:

    H           -1.502100168960     0.893892245144     1.124286176392
    C           -0.458046530250     0.906444158771     1.423514837549
    O            0.408123402579     0.919593220701     0.330962071612
    H           -0.273426857461     1.817614272978     1.976222226609
    H           -0.276276227967     0.063562255329     2.084058339234
    C            0.355871923860    -0.150447095044    -0.583720828488
    C            0.731514250360    -1.486322358394     0.054466960583
    C           -0.975558904846    -0.217322245290    -1.329384421128
    H            1.126130825848     0.102252592673    -1.302617547337
    H            1.654273491053    -1.388954739294     0.616184867940
    H            0.879374222012    -2.236887441563    -0.715723328564
    H           -0.040331144045    -1.853373126250     0.723496215991
    H           -1.233967926393     0.758804889098    -1.725327523588
    H           -0.901451100634    -0.912964726972    -2.159496194266
    H           -1.787066254005    -0.555081055230    -0.692751089061

  Mulliken Charges: (a.u.)
   Center  Symbol    Alpha    Beta     Spin     Total
       1     H     0.42948  0.42948  0.00000  0.14104
       2     C     3.08198  3.08198  0.00000 -0.16397
       3     O     4.31181  4.31181  0.00000 -0.62362
       4     H     0.41258  0.41258  0.00000  0.17484
       5     H     0.42912  0.42912  0.00000  0.14176
       6     C     2.90863  2.90863  0.00000  0.18273
       7     C     3.25382  3.25382  0.00000 -0.50764
       8     C     3.25319  3.25319  0.00000 -0.50637
       9     H     0.41512  0.41512  0.00000  0.16975
      10     H     0.41146  0.41146  0.00000  0.17709
      11     H     0.41919  0.41919  0.00000  0.16163
      12     H     0.42133  0.42133  0.00000  0.15734
      13     H     0.41140  0.41140  0.00000  0.17721
      14     H     0.41945  0.41945  0.00000  0.16109
      15     H     0.42145  0.42145  0.00000  0.15710

   Total alpha = 21.00000, Total beta = 21.00000, Total charge =  0.00000
