                              Psi4 1.0.54 Driver

  ==> Input File <==

--------------------------------------------------------------------------
set {
	reference rhf
	basis cc-pvtz
}

set_num_threads( 4 )
memory 2 gb

molecule MOL {
0 1

H	 -2.123894	 -0.667238	 -0.609809
O	 -2.041679	 -0.058866	 0.103463
C	 -0.959304	 0.780994	 -0.094939
C	 0.354905	 0.037902	 -0.006215
H	 -0.985899	 1.279578	 -1.057596
H	 -0.969809	 1.529522	 0.682889
F	 0.373077	 -0.991769	 -0.834007
F	 1.352264	 0.831559	 -0.336336
F	 0.590313	 -0.423710	 1.198554

	symmetry c1
}
set optking {
	frozen_dihedral = ("
		7 4 3 5
	")
}

ee,wfn = optimize('scf', return_wfn=True)
oeprop( wfn, 'DIPOLE', 'QUADRUPOLE', 'MULLIKEN_CHARGES')
f=open( 'psi4out.xyz', 'w' )
f.write( "9  " )
f.write( str(ee) + "\n" )
f.write( MOL.save_string_xyz() )
f.close()
--------------------------------------------------------------------------

    Molecular point group: c1
  Charge       = 0
  Multiplicity = 1
  Basis Set: CC-PVTZ
  Basis Set:
  @DF-RHF Final Energy:  -450.84715615354941
    Total Energy =                       -450.8471561535495198
    Molecular point group: c1
  Basis Set: CC-PVTZ
  Basis Set:
  Basis Set: CC-PVTZ
  Basis Set:
  @DF-RHF Final Energy:  -450.84717019566114
    Total Energy =                       -450.8471701956610787
  Basis Set: CC-PVTZ
  Basis Set:
  Basis Set: CC-PVTZ
  Basis Set:
  @DF-RHF Final Energy:  -450.84717445009329
    Total Energy =                       -450.8471744500935188
  Basis Set: CC-PVTZ
  Basis Set:
  Charge       = 0
  Multiplicity = 1
  Basis Set: CC-PVTZ
  Basis Set:

    Orbital Energies (a.u.)
    -----------------------

    Doubly Occupied:

       1A    -26.340049     2A    -26.339977     3A    -26.335332
       4A    -20.583906     5A    -11.493925     6A    -11.310021
       7A     -1.748001     8A     -1.645535     9A     -1.642567
      10A     -1.407550    11A     -1.050511    12A     -0.929950
      13A     -0.837840    14A     -0.836578    15A     -0.812230
      16A     -0.731601    17A     -0.719114    18A     -0.703965
      19A     -0.672131    20A     -0.666001    21A     -0.649405
      22A     -0.632925    23A     -0.619590    24A     -0.533892
      25A     -0.484807

  @DF-RHF Final Energy:  -450.84717465966543

   => Energetics <=

    Nuclear Repulsion Energy =            277.7181139364362821
    One-Electron Energy =               -1177.6757666981086459
    Two-Electron Energy =                 449.1104781020069936
    DFT Exchange-Correlation Energy =       0.0000000000000000
    Empirical Dispersion Energy =           0.0000000000000000
    PCM Polarization Energy =               0.0000000000000000
    EFP Energy =                            0.0000000000000000
    Total Energy =                       -450.8471746596653134
    Molecular point group: c1
  Basis Set: CC-PVTZ
  Basis Set:

  -Total Gradient:
     Atom            X                  Y                   Z
    ------   -----------------  -----------------  -----------------
       1        0.000001267870     0.000010761497    -0.000001999941
       2        0.000007662373    -0.000000979520    -0.000009463091
       3       -0.000786290277    -0.001447068782    -0.000376606897
       4        0.000576746614     0.000993972614    -0.000849841561
       5        0.000521675577     0.001005265746     0.000529124062
       6       -0.000000403454     0.000025690562    -0.000004851428
       7       -0.000375647550    -0.000602622587     0.000805340553
       8        0.000059197039     0.000015786359    -0.000008195135
       9       -0.000004208194    -0.000000805890    -0.000083506559

  **** Optimization is complete! (in 4 steps) ****
    Final optimized geometry and variables:
    Molecular point group: c1

    Geometry (in Angstrom), charge = 0, multiplicity = 1:

    H           -2.119527417890    -0.675401730887    -0.596899878276
    O           -2.042223933808    -0.055223422366     0.106637249857
    C           -0.959560525581     0.781232617979    -0.098868554086
    C            0.355512623980     0.038561740768    -0.008643519600
    H           -0.986030685023     1.283479178207    -1.059695173866
    H           -0.966362376833     1.532121439904     0.677018355601
    F            0.378020641797    -0.988696972890    -0.838669252930
    F            1.355253648477     0.833437603743    -0.327127534860
    F            0.583633880565    -0.429588960492     1.195890532320

  Mulliken Charges: (a.u.)
   Center  Symbol    Alpha    Beta     Spin     Total
       1     H     0.38619  0.38619  0.00000  0.22762
       2     O     4.19221  4.19221  0.00000 -0.38442
       3     C     2.99087  2.99087  0.00000  0.01826
       4     C     2.68351  2.68351  0.00000  0.63298
       5     H     0.46230  0.46230  0.00000  0.07541
       6     H     0.44781  0.44781  0.00000  0.10438
       7     F     4.61728  4.61728  0.00000 -0.23455
       8     F     4.61180  4.61180  0.00000 -0.22360
       9     F     4.60803  4.60803  0.00000 -0.21607

   Total alpha = 25.00000, Total beta = 25.00000, Total charge = -0.00000

*** Psi4 exiting successfully. Buy a developer a beer!
