  ==> Input File <==

--------------------------------------------------------------------------
set {
	reference rhf
	basis 6-31G*
}

set_num_threads( 1 )
memory 2 gb

molecule MOL {
0 1

O	 2.210360	 -0.342928	 -0.112736
C	 1.122059	 0.121804	 -0.000188
C	 -0.170150	 -0.657997	 -0.000612
O	 0.898750	 1.421931	 0.143955
C	 -1.412532	 0.227344	 -0.000452
H	 -0.153702	 -1.313099	 -0.867402
H	 -0.153924	 -1.313811	 0.865644
C	 -2.706999	 -0.587347	 -0.000541
H	 -1.388000	 0.879466	 -0.868000
H	 -1.387972	 0.879138	 0.867341
C	 -3.956778	 0.291888	 0.000910
H	 -2.726114	 -1.239230	 -0.871609
H	 -2.725217	 -1.240844	 0.869333
H	 -3.985213	 0.933254	 -0.875158
H	 -4.860123	 -0.309979	 0.000519
H	 -3.984618	 0.931166	 0.878514
C	 2.032125	 2.270643	 0.160998
H	 2.685554	 2.015581	 0.982861
H	 1.649322	 3.271734	 0.284405
H	 2.580464	 2.191054	 -0.766632

	symmetry c1
}
set optking {
	frozen_dihedral = ("
		9 5 8 12,
		9 5 3 6,
		1 2 4 17
	")
}

ee = energy('scf')
oeprop('DIPOLE', 'QUADRUPOLE', 'MULLIKEN_CHARGES')
f=open( 'psi4out.xyz', 'w' )
f.write( "20  " )
f.write( str(ee) + "\n" )
f.write( MOL.save_string_xyz() )
f.close()
--------------------------------------------------------------------------

    Molecular point group: c1

    Geometry (in Angstrom), charge = 0, multiplicity = 1:

       Center              X                  Y                   Z               Mass
    ------------   -----------------  -----------------  -----------------  -----------------
           O          2.433819068972    -0.713208071510    -0.137928611619    15.994914619560
           C          1.345518068972    -0.248476071510    -0.025380611619    12.000000000000
           C          0.053309068972    -1.028277071510    -0.025804611619    12.000000000000
           O          1.122209068972     1.051650928490     0.118762388381    15.994914619560
           C         -1.189072931028    -0.142936071510    -0.025644611619    12.000000000000
           H          0.069757068972    -1.683379071510    -0.892594611619     1.007825032070
           H          0.069535068972    -1.684091071510     0.840451388381     1.007825032070
           C         -2.483539931028    -0.957627071510    -0.025733611619    12.000000000000
           H         -1.164540931028     0.509185928490    -0.893192611619     1.007825032070
           H         -1.164512931028     0.508857928490     0.842148388381     1.007825032070
           C         -3.733318931028    -0.078392071510    -0.024282611619    12.000000000000
           H         -2.502654931028    -1.609510071510    -0.896801611619     1.007825032070
           H         -2.501757931028    -1.611124071510     0.844140388381     1.007825032070
           H         -3.761753931028     0.562973928490    -0.900350611619     1.007825032070
           H         -4.636663931028    -0.680259071510    -0.024673611619     1.007825032070
           H         -3.761158931028     0.560885928490     0.853321388381     1.007825032070
           C          2.255584068972     1.900362928490     0.135805388381    12.000000000000
           H          2.909013068972     1.645300928490     0.957668388381     1.007825032070
           H          1.872781068972     2.901453928490     0.259212388381     1.007825032070
           H          2.803923068972     1.820773928490    -0.791824611619     1.007825032070

  Charge       = 0
  Multiplicity = 1
  Basis Set: 6-31G*
  Basis Set:

    Orbital Energies (a.u.)
    -----------------------

    Doubly Occupied:

       1A    -20.605483     2A    -20.542412     3A    -11.372804
       4A    -11.281362     5A    -11.235742     6A    -11.221423
       7A    -11.220821     8A    -11.212546     9A     -1.470150
      10A     -1.361993    11A     -1.092386    12A     -1.024962
      13A     -0.964859    14A     -0.891400    15A     -0.805388
      16A     -0.774539    17A     -0.694778    18A     -0.685193
      19A     -0.670999    20A     -0.645778    21A     -0.593390
      22A     -0.591731    23A     -0.579808    24A     -0.540894
      25A     -0.532625    26A     -0.524637    27A     -0.503187
      28A     -0.493808    29A     -0.478054    30A     -0.474542
      31A     -0.451101    32A     -0.427388

  @DF-RHF Final Energy:  -383.93755382151187

   => Energetics <=

    Nuclear Repulsion Energy =            385.9904132784027979
    One-Electron Energy =               -1287.9236743861761170
    Two-Electron Energy =                 517.9957072862612222
    DFT Exchange-Correlation Energy =       0.0000000000000000
    Empirical Dispersion Energy =           0.0000000000000000
    PCM Polarization Energy =               0.0000000000000000
    EFP Energy =                            0.0000000000000000
    Total Energy =                       -383.9375538215120969

  Mulliken Charges: (a.u.)
   Center  Symbol    Alpha    Beta     Spin     Total
       1     O     4.28833  4.28833  0.00000 -0.57666
       2     C     2.60097  2.60097  0.00000  0.79806
       3     C     3.21602  3.21602  0.00000 -0.43204
       4     O     4.30548  4.30548  0.00000 -0.61097
       5     C     3.14924  3.14924  0.00000 -0.29848
       6     H     0.39801  0.39801  0.00000  0.20398
       7     H     0.39829  0.39829  0.00000  0.20342
       8     C     3.15424  3.15424  0.00000 -0.30848
       9     H     0.41519  0.41519  0.00000  0.16962
      10     H     0.41215  0.41215  0.00000  0.17570
      11     C     3.23920  3.23920  0.00000 -0.47840
      12     H     0.42249  0.42249  0.00000  0.15502
      13     H     0.42259  0.42259  0.00000  0.15481
      14     H     0.42079  0.42079  0.00000  0.15841
      15     H     0.41818  0.41818  0.00000  0.16363
      16     H     0.42077  0.42077  0.00000  0.15847
      17     C     3.09204  3.09204  0.00000 -0.18409
      18     H     0.40864  0.40864  0.00000  0.18272
      19     H     0.40881  0.40881  0.00000  0.18237
      20     H     0.40855  0.40855  0.00000  0.18289

   Total alpha = 32.00000, Total beta = 32.00000, Total charge =  0.00000
