  ==> Input File <==

--------------------------------------------------------------------------
set {
	reference rhf
	basis 6-31G*
}

set_num_threads( 4 )
memory 2 gb

molecule MOL {
0 1

H	 -2.859106	 2.909068	 -1.212989
C	 -3.384898	 2.215036	 -0.545541
C	 -2.660244	 0.921717	 -0.272021
O	 -4.445928	 2.506176	 -0.096986
C	 -1.220012	 1.144545	 0.209990
H	 -3.237389	 0.351589	 0.446705
H	 -2.642627	 0.361265	 -1.205959
C	 -0.252658	 0.041456	 -0.226725
H	 -0.873521	 2.100229	 -0.171974
H	 -1.211708	 1.231594	 1.295398
C	 1.180775	 0.282413	 0.250794
H	 -0.266029	 -0.034465	 -1.312038
H	 -0.597733	 -0.921000	 0.146291
C	 2.148627	 -0.814315	 -0.201312
H	 1.516199	 1.249228	 -0.115937
H	 1.192670	 0.346017	 1.338083
C	 3.580890	 -0.659131	 0.322722
H	 2.166869	 -0.852443	 -1.289387
H	 1.762857	 -1.776509	 0.128956
C	 4.324889	 0.564933	 -0.213704
H	 4.142010	 -1.551473	 0.056605
H	 3.564836	 -0.624694	 1.410140
H	 4.342616	 0.565491	 -1.300421
H	 3.866655	 1.493402	 0.110242
H	 5.353900	 0.572371	 0.132816

	symmetry c1
}
set optking {
	frozen_dihedral = ("
		6 3 5 8
	")
}

ee = optimize('scf')
oeprop('DIPOLE', 'QUADRUPOLE', 'MULLIKEN_CHARGES')
f=open( 'psi4out.xyz', 'w' )
f.write( "25  " )
f.write( str(ee) + "\n" )
f.write( MOL.save_string_xyz() )
f.close()
--------------------------------------------------------------------------

    Molecular point group: c1
  Charge       = 0
  Multiplicity = 1
  Basis Set: 6-31G*
  Basis Set:
  @DF-RHF Final Energy:  -387.11990863727510
    Total Energy =                       -387.1199086372753300
    Molecular point group: c1
  Basis Set: 6-31G*
  Basis Set:
  Basis Set: 6-31G*
  Basis Set:
  @DF-RHF Final Energy:  -387.11982975833223
    Total Energy =                       -387.1198297583316617
  Basis Set: 6-31G*
  Basis Set:
  Basis Set: 6-31G*
  Basis Set:
  @DF-RHF Final Energy:  -387.11751205646937
    Total Energy =                       -387.1175120564687404
  Basis Set: 6-31G*
  Basis Set:
  Basis Set: 6-31G*
  Basis Set:
  @DF-RHF Final Energy:  -387.12011653977891
    Total Energy =                       -387.1201165397790191
  Basis Set: 6-31G*
  Basis Set:
  Basis Set: 6-31G*
  Basis Set:
  @DF-RHF Final Energy:  -387.12018714538618
    Total Energy =                       -387.1201871453861258
  Basis Set: 6-31G*
  Basis Set:
  Basis Set: 6-31G*
  Basis Set:
  @DF-RHF Final Energy:  -387.12018961358035
    Total Energy =                       -387.1201896135808056
  Basis Set: 6-31G*
  Basis Set:
  Basis Set: 6-31G*
  Basis Set:
  @DF-RHF Final Energy:  -387.12019945523446
    Total Energy =                       -387.1201994552349106
  Basis Set: 6-31G*
  Basis Set:
  Charge       = 0
  Multiplicity = 1
  Basis Set: 6-31G*
  Basis Set:

    Orbital Energies (a.u.)
    -----------------------

    Doubly Occupied:

       1A    -20.562087     2A    -11.326116     3A    -11.235746
       4A    -11.234589     5A    -11.226679     6A    -11.221192
       7A    -11.219748     8A    -11.219104     9A    -11.212000
      10A     -1.402150    11A     -1.104472    12A     -1.070338
      13A     -1.015119    14A     -0.944956    15A     -0.875619
      16A     -0.814548    17A     -0.794595    18A     -0.782099
      19A     -0.674756    20A     -0.658921    21A     -0.633092
      22A     -0.621827    23A     -0.607228    24A     -0.593456
      25A     -0.572283    26A     -0.553202    27A     -0.537677
      28A     -0.522018    29A     -0.512019    30A     -0.497543
      31A     -0.485806    32A     -0.479009    33A     -0.466553
      34A     -0.460568    35A     -0.451340    36A     -0.407105

  @DF-RHF Final Energy:  -387.12019979455499

   => Energetics <=

    Nuclear Repulsion Energy =            431.6616243006194509
    One-Electron Energy =               -1379.5725198326740610
    Two-Electron Energy =                 560.7906957374996182
    DFT Exchange-Correlation Energy =       0.0000000000000000
    Empirical Dispersion Energy =           0.0000000000000000
    PCM Polarization Energy =               0.0000000000000000
    EFP Energy =                            0.0000000000000000
    Total Energy =                       -387.1201997945549920
    Molecular point group: c1
  Basis Set: 6-31G*
  Basis Set:

  -Total Gradient:
     Atom            X                  Y                   Z
    ------   -----------------  -----------------  -----------------
       1        0.000006467468    -0.000003913517     0.000011455652
       2       -0.000028212891     0.000027656245    -0.000062810836
       3        0.001615230474    -0.003489699482    -0.002841756563
       4        0.000006071263    -0.000036079502    -0.000004140459
       5       -0.000958841673    -0.000994818652     0.003565601347
       6       -0.001075088161     0.003240515315     0.001590082517
       7       -0.000034734422    -0.000015748234     0.000002157583
       8        0.000481485787     0.001300489319    -0.002296589095
       9       -0.000019796628     0.000011605076     0.000026366670
      10        0.000006794050    -0.000040613376     0.000016393236
      11        0.000009991936     0.000024311904    -0.000050356814
      12        0.000004993089    -0.000010636130     0.000014932271
      13       -0.000006615506    -0.000007352247     0.000011344384
      14       -0.000019250822    -0.000010702230     0.000021757532
      15        0.000029274839     0.000024796734     0.000005728166
      16        0.000006498724    -0.000013280709    -0.000013570501
      17        0.000012189361    -0.000030721995    -0.000012846698
      18        0.000007187752    -0.000019823716     0.000003154481
      19       -0.000028654327     0.000018683215     0.000009249107
      20       -0.000017946857     0.000014329415     0.000009853314
      21        0.000004970542     0.000013904349    -0.000016042709
      22        0.000017905004    -0.000027017046     0.000002184684
      23        0.000011412010    -0.000008859147     0.000007848489
      24       -0.000026977514     0.000018813378    -0.000011713699
      25       -0.000004353484     0.000014161026     0.000011717940

  **** Optimization is complete! (in 8 steps) ****
    Final optimized geometry and variables:
    Molecular point group: c1

    Geometry (in Angstrom), charge = 0, multiplicity = 1:

    H           -2.866390792908     2.176393139648    -1.161343212301
    C           -3.334099346618     1.496223781145    -0.439015100371
    C           -2.584967983970     0.209451677681    -0.193764628585
    O           -4.357268414009     1.794239326674     0.086013384113
    C           -1.132833402140     0.466261176804     0.249995492772
    H           -3.140576847526    -0.341291796865     0.555336928923
    H           -2.597106629844    -0.355591850599    -1.124040293685
    C           -0.167649063058    -0.643477923999    -0.172137203976
    H           -0.781673675082     1.404074275030    -0.178460954148
    H           -1.106294420980     0.598922529310     1.327347300255
    C            1.264729531746    -0.409485575877     0.310853452938
    H           -0.175588243219    -0.723934273284    -1.257450856370
    H           -0.525777290967    -1.598788793603     0.207481509522
    C            2.228782768459    -1.512479985787    -0.134429272854
    H            1.607847598005     0.555143072411    -0.054696772500
    H            1.270889706844    -0.345171246571     1.397752913298
    C            3.656329127386    -1.370983622611     0.406048163196
    H            2.259693050685    -1.546255196480    -1.222416851553
    H            1.831519848549    -2.472907701830     0.187460065304
    C            4.411711029419    -0.143787041563    -0.107391986026
    H            4.215833155490    -2.262996289048     0.135583676753
    H            3.628246853606    -1.349402800196     1.493555661835
    H            4.447060724526    -0.133493939504    -1.193545201431
    H            3.950924457535     0.783101448735     0.217711136090
    H            5.434922396050    -0.142147296233     0.255284221819

  Mulliken Charges: (a.u.)
   Center  Symbol    Alpha    Beta     Spin     Total
       1     H     0.43235  0.43235  0.00000  0.13530
       2     C     2.83173  2.83173  0.00000  0.33654
       3     C     3.20808  3.20808  0.00000 -0.41617
       4     O     4.23714  4.23714  0.00000 -0.47427
       5     C     3.16611  3.16611  0.00000 -0.33221
       6     H     0.39804  0.39804  0.00000  0.20392
       7     H     0.40826  0.40826  0.00000  0.18349
       8     C     3.15272  3.15272  0.00000 -0.30543
       9     H     0.41919  0.41919  0.00000  0.16161
      10     H     0.41031  0.41031  0.00000  0.17939
      11     C     3.15508  3.15508  0.00000 -0.31017
      12     H     0.42211  0.42211  0.00000  0.15579
      13     H     0.41983  0.41983  0.00000  0.16034
      14     C     3.15297  3.15297  0.00000 -0.30595
      15     H     0.42076  0.42076  0.00000  0.15847
      16     H     0.42222  0.42222  0.00000  0.15557
      17     C     3.15266  3.15266  0.00000 -0.30533
      18     H     0.42391  0.42391  0.00000  0.15219
      19     H     0.42153  0.42153  0.00000  0.15694
      20     C     3.24152  3.24152  0.00000 -0.48303
      21     H     0.42013  0.42013  0.00000  0.15974
      22     H     0.42271  0.42271  0.00000  0.15458
      23     H     0.42217  0.42217  0.00000  0.15565
      24     H     0.42016  0.42016  0.00000  0.15968
      25     H     0.41831  0.41831  0.00000  0.16337

   Total alpha = 36.00000, Total beta = 36.00000, Total charge = -0.00000
