  ==> Input File <==

--------------------------------------------------------------------------
set {
	reference rhf
	basis cc-pvtz
}

set_num_threads( 4 )
memory 2 gb

molecule MOL {
0 1

H	 3.721907	 -0.933076	 -0.066039
O	 2.824271	 -1.154299	 0.131461
C	 2.076458	 -0.067370	 -0.038225
C	 0.626018	 -0.337582	 0.258241
O	 2.538288	 0.965419	 -0.381593
C	 -0.267326	 0.883135	 0.076490
H	 0.325620	 -1.161483	 -0.378003
H	 0.574537	 -0.713685	 1.275261
C	 -1.726822	 0.642622	 0.463839
H	 -0.210803	 1.217591	 -0.953497
H	 0.129920	 1.693110	 0.675679
C	 -2.480891	 -0.340606	 -0.429852
H	 -2.243098	 1.597649	 0.438609
H	 -1.776542	 0.301208	 1.495542
C	 -1.842276	 -0.494162	 -1.806466
H	 -2.518710	 -1.310165	 0.059597
H	 -3.510451	 -0.020422	 -0.554125
H	 -2.394262	 -1.197572	 -2.419009
H	 -0.822120	 -0.854105	 -1.726336
H	 -1.816507	 0.453870	 -2.333463

	symmetry c1
}
set optking {
	frozen_dihedral = ("
		16 12 9 6
	")
}

ee = optimize('scf')
oeprop('DIPOLE', 'QUADRUPOLE', 'MULLIKEN_CHARGES')
f=open( 'psi4out.xyz', 'w' )
f.write( "20  " )
f.write( str(ee) + "\n" )
f.write( MOL.save_string_xyz() )
f.close()
--------------------------------------------------------------------------

    Molecular point group: c1
  Charge       = 0
  Multiplicity = 1
  Basis Set: CC-PVTZ
  Basis Set:
  @DF-RHF Final Energy:  -384.08165058176252
    Total Energy =                       -384.0816505817621191
    Molecular point group: c1
  Basis Set: CC-PVTZ
  Basis Set:
  Basis Set: CC-PVTZ
  Basis Set:
  @DF-RHF Final Energy:  -384.08692943015660
    Total Energy =                       -384.0869294301566015
  Basis Set: CC-PVTZ
  Basis Set:
  Basis Set: CC-PVTZ
  Basis Set:
  @DF-RHF Final Energy:  -384.08773382155550
    Total Energy =                       -384.0877338215558439
  Basis Set: CC-PVTZ
  Basis Set:
  Basis Set: CC-PVTZ
  Basis Set:
  @DF-RHF Final Energy:  -384.08769269182147
    Total Energy =                       -384.0876926918214167
  Basis Set: CC-PVTZ
  Basis Set:
  Basis Set: CC-PVTZ
  Basis Set:
  @DF-RHF Final Energy:  -384.08780929954423
    Total Energy =                       -384.0878092995440056
  Basis Set: CC-PVTZ
  Basis Set:
  Basis Set: CC-PVTZ
  Basis Set:
  @DF-RHF Final Energy:  -384.08789293033954
    Total Energy =                       -384.0878929303397626
  Basis Set: CC-PVTZ
  Basis Set:
  Basis Set: CC-PVTZ
  Basis Set:
  @DF-RHF Final Energy:  -384.08789477323336
    Total Energy =                       -384.0878947732330744
  Basis Set: CC-PVTZ
  Basis Set:
  Charge       = 0
  Multiplicity = 1
  Basis Set: CC-PVTZ
  Basis Set:

    Orbital Energies (a.u.)
    -----------------------

    Doubly Occupied:

       1A    -20.603675     2A    -20.540300     3A    -11.373081
       4A    -11.238008     5A    -11.220045     6A    -11.219073
       7A    -11.218511     8A    -11.211798     9A     -1.477198
      10A     -1.368701    11A     -1.095599    12A     -1.038139
      13A     -0.962228    14A     -0.883153    15A     -0.814859
      16A     -0.766434    17A     -0.703146    18A     -0.692211
      19A     -0.669725    20A     -0.629916    21A     -0.623687
      22A     -0.586635    23A     -0.569775    24A     -0.564384
      25A     -0.536528    26A     -0.512101    27A     -0.508205
      28A     -0.484066    29A     -0.469262    30A     -0.461040
      31A     -0.456459    32A     -0.443698

  @DF-RHF Final Energy:  -384.08789517489163

   => Energetics <=

    Nuclear Repulsion Energy =            384.1857188719309306
    One-Electron Energy =               -1284.6639399341354419
    Two-Electron Energy =                 516.3903258873131108
    DFT Exchange-Correlation Energy =       0.0000000000000000
    Empirical Dispersion Energy =           0.0000000000000000
    PCM Polarization Energy =               0.0000000000000000
    EFP Energy =                            0.0000000000000000
    Total Energy =                       -384.0878951748914005
    Molecular point group: c1
  Basis Set: CC-PVTZ
  Basis Set:

  -Total Gradient:
     Atom            X                  Y                   Z
    ------   -----------------  -----------------  -----------------
       1       -0.000011047620     0.000007175191     0.000001742027
       2       -0.000009764388    -0.000014407436     0.000004684713
       3        0.000018372221    -0.000015026286    -0.000014815441
       4        0.000002976244    -0.000017910169    -0.000046469513
       5       -0.000007221207     0.000023032912     0.000014535592
       6       -0.001552197499     0.004283057068    -0.003174348104
       7        0.000003726195     0.000011751701     0.000025454881
       8        0.000000756335     0.000010064781     0.000012633384
       9        0.000773673495    -0.005764160593     0.005414901795
      10       -0.000005409330    -0.000012095544     0.000012681558
      11        0.000007959593     0.000005200765    -0.000002170615
      12        0.007097085838    -0.000392949308    -0.005666656802
      13       -0.000004135334     0.000012076011     0.000025459915
      14        0.000011558629    -0.000015926152    -0.000012374972
      15        0.000011258657     0.000006203622     0.000020165761
      16       -0.006324893617     0.001890468175     0.003393738691
      17       -0.000000961657    -0.000021118615    -0.000013906042
      18        0.000003962440    -0.000001142983     0.000002336490
      19       -0.000004613455     0.000009074129     0.000005451074
      20       -0.000011085533    -0.000003367270    -0.000003044390

  **** Optimization is complete! (in 8 steps) ****
    Final optimized geometry and variables:
    Molecular point group: c1

    Geometry (in Angstrom), charge = 0, multiplicity = 1:

    H            3.505477932858    -0.890832393289     0.263455805182
    O            2.615088886283    -1.104543532788     0.498532592064
    C            1.846036972151    -0.052183737554     0.232865158188
    C            0.405331442368    -0.311263337605     0.581213363417
    O            2.284058692262     0.947516152277    -0.222052846488
    C           -0.513375861112     0.873411833034     0.305465074414
    H            0.102344876367    -1.198439717062     0.037067667459
    H            0.377053770151    -0.588202677860     1.630276839002
    C           -1.977788515660     0.598174894528     0.654621938822
    H           -0.418672363972     1.174891668870    -0.728574069909
    H           -0.169861450365     1.716396636309     0.892789292020
    C           -2.761558049055    -0.369084407329    -0.261192506570
    H           -2.483889014100     1.558087272505     0.632993504484
    H           -2.049423889047     0.251152588301     1.680593803259
    C           -2.319789799262    -0.460567662436    -1.717942625646
    H           -2.812642518068    -1.354017955241     0.192960202837
    H           -3.795468680052    -0.036125944487    -0.254482182345
    H           -2.993212004449    -1.105787701074    -2.269892219391
    H           -1.321062316341    -0.863810997882    -1.828906169970
    H           -2.335723884522     0.512923764588    -2.195678790006

  Mulliken Charges: (a.u.)
   Center  Symbol    Alpha    Beta     Spin     Total
       1     H     0.38246  0.38246  0.00000  0.23508
       2     O     4.16048  4.16048  0.00000 -0.32096
       3     C     2.80319  2.80319  0.00000  0.39361
       4     C     3.11355  3.11355  0.00000 -0.22711
       5     O     4.19118  4.19118  0.00000 -0.38236
       6     C     3.10014  3.10014  0.00000 -0.20028
       7     H     0.43704  0.43704  0.00000  0.12593
       8     H     0.43502  0.43502  0.00000  0.12997
       9     C     3.10600  3.10600  0.00000 -0.21200
      10     H     0.44213  0.44213  0.00000  0.11575
      11     H     0.43624  0.43624  0.00000  0.12752
      12     C     3.09814  3.09814  0.00000 -0.19628
      13     H     0.44441  0.44441  0.00000  0.11117
      14     H     0.44943  0.44943  0.00000  0.10114
      15     C     3.15610  3.15610  0.00000 -0.31220
      16     H     0.44896  0.44896  0.00000  0.10209
      17     H     0.44762  0.44762  0.00000  0.10476
      18     H     0.44311  0.44311  0.00000  0.11379
      19     H     0.45406  0.45406  0.00000  0.09188
      20     H     0.45075  0.45075  0.00000  0.09850

   Total alpha = 32.00000, Total beta = 32.00000, Total charge =  0.00000
