  ==> Input File <==

--------------------------------------------------------------------------
set {
	reference rhf
	basis 6-31G*
}

set_num_threads( 1 )
memory 2 gb

molecule MOL {
0 1

H	 3.695475	 0.682963	 -1.275409
N	 2.912131	 0.059041	 -1.250149
C	 1.777844	 0.681672	 -0.582881
H	 3.208616	 -0.757592	 -0.750110
C	 0.558143	 -0.232476	 -0.632044
H	 1.554308	 1.606190	 -1.106482
H	 1.986312	 0.952402	 0.455216
C	 -0.679275	 0.379305	 0.025956
H	 0.351065	 -0.472453	 -1.670969
H	 0.799356	 -1.174379	 -0.140138
C	 -1.903357	 -0.536963	 -0.023547
H	 -0.919110	 1.322161	 -0.463279
H	 -0.457320	 0.623039	 1.063827
C	 -3.225172	 0.228290	 0.028445
H	 -1.867824	 -1.134999	 -0.931459
H	 -1.860449	 -1.239604	 0.805977
H	 -3.313397	 0.915643	 -0.808262
H	 -4.073500	 -0.448134	 -0.008893
H	 -3.306061	 0.809945	 0.942516

	symmetry c1
}
set optking {
	frozen_dihedral = ("
		6 3 5 9,
		12 8 5 9,
		1 2 3 6
	")
}

ee = energy('scf')
oeprop('DIPOLE', 'QUADRUPOLE', 'MULLIKEN_CHARGES')
f=open( 'psi4out.xyz', 'w' )
f.write( "19  " )
f.write( str(ee) + "\n" )
f.write( MOL.save_string_xyz() )
f.close()
--------------------------------------------------------------------------

    Molecular point group: c1

    Geometry (in Angstrom), charge = 0, multiplicity = 1:

       Center              X                  Y                   Z               Mass
    ------------   -----------------  -----------------  -----------------  -----------------
           H          3.754236768049     0.582359357564    -0.866330903972     1.007825032070
           N          2.970892768049    -0.041562642436    -0.841070903972    14.003074004780
           C          1.836605768049     0.581068357564    -0.173802903972    12.000000000000
           H          3.267377768049    -0.858195642436    -0.341031903972     1.007825032070
           C          0.616904768049    -0.333079642436    -0.222965903972    12.000000000000
           H          1.613069768049     1.505586357564    -0.697403903972     1.007825032070
           H          2.045073768049     0.851798357564     0.864294096028     1.007825032070
           C         -0.620513231951     0.278701357564     0.435034096028    12.000000000000
           H          0.409826768049    -0.573056642436    -1.261890903972     1.007825032070
           H          0.858117768049    -1.274982642436     0.268940096028     1.007825032070
           C         -1.844595231951    -0.637566642436     0.385531096028    12.000000000000
           H         -0.860348231951     1.221557357564    -0.054200903972     1.007825032070
           H         -0.398558231951     0.522435357564     1.472905096028     1.007825032070
           C         -3.166410231951     0.127686357564     0.437523096028    12.000000000000
           H         -1.809062231951    -1.235602642436    -0.522380903972     1.007825032070
           H         -1.801687231951    -1.340207642436     1.215055096028     1.007825032070
           H         -3.254635231951     0.815039357564    -0.399183903972     1.007825032070
           H         -4.014738231951    -0.548737642436     0.400185096028     1.007825032070
           H         -3.247299231951     0.709341357564     1.351594096028     1.007825032070

  Charge       = 0
  Multiplicity = 1
  Basis Set: 6-31G*
  Basis Set:

    Orbital Energies (a.u.)
    -----------------------

    Doubly Occupied:

       1A    -15.532437     2A    -11.239536     3A    -11.213242
       4A    -11.212063     5A    -11.209609     6A    -11.207411
       7A     -1.176542     8A     -1.072902     9A     -0.998077
      10A     -0.900129    11A     -0.813300    12A     -0.789076
      13A     -0.665435    14A     -0.638621    15A     -0.617335
      16A     -0.589345    17A     -0.569495    18A     -0.542114
      19A     -0.532310    20A     -0.496895    21A     -0.484653
      22A     -0.463737    23A     -0.458427    24A     -0.449191
      25A     -0.380855

  @DF-RHF Final Energy:  -251.34945812668374

   => Energetics <=

    Nuclear Repulsion Energy =            245.8692309901519764
    One-Electron Energy =                -825.9317988462271387
    Two-Electron Energy =                 328.7131097293913058
    DFT Exchange-Correlation Energy =       0.0000000000000000
    Empirical Dispersion Energy =           0.0000000000000000
    PCM Polarization Energy =               0.0000000000000000
    EFP Energy =                            0.0000000000000000
    Total Energy =                       -251.3494581266838281

  Mulliken Charges: (a.u.)
   Center  Symbol    Alpha    Beta     Spin     Total
       1     H     0.33251  0.33251  0.00000  0.33499
       2     N     3.92190  3.92190  0.00000 -0.84379
       3     C     3.06041  3.06041  0.00000 -0.12082
       4     H     0.33538  0.33538  0.00000  0.32924
       5     C     3.15266  3.15266  0.00000 -0.30532
       6     H     0.42081  0.42081  0.00000  0.15838
       7     H     0.43483  0.43483  0.00000  0.13034
       8     C     3.15614  3.15614  0.00000 -0.31229
       9     H     0.41284  0.41284  0.00000  0.17433
      10     H     0.42754  0.42754  0.00000  0.14492
      11     C     3.15180  3.15180  0.00000 -0.30360
      12     H     0.42307  0.42307  0.00000  0.15386
      13     H     0.42336  0.42336  0.00000  0.15328
      14     C     3.23982  3.23982  0.00000 -0.47964
      15     H     0.42117  0.42117  0.00000  0.15766
      16     H     0.42223  0.42223  0.00000  0.15553
      17     H     0.42140  0.42140  0.00000  0.15721
      18     H     0.41994  0.41994  0.00000  0.16012
      19     H     0.42220  0.42220  0.00000  0.15560

   Total alpha = 25.00000, Total beta = 25.00000, Total charge = -0.00000
