                              Psi4 1.0.54 Driver

  ==> Input File <==

--------------------------------------------------------------------------
set {
	reference rhf
	basis cc-pvtz
}

set_num_threads( 4 )
memory 2 gb

molecule MOL {
0 1

H	 1.166964	 -1.062386	 0.758429
O	 1.324748	 -0.612467	 -0.052206
C	 0.706474	 0.636793	 -0.025501
C	 -0.730619	 0.614575	 0.412568
H	 0.765948	 1.030037	 -1.033530
H	 1.256834	 1.328381	 0.609723
C	 -1.443657	 -0.462508	 0.657062
H	 -1.181390	 1.587143	 0.522862
H	 -1.035484	 -1.448477	 0.542030
H	 -2.468095	 -0.390029	 0.969044

	symmetry c1
}
set optking {
	frozen_dihedral = ("
		5 3 2 1
	")
}

ee,wfn = optimize('scf', return_wfn=True)
oeprop( wfn, 'DIPOLE', 'QUADRUPOLE', 'MULLIKEN_CHARGES')
f=open( 'psi4out.xyz', 'w' )
f.write( "10  " )
f.write( str(ee) + "\n" )
f.write( MOL.save_string_xyz() )
f.close()
--------------------------------------------------------------------------

    Molecular point group: c1
  Charge       = 0
  Multiplicity = 1
  Basis Set: CC-PVTZ
  Basis Set:
  @DF-RHF Final Energy:  -191.99838558039340
    Total Energy =                       -191.9983855803932897
    Molecular point group: c1
  Basis Set: CC-PVTZ
  Basis Set:
  Basis Set: CC-PVTZ
  Basis Set:
  @DF-RHF Final Energy:  -191.99844413250628
    Total Energy =                       -191.9984441325063074
  Basis Set: CC-PVTZ
  Basis Set:
  Basis Set: CC-PVTZ
  Basis Set:
  @DF-RHF Final Energy:  -191.99845938652749
    Total Energy =                       -191.9984593865274576
  Basis Set: CC-PVTZ
  Basis Set:
  Charge       = 0
  Multiplicity = 1
  Basis Set: CC-PVTZ
  Basis Set:

    Orbital Energies (a.u.)
    -----------------------

    Doubly Occupied:

       1A    -20.553774     2A    -11.278219     3A    -11.233665
       4A    -11.219857     5A     -1.374631     6A     -1.064353
       7A     -0.934069     8A     -0.774443     9A     -0.689830
      10A     -0.666411    11A     -0.624394    12A     -0.573597
      13A     -0.548054    14A     -0.491679    15A     -0.454858
      16A     -0.371528

  @DF-RHF Final Energy:  -191.99845966790389

   => Energetics <=

    Nuclear Repulsion Energy =            119.6035154873676021
    One-Electron Energy =                -497.4972283807176154
    Two-Electron Energy =                 185.8952532254461119
    DFT Exchange-Correlation Energy =       0.0000000000000000
    Empirical Dispersion Energy =           0.0000000000000000
    PCM Polarization Energy =               0.0000000000000000
    EFP Energy =                            0.0000000000000000
    Total Energy =                       -191.9984596679039157
    Molecular point group: c1
  Basis Set: CC-PVTZ
  Basis Set:

  -Total Gradient:
     Atom            X                  Y                   Z
    ------   -----------------  -----------------  -----------------
       1       -0.001453051127    -0.000733412601    -0.000627850352
       2        0.001493803895     0.000774213665     0.000714072181
       3        0.001259832969     0.000612248218     0.000159871178
       4        0.000024022984    -0.000048677549     0.000058956144
       5       -0.001293626464    -0.000643334721    -0.000296182091
       6       -0.000015928225     0.000000366554     0.000007498938
       7        0.000020031511     0.000036678949     0.000061248355
       8       -0.000009258610     0.000009412486    -0.000020190232
       9       -0.000011875510    -0.000006464906    -0.000021254682
      10       -0.000013951420    -0.000001030098    -0.000036169440

  **** Optimization is complete! (in 4 steps) ****
    Final optimized geometry and variables:
    Molecular point group: c1

    Geometry (in Angstrom), charge = 0, multiplicity = 1:

    H            1.158267507390    -1.058623170888     0.531616792151
    O            1.296631944464    -0.620891228662    -0.289256642981
    C            0.669347705912     0.623569048655    -0.269675245075
    C           -0.763385487073     0.598869705930     0.183297549236
    H            0.705034100745     1.002256847315    -1.284617149673
    H            1.221472281137     1.325520548298     0.351964772003
    C           -1.489067281896    -0.476625639527     0.396968146105
    H           -1.202941760176     1.571373395826     0.330865987977
    H           -1.101264218673    -1.465667705601     0.241350542988
    H           -2.509297037575    -0.401134537483     0.721384604918

  Mulliken Charges: (a.u.)
   Center  Symbol    Alpha    Beta     Spin     Total
       1     H     0.39083  0.39083  0.00000  0.21833
       2     O     4.20026  4.20026  0.00000 -0.40053
       3     C     2.94665  2.94665  0.00000  0.10671
       4     C     3.08407  3.08407  0.00000 -0.16815
       5     H     0.45490  0.45490  0.00000  0.09020
       6     H     0.46909  0.46909  0.00000  0.06181
       7     C     3.17675  3.17675  0.00000 -0.35350
       8     H     0.42294  0.42294  0.00000  0.15413
       9     H     0.42664  0.42664  0.00000  0.14672
      10     H     0.42786  0.42786  0.00000  0.14427

   Total alpha = 16.00000, Total beta = 16.00000, Total charge =  0.00000

*** Psi4 exiting successfully. Buy a developer a beer!
