  ==> Input File <==

--------------------------------------------------------------------------
set {
	reference rhf
	basis cc-pvtz
}

set_num_threads( 4 )
memory 2 gb

molecule MOL {
0 1

O	 -1.553000	 1.293000	 -0.106000
C	 -1.149000	 0.192000	 0.114000
C	 0.258000	 -0.031000	 0.642000
C	 -2.000000	 -1.032000	 -0.144000
C	 1.290000	 0.047000	 -0.494000
H	 0.330000	 -0.993000	 1.141000
H	 0.463000	 0.745000	 1.371000
C	 2.721000	 -0.143000	 0.007000
H	 1.068000	 -0.707000	 -1.245000
H	 1.194000	 1.012000	 -0.982000
H	 3.430000	 -0.078000	 -0.811000
H	 2.847000	 -1.113000	 0.479000
H	 2.983000	 0.618000	 0.736000
H	 -1.461000	 -1.755000	 -0.750000
H	 -2.917000	 -0.748000	 -0.640000
H	 -2.236000	 -1.518000	 0.800000

	symmetry c1
}
ee = optimize('scf')
oeprop('DIPOLE', 'QUADRUPOLE', 'MULLIKEN_CHARGES')
f=open( 'psi4out.xyz', 'w' )
f.write( "16  " )
f.write( str(ee) + "\n" )
f.write( MOL.save_string_xyz() )
f.close()
--------------------------------------------------------------------------

    Molecular point group: c1
  Charge       = 0
  Multiplicity = 1
  Basis Set: CC-PVTZ
  Basis Set:
  @DF-RHF Final Energy:  -270.12933045590665
    Total Energy =                       -270.1293304559066542
    Molecular point group: c1
  Basis Set: CC-PVTZ
  Basis Set:
  Basis Set: CC-PVTZ
  Basis Set:
  @DF-RHF Final Energy:  -270.12931027611995
    Total Energy =                       -270.1293102761200089
  Basis Set: CC-PVTZ
  Basis Set:
  Basis Set: CC-PVTZ
  Basis Set:
  @DF-RHF Final Energy:  -270.12819023923663
    Total Energy =                       -270.1281902392366305
  Basis Set: CC-PVTZ
  Basis Set:
  Basis Set: CC-PVTZ
  Basis Set:
  @DF-RHF Final Energy:  -270.12941946449979
    Total Energy =                       -270.1294194644997901
  Basis Set: CC-PVTZ
  Basis Set:
  Basis Set: CC-PVTZ
  Basis Set:
  @DF-RHF Final Energy:  -270.12850353930617
    Total Energy =                       -270.1285035393058251
  Basis Set: CC-PVTZ
  Basis Set:
  Basis Set: CC-PVTZ
  Basis Set:
  @DF-RHF Final Energy:  -270.12942951445063
    Total Energy =                       -270.1294295144506918
  Basis Set: CC-PVTZ
  Basis Set:
  Basis Set: CC-PVTZ
  Basis Set:
  @DF-RHF Final Energy:  -270.12945233788196
    Total Energy =                       -270.1294523378820145
  Basis Set: CC-PVTZ
  Basis Set:
  Charge       = 0
  Multiplicity = 1
  Basis Set: CC-PVTZ
  Basis Set:

    Orbital Energies (a.u.)
    -----------------------

    Doubly Occupied:

       1A    -20.537390     2A    -11.319863     3A    -11.231427
       4A    -11.228467     5A    -11.227394     6A    -11.217560
       7A     -1.397525     8A     -1.083844     9A     -1.014248
      10A     -0.950523    11A     -0.829546    12A     -0.736608
      13A     -0.661216    14A     -0.651218    15A     -0.613747
      16A     -0.609754    17A     -0.576763    18A     -0.559753
      19A     -0.538009    20A     -0.519719    21A     -0.505017
      22A     -0.484972    23A     -0.474459    24A     -0.400570

  @DF-RHF Final Energy:  -270.12945294436258

   => Energetics <=

    Nuclear Repulsion Energy =            237.5380303874595427
    One-Electron Energy =                -836.5957887429804032
    Two-Electron Energy =                 328.9283054111581350
    DFT Exchange-Correlation Energy =       0.0000000000000000
    Empirical Dispersion Energy =           0.0000000000000000
    PCM Polarization Energy =               0.0000000000000000
    EFP Energy =                            0.0000000000000000
    Total Energy =                       -270.1294529443626971
    Molecular point group: c1
  Basis Set: CC-PVTZ
  Basis Set:

  -Total Gradient:
     Atom            X                  Y                   Z
    ------   -----------------  -----------------  -----------------
       1        0.000017066498     0.000019381093    -0.000034668860
       2       -0.000036192264    -0.000012762424    -0.000022048683
       3        0.000020253873    -0.000006323473    -0.000005968199
       4       -0.000057991997     0.000035242993     0.000087890610
       5        0.000010714260    -0.000021291492     0.000002779344
       6        0.000024720779     0.000012865998    -0.000017431641
       7        0.000000962036     0.000005342023     0.000023682130
       8       -0.000007974878     0.000025119897     0.000007838991
       9       -0.000028055468    -0.000020955376     0.000003580411
      10       -0.000009874721    -0.000012694584     0.000005848564
      11        0.000001870197     0.000017960136     0.000001272706
      12        0.000008850370    -0.000008943050    -0.000016020023
      13        0.000003123604    -0.000011121011     0.000019876827
      14        0.000027331682     0.000002674276    -0.000024656075
      15        0.000008924984    -0.000000149396    -0.000010673788
      16        0.000016271048    -0.000024345606    -0.000021302314

  **** Optimization is complete! (in 8 steps) ****
    Final optimized geometry and variables:
    Molecular point group: c1

    Geometry (in Angstrom), charge = 0, multiplicity = 1:

    O           -1.510770532634     1.240810885961    -0.054933073973
    C           -1.081510424370     0.147521415443     0.122719924737
    C            0.327029183031    -0.064006404019     0.641890270500
    C           -1.903028554787    -1.084121960017    -0.174655706760
    C            1.349459478317    -0.017068058752    -0.500215210669
    H            0.399029230798    -1.014606040740     1.159949829817
    H            0.538020951501     0.726927373322     1.350470583023
    C            2.779781717536    -0.209014940461    -0.009215323443
    H            1.115006898734    -0.782959255689    -1.233891174911
    H            1.259070545395     0.936706793521    -1.006643994829
    H            3.481859953672    -0.160270888631    -0.833072385690
    H            2.903470460271    -1.171535970488     0.475558438675
    H            3.052568386885     0.559583346140     0.705428010417
    H           -1.341891232592    -1.779207155092    -0.789259218102
    H           -2.820449509334    -0.808163830892    -0.671327920849
    H           -2.133314638250    -1.593056509389     0.755830650793

  Mulliken Charges: (a.u.)
   Center  Symbol    Alpha    Beta     Spin     Total
       1     O     4.17700  4.17700  0.00000 -0.35400
       2     C     2.85766  2.85766  0.00000  0.28468
       3     C     3.09825  3.09825  0.00000 -0.19651
       4     C     3.15487  3.15487  0.00000 -0.30975
       5     C     3.09151  3.09151  0.00000 -0.18302
       6     H     0.45015  0.45015  0.00000  0.09969
       7     H     0.43934  0.43934  0.00000  0.12131
       8     C     3.14894  3.14894  0.00000 -0.29788
       9     H     0.45268  0.45268  0.00000  0.09463
      10     H     0.44121  0.44121  0.00000  0.11759
      11     H     0.44616  0.44616  0.00000  0.10769
      12     H     0.45502  0.45502  0.00000  0.08997
      13     H     0.45177  0.45177  0.00000  0.09646
      14     H     0.45096  0.45096  0.00000  0.09808
      15     H     0.43606  0.43606  0.00000  0.12788
      16     H     0.44842  0.44842  0.00000  0.10315

   Total alpha = 24.00000, Total beta = 24.00000, Total charge = -0.00000
