  ==> Input File <==

--------------------------------------------------------------------------
set {
	reference rhf
	basis cc-pvtz
}

set_num_threads( 4 )
memory 2 gb

molecule MOL {
0 1

H	 -3.144994	 -1.202467	 -0.018751
O	 -2.321472	 -0.864941	 -0.318626
C	 -2.021813	 0.336996	 0.342658
C	 -0.669613	 0.837286	 -0.127252
H	 -2.780861	 1.084746	 0.127159
H	 -2.006390	 0.184138	 1.420053
C	 0.490865	 -0.082543	 0.241244
H	 -0.708709	 0.967192	 -1.204587
H	 -0.507562	 1.822272	 0.303070
C	 1.839800	 0.429565	 -0.255472
H	 0.305636	 -1.070211	 -0.165276
H	 0.527397	 -0.195943	 1.322876
C	 1.877415	 1.944385	 -0.427783
H	 2.616002	 0.128099	 0.442619
H	 2.081302	 -0.046165	 -1.202598
H	 1.674435	 2.449053	 0.510847
H	 2.847717	 2.276626	 -0.779116
H	 1.134695	 2.275216	 -1.146367

	symmetry c1
}
set optking {
	frozen_dihedral = ("
		14 10 7 11
	")
}

ee = optimize('scf')
oeprop('DIPOLE', 'QUADRUPOLE', 'MULLIKEN_CHARGES')
f=open( 'psi4out.xyz', 'w' )
f.write( "18  " )
f.write( str(ee) + "\n" )
f.write( MOL.save_string_xyz() )
f.close()
--------------------------------------------------------------------------

    Molecular point group: c1
  Charge       = 0
  Multiplicity = 1
  Basis Set: CC-PVTZ
  Basis Set:
  @DF-RHF Final Energy:  -271.27734463399304
    Total Energy =                       -271.2773446339926409
    Molecular point group: c1
  Basis Set: CC-PVTZ
  Basis Set:
  Basis Set: CC-PVTZ
  Basis Set:
  @DF-RHF Final Energy:  -271.27819489200726
    Total Energy =                       -271.2781948920075479
  Basis Set: CC-PVTZ
  Basis Set:
  Basis Set: CC-PVTZ
  Basis Set:
  @DF-RHF Final Energy:  -271.28007597435931
    Total Energy =                       -271.2800759743593062
  Basis Set: CC-PVTZ
  Basis Set:
  Basis Set: CC-PVTZ
  Basis Set:
  @DF-RHF Final Energy:  -271.28025608094572
    Total Energy =                       -271.2802560809457759
  Basis Set: CC-PVTZ
  Basis Set:
  Basis Set: CC-PVTZ
  Basis Set:
  @DF-RHF Final Energy:  -271.28026788696127
    Total Energy =                       -271.2802678869610418
  Basis Set: CC-PVTZ
  Basis Set:
  Basis Set: CC-PVTZ
  Basis Set:
  @DF-RHF Final Energy:  -271.28027160221211
    Total Energy =                       -271.2802716022119398
  Basis Set: CC-PVTZ
  Basis Set:
  Basis Set: CC-PVTZ
  Basis Set:
  @DF-RHF Final Energy:  -271.28027370423911
    Total Energy =                       -271.2802737042388230
  Basis Set: CC-PVTZ
  Basis Set:
  Charge       = 0
  Multiplicity = 1
  Basis Set: CC-PVTZ
  Basis Set:

    Orbital Energies (a.u.)
    -----------------------

    Doubly Occupied:

       1A    -20.546229     2A    -11.265641     3A    -11.209689
       4A    -11.209533     5A    -11.205211     6A    -11.203024
       7A     -1.364097     8A     -1.074290     9A     -1.006245
      10A     -0.915886    11A     -0.833342    12A     -0.766426
      13A     -0.708846    14A     -0.636650    15A     -0.627348
      16A     -0.602330    17A     -0.565565    18A     -0.551641
      19A     -0.527241    20A     -0.506809    21A     -0.493547
      22A     -0.462460    23A     -0.452619    24A     -0.449632
      25A     -0.428859

  @DF-RHF Final Energy:  -271.28027371289278

   => Energetics <=

    Nuclear Repulsion Energy =            252.3637552310564729
    One-Electron Energy =                -868.0617424901413415
    Two-Electron Energy =                 344.4177135461919761
    DFT Exchange-Correlation Energy =       0.0000000000000000
    Empirical Dispersion Energy =           0.0000000000000000
    PCM Polarization Energy =               0.0000000000000000
    EFP Energy =                            0.0000000000000000
    Total Energy =                       -271.2802737128928356
    Molecular point group: c1
  Basis Set: CC-PVTZ
  Basis Set:

  -Total Gradient:
     Atom            X                  Y                   Z
    ------   -----------------  -----------------  -----------------
       1        0.000000646836     0.000002011813     0.000000829261
       2        0.000017783031    -0.000010642810     0.000009756568
       3       -0.000016648546     0.000009214859    -0.000029776099
       4       -0.000001632984    -0.000001643147     0.000028487241
       5       -0.000001516288     0.000008602599     0.000005528384
       6        0.000007577761    -0.000003074720    -0.000006338942
       7        0.003469979989    -0.002053030767     0.006885344859
       8       -0.000002206089    -0.000004195583     0.000005824446
       9       -0.000005282935    -0.000003032720     0.000001141244
      10        0.000047302211    -0.006099818302    -0.005068924380
      11       -0.002955535420     0.002656685106    -0.005060895599
      12       -0.000003150427     0.000002820794    -0.000002785698
      13        0.000008199233    -0.000003555591     0.000004039151
      14       -0.000571184374     0.005499713623     0.003231584073
      15        0.000004718671     0.000001666335     0.000000916443
      16        0.000008307051     0.000000032011    -0.000002286606
      17       -0.000000696688    -0.000001672227    -0.000003208895
      18       -0.000006661039    -0.000000081278     0.000000764547

  **** Optimization is complete! (in 8 steps) ****
    Final optimized geometry and variables:
    Molecular point group: c1

    Geometry (in Angstrom), charge = 0, multiplicity = 1:

    H           -2.916750356291    -1.717182639349     0.070907694420
    O           -2.113319370375    -1.335259309128    -0.229893159898
    C           -1.869736119506    -0.127423518646     0.443876768178
    C           -0.544173487322     0.445210365430    -0.021797168310
    H           -2.664612215950     0.584745702158     0.237334482324
    H           -1.845258039594    -0.290930598839     1.519632297935
    C            0.651824408068    -0.430716952727     0.358706925679
    H           -0.589832104186     0.566976637445    -1.099788761297
    H           -0.445478700230     1.437682178138     0.404884806704
    C            2.014963601076     0.034011579274    -0.191389155891
    H            0.439393668985    -1.415672661866    -0.036497580845
    H            0.697390964730    -0.508437935570     1.440771646975
    C            2.193075119309     1.545881117687    -0.345221722632
    H            2.785614128788    -0.291966525986     0.499553160716
    H            2.208172746346    -0.442305846307    -1.145946897675
    H            2.027907796145     2.062137376623     0.595075133720
    H            3.203520922614     1.771521882250    -0.667039177611
    H            1.516293644311     1.968094384337    -1.077673126290

  Mulliken Charges: (a.u.)
   Center  Symbol    Alpha    Beta     Spin     Total
       1     H     0.39565  0.39565  0.00000  0.20869
       2     O     4.19893  4.19893  0.00000 -0.39787
       3     C     2.97400  2.97400  0.00000  0.05199
       4     C     3.09443  3.09443  0.00000 -0.18887
       5     H     0.46503  0.46503  0.00000  0.06995
       6     H     0.47377  0.47377  0.00000  0.05246
       7     C     3.09617  3.09617  0.00000 -0.19233
       8     H     0.45101  0.45101  0.00000  0.09799
       9     H     0.45133  0.45133  0.00000  0.09734
      10     C     3.08840  3.08840  0.00000 -0.17679
      11     H     0.44184  0.44184  0.00000  0.11633
      12     H     0.45611  0.45611  0.00000  0.08777
      13     C     3.15788  3.15788  0.00000 -0.31576
      14     H     0.45217  0.45217  0.00000  0.09565
      15     H     0.45053  0.45053  0.00000  0.09894
      16     H     0.45498  0.45498  0.00000  0.09004
      17     H     0.44556  0.44556  0.00000  0.10889
      18     H     0.45221  0.45221  0.00000  0.09558

   Total alpha = 25.00000, Total beta = 25.00000, Total charge = -0.00000
