                              Psi4 1.0.54 Driver

  ==> Input File <==

--------------------------------------------------------------------------
set {
	reference rhf
	basis cc-pvtz
}

set_num_threads( 4 )
memory 2 gb

molecule MOL {
0 1

H	 2.547388	 0.257503	 1.930666
O	 1.852582	 0.797901	 1.603146
C	 1.135873	 0.113391	 0.608264
C	 0.027642	 1.012027	 0.090274
H	 0.695979	 -0.793552	 1.015343
H	 1.798196	 -0.182208	 -0.200693
C	 -1.138737	 0.285728	 -0.581921
H	 0.464661	 1.708096	 -0.618252
H	 -0.340737	 1.603071	 0.925246
C	 -1.933983	 -0.631436	 0.343653
H	 -0.763151	 -0.285569	 -1.422081
H	 -1.808359	 1.035291	 -0.992333
H	 -2.789188	 -1.049673	 -0.174718
H	 -1.335629	 -1.461368	 0.700418
H	 -2.305435	 -0.092167	 1.209725

	symmetry c1
}
set optking {
	frozen_dihedral = ("
		2 3 4 8
	")
}

ee,wfn = optimize('scf', return_wfn=True)
oeprop( wfn, 'DIPOLE', 'QUADRUPOLE', 'MULLIKEN_CHARGES')
f=open( 'psi4out.xyz', 'w' )
f.write( "15  " )
f.write( str(ee) + "\n" )
f.write( MOL.save_string_xyz() )
f.close()
--------------------------------------------------------------------------

    Molecular point group: c1
  Charge       = 0
  Multiplicity = 1
  Basis Set: CC-PVTZ
  Basis Set:
  @DF-RHF Final Energy:  -232.23483032258412
    Total Energy =                       -232.2348303225841732
    Molecular point group: c1
  Basis Set: CC-PVTZ
  Basis Set:
  Basis Set: CC-PVTZ
  Basis Set:
  @DF-RHF Final Energy:  -232.23515839006913
    Total Energy =                       -232.2351583900691594
  Basis Set: CC-PVTZ
  Basis Set:
  Basis Set: CC-PVTZ
  Basis Set:
  @DF-RHF Final Energy:  -232.23552241247373
    Total Energy =                       -232.2355224124736424
  Basis Set: CC-PVTZ
  Basis Set:
  Basis Set: CC-PVTZ
  Basis Set:
  @DF-RHF Final Energy:  -232.23553405760848
    Total Energy =                       -232.2355340576084473
  Basis Set: CC-PVTZ
  Basis Set:
  Basis Set: CC-PVTZ
  Basis Set:
  @DF-RHF Final Energy:  -232.23555827496202
    Total Energy =                       -232.2355582749619316
  Basis Set: CC-PVTZ
  Basis Set:
  Charge       = 0
  Multiplicity = 1
  Basis Set: CC-PVTZ
  Basis Set:

    Orbital Energies (a.u.)
    -----------------------

    Doubly Occupied:

       1A    -20.545385     2A    -11.264969     3A    -11.216375
       4A    -11.209789     5A    -11.207383     6A     -1.362907
       7A     -1.070001     8A     -0.971644     9A     -0.868093
      10A     -0.786508    11A     -0.698015    12A     -0.653322
      13A     -0.620376    14A     -0.577754    15A     -0.557493
      16A     -0.544283    17A     -0.504195    18A     -0.476426
      19A     -0.472815    20A     -0.458475    21A     -0.434014

  @DF-RHF Final Energy:  -232.23555881320945

   => Energetics <=

    Nuclear Repulsion Energy =            188.3982494164515344
    One-Electron Energy =                -688.2671740787199042
    Two-Electron Energy =                 267.6333658490590892
    DFT Exchange-Correlation Energy =       0.0000000000000000
    Empirical Dispersion Energy =           0.0000000000000000
    PCM Polarization Energy =               0.0000000000000000
    EFP Energy =                            0.0000000000000000
    Total Energy =                       -232.2355588132092521
    Molecular point group: c1
  Basis Set: CC-PVTZ
  Basis Set:

  -Total Gradient:
     Atom            X                  Y                   Z
    ------   -----------------  -----------------  -----------------
       1       -0.000017128099    -0.000005077718    -0.000019687058
       2       -0.001680471244    -0.001187515173     0.001964344007
       3        0.002007526636     0.001025013712    -0.003183812570
       4        0.000314884974     0.002420905969     0.004086080234
       5       -0.000010704598    -0.000016710736     0.000010988271
       6       -0.000009615523     0.000011748089     0.000002544782
       7       -0.000028389097    -0.000011363413     0.000025695254
       8       -0.000628562175    -0.002215103242    -0.002857415870
       9        0.000010977903    -0.000006901753     0.000004944387
      10        0.000020595398     0.000002694132    -0.000026411762
      11       -0.000002175528    -0.000016919131     0.000003587380
      12       -0.000007218381    -0.000001333756    -0.000013154149
      13        0.000009371522     0.000017549339     0.000016698288
      14       -0.000002754493     0.000002247294     0.000007244220
      15        0.000023662710    -0.000019233610    -0.000021645413

  **** Optimization is complete! (in 6 steps) ****
    Final optimized geometry and variables:
    Molecular point group: c1

    Geometry (in Angstrom), charge = 0, multiplicity = 1:

    H            2.588312980688    -0.030248854158     1.391579925862
    O            1.831073983274     0.470179514738     1.149836357891
    C            1.125307735011    -0.185583108742     0.128370096364
    C           -0.028868150844     0.702339181169    -0.311273825551
    H            0.752246154149    -1.137879257588     0.494014569969
    H            1.774639885513    -0.394340712295    -0.718352400062
    C           -1.144555323626    -0.057611363818    -1.035255270799
    H            0.356657709202     1.461145163891    -0.983316938812
    H           -0.425968047737     1.207726983541     0.561453769470
    C           -2.036137453989    -0.896519246804    -0.122499111639
    H           -0.711206082512    -0.692623895744    -1.804560942888
    H           -1.766263648642     0.661076676058    -1.558636311039
    H           -2.814108819373    -1.391132930027    -0.692815598144
    H           -1.479646379088    -1.664331367949     0.401571742688
    H           -2.518290936577    -0.273738208574     0.623311226069

  Mulliken Charges: (a.u.)
   Center  Symbol    Alpha    Beta     Spin     Total
       1     H     0.39615  0.39615  0.00000  0.20770
       2     O     4.19643  4.19643  0.00000 -0.39285
       3     C     2.96190  2.96190  0.00000  0.07620
       4     C     3.08971  3.08971  0.00000 -0.17941
       5     H     0.47600  0.47600  0.00000  0.04800
       6     H     0.47251  0.47251  0.00000  0.05498
       7     C     3.09899  3.09899  0.00000 -0.19798
       8     H     0.45024  0.45024  0.00000  0.09951
       9     H     0.44935  0.44935  0.00000  0.10130
      10     C     3.14747  3.14747  0.00000 -0.29494
      11     H     0.45633  0.45633  0.00000  0.08733
      12     H     0.44741  0.44741  0.00000  0.10518
      13     H     0.44800  0.44800  0.00000  0.10400
      14     H     0.45608  0.45608  0.00000  0.08784
      15     H     0.45343  0.45343  0.00000  0.09314

   Total alpha = 21.00000, Total beta = 21.00000, Total charge =  0.00000

*** Psi4 exiting successfully. Buy a developer a beer!
