  ==> Input File <==

--------------------------------------------------------------------------
set {
	reference rhf
	basis 6-31G*
}

set_num_threads( 1 )
memory 2 gb

molecule MOL {
0 1

H	 -4.253242	 0.337035	 0.442448
O	 -3.533260	 -0.224762	 0.193622
C	 -2.315719	 0.429551	 0.442739
C	 -1.185889	 -0.498675	 0.033315
H	 -2.257834	 1.359136	 -0.121910
H	 -2.225958	 0.683080	 1.498204
C	 0.198102	 0.111031	 0.262842
H	 -1.314347	 -0.751618	 -1.015612
H	 -1.285026	 -1.425129	 0.592181
C	 1.331804	 -0.827780	 -0.158768
H	 0.270887	 1.048133	 -0.283707
H	 0.315312	 0.360429	 1.316683
C	 2.723619	 -0.410569	 0.329459
H	 1.342964	 -0.912588	 -1.244120
H	 1.116806	 -1.824343	 0.220779
C	 3.243875	 0.895854	 -0.272975
H	 3.424222	 -1.207124	 0.091250
H	 2.714788	 -0.329854	 1.414619
H	 3.251977	 0.848779	 -1.358681
H	 2.637085	 1.747371	 0.016682
H	 4.259473	 1.094070	 0.055697

	symmetry c1
}
set optking {
	frozen_dihedral = ("
		2 3 4 8,
		8 4 7 10,
		16 13 10 14,
		1 2 3 5
	")
}

ee = energy('scf')
oeprop('DIPOLE', 'QUADRUPOLE', 'MULLIKEN_CHARGES')
f=open( 'psi4out.xyz', 'w' )
f.write( "21  " )
f.write( str(ee) + "\n" )
f.write( MOL.save_string_xyz() )
f.close()
--------------------------------------------------------------------------

    Molecular point group: c1

    Geometry (in Angstrom), charge = 0, multiplicity = 1:

       Center              X                  Y                   Z               Mass
    ------------   -----------------  -----------------  -----------------  -----------------
           H         -4.248296051656     0.397430877277     0.321262935111     1.007825032070
           O         -3.528314051656    -0.164366122723     0.072436935111    15.994914619560
           C         -2.310773051656     0.489946877277     0.321553935111    12.000000000000
           C         -1.180943051656    -0.438279122723    -0.087870064889    12.000000000000
           H         -2.252888051656     1.419531877277    -0.243095064889     1.007825032070
           H         -2.221012051656     0.743475877277     1.377018935111     1.007825032070
           C          0.203047948344     0.171426877277     0.141656935111    12.000000000000
           H         -1.309401051656    -0.691222122723    -1.136797064889     1.007825032070
           H         -1.280080051656    -1.364733122723     0.470995935111     1.007825032070
           C          1.336749948344    -0.767384122723    -0.279953064889    12.000000000000
           H          0.275832948344     1.108528877277    -0.404892064889     1.007825032070
           H          0.320257948344     0.420824877277     1.195497935111     1.007825032070
           C          2.728564948344    -0.350173122723     0.208273935111    12.000000000000
           H          1.347909948344    -0.852192122723    -1.365305064889     1.007825032070
           H          1.121751948344    -1.763947122723     0.099593935111     1.007825032070
           C          3.248820948344     0.956249877277    -0.394160064889    12.000000000000
           H          3.429167948344    -1.146728122723    -0.029935064889     1.007825032070
           H          2.719733948344    -0.269458122723     1.293433935111     1.007825032070
           H          3.256922948344     0.909174877277    -1.479866064889     1.007825032070
           H          2.642030948344     1.807766877277    -0.104503064889     1.007825032070
           H          4.264418948344     1.154465877277    -0.065488064889     1.007825032070

  Charge       = 0
  Multiplicity = 1
  Basis Set: 6-31G*
  Basis Set:

    Orbital Energies (a.u.)
    -----------------------

    Doubly Occupied:

       1A    -20.551855     2A    -11.267041     3A    -11.215668
       4A    -11.215123     5A    -11.213434     6A    -11.210764
       7A    -11.208214     8A     -1.358681     9A     -1.086250
      10A     -1.033220    11A     -0.954403    12A     -0.875495
      13A     -0.807526    14A     -0.778986    15A     -0.692429
      16A     -0.661252    17A     -0.623250    18A     -0.605312
      19A     -0.586711    20A     -0.570489    21A     -0.535548
      22A     -0.519294    23A     -0.512128    24A     -0.486806
      25A     -0.479611    26A     -0.459869    27A     -0.456133
      28A     -0.443090    29A     -0.434023

  @DF-RHF Final Energy:  -310.21251903109237

   => Energetics <=

    Nuclear Repulsion Energy =            312.3201651358567688
    One-Electron Energy =               -1039.3802395856071143
    Two-Electron Energy =                 416.8475554186593399
    DFT Exchange-Correlation Energy =       0.0000000000000000
    Empirical Dispersion Energy =           0.0000000000000000
    PCM Polarization Energy =               0.0000000000000000
    EFP Energy =                            0.0000000000000000
    Total Energy =                       -310.2125190310910057

  Mulliken Charges: (a.u.)
   Center  Symbol    Alpha    Beta     Spin     Total
       1     H     0.28117  0.28117  0.00000  0.43765
       2     O     4.37178  4.37178  0.00000 -0.74357
       3     C     2.98979  2.98979  0.00000  0.02042
       4     C     3.15936  3.15936  0.00000 -0.31871
       5     H     0.43294  0.43294  0.00000  0.13412
       6     H     0.43285  0.43285  0.00000  0.13430
       7     C     3.16173  3.16173  0.00000 -0.32346
       8     H     0.41475  0.41475  0.00000  0.17051
       9     H     0.41471  0.41471  0.00000  0.17058
      10     C     3.15200  3.15200  0.00000 -0.30399
      11     H     0.42144  0.42144  0.00000  0.15712
      12     H     0.42413  0.42413  0.00000  0.15174
      13     C     3.15268  3.15268  0.00000 -0.30535
      14     H     0.42270  0.42270  0.00000  0.15460
      15     H     0.42076  0.42076  0.00000  0.15847
      16     C     3.24109  3.24109  0.00000 -0.48218
      17     H     0.42080  0.42080  0.00000  0.15839
      18     H     0.42342  0.42342  0.00000  0.15315
      19     H     0.42206  0.42206  0.00000  0.15587
      20     H     0.42050  0.42050  0.00000  0.15901
      21     H     0.41934  0.41934  0.00000  0.16132

   Total alpha = 29.00000, Total beta = 29.00000, Total charge =  0.00000
