                              Psi4 1.0.54 Driver

  ==> Input File <==

--------------------------------------------------------------------------
set {
	reference rhf
	basis cc-pvtz
}

set_num_threads( 4 )
memory 2 gb

molecule MOL {
0 1

H	 1.517500	 -1.899257	 -0.897247
C	 0.611213	 -1.346908	 -1.079964
O	 0.462329	 -0.453336	 -0.000137
H	 -0.221371	 -2.037019	 -1.132583
H	 0.702774	 -0.813473	 -2.017676
C	 -0.590565	 0.341382	 0.000062
O	 -1.693898	 -0.053880	 0.000252
H	 -0.340426	 1.403822	 0.000200

	symmetry c1
}
set optking {
	frozen_dihedral = ("
		2 3 6 7
	")
}

ee,wfn = optimize('scf', return_wfn=True)
oeprop( wfn, 'DIPOLE', 'QUADRUPOLE', 'MULLIKEN_CHARGES')
f=open( 'psi4out.xyz', 'w' )
f.write( "8  " )
f.write( str(ee) + "\n" )
f.write( MOL.save_string_xyz() )
f.close()
--------------------------------------------------------------------------

    Molecular point group: c1
  Charge       = 0
  Multiplicity = 1
  Basis Set: CC-PVTZ
  Basis Set:
  @DF-RHF Final Energy:  -227.86328022531981
    Total Energy =                       -227.8632802253198406
    Molecular point group: c1
  Basis Set: CC-PVTZ
  Basis Set:
  Basis Set: CC-PVTZ
  Basis Set:
  @DF-RHF Final Energy:  -227.85717571012549
    Total Energy =                       -227.8571757101254889
  Basis Set: CC-PVTZ
  Basis Set:
  Basis Set: CC-PVTZ
  Basis Set:
  @DF-RHF Final Energy:  -227.86296680072780
    Total Energy =                       -227.8629668007278326
  Basis Set: CC-PVTZ
  Basis Set:
  Basis Set: CC-PVTZ
  Basis Set:
  @DF-RHF Final Energy:  -227.86426932917078
    Total Energy =                       -227.8642693291707246
  Basis Set: CC-PVTZ
  Basis Set:
  Basis Set: CC-PVTZ
  Basis Set:
  @DF-RHF Final Energy:  -227.86429029532832
    Total Energy =                       -227.8642902953283738
  Basis Set: CC-PVTZ
  Basis Set:
  Basis Set: CC-PVTZ
  Basis Set:
  @DF-RHF Final Energy:  -227.86430798261921
    Total Energy =                       -227.8643079826192093
  Basis Set: CC-PVTZ
  Basis Set:
  Charge       = 0
  Multiplicity = 1
  Basis Set: CC-PVTZ
  Basis Set:

    Orbital Energies (a.u.)
    -----------------------

    Doubly Occupied:

       1A    -20.594280     2A    -20.558354     3A    -11.375198
       4A    -11.292533     5A     -1.473996     6A     -1.382288
       7A     -0.991306     8A     -0.826622     9A     -0.742632
      10A     -0.688415    11A     -0.671682    12A     -0.620636
      13A     -0.562520    14A     -0.521668    15A     -0.473351
      16A     -0.458329

  @DF-RHF Final Energy:  -227.86430837293770

   => Energetics <=

    Nuclear Repulsion Energy =            122.6405749332435278
    One-Electron Energy =                -554.5421484412572681
    Two-Electron Energy =                 204.0372651350760975
    DFT Exchange-Correlation Energy =       0.0000000000000000
    Empirical Dispersion Energy =           0.0000000000000000
    PCM Polarization Energy =               0.0000000000000000
    EFP Energy =                            0.0000000000000000
    Total Energy =                       -227.8643083729376144
    Molecular point group: c1
  Basis Set: CC-PVTZ
  Basis Set:

  -Total Gradient:
     Atom            X                  Y                   Z
    ------   -----------------  -----------------  -----------------
       1        0.000000571852    -0.000002741847    -0.000030193352
       2        0.003536659554     0.004808441495    -0.003310299368
       3       -0.005336486482    -0.007409025032     0.009507301024
       4        0.000002063290     0.000025268439    -0.000001656147
       5       -0.000018522131     0.000032240778     0.000034970985
       6        0.001926281555     0.002719476727    -0.015218422951
       7       -0.000094131782    -0.000152601984     0.009008940717
       8       -0.000016435861    -0.000021058577     0.000009359094

  **** Optimization is complete! (in 7 steps) ****
    Final optimized geometry and variables:
    Molecular point group: c1

    Geometry (in Angstrom), charge = 0, multiplicity = 1:

    H            1.819846068755    -1.528649007188    -0.565476700187
    C            0.959931272210    -0.924653253406    -0.802827377584
    O            0.763542132333    -0.052840677728     0.296255073217
    H            0.096757004076    -1.556623314570    -0.951615009248
    H            1.157657411434    -0.352488093045    -1.700444458840
    C           -0.324927944316     0.713326052510     0.291082118362
    O           -1.428924034787     0.316816563367     0.264488767862
    H           -0.075042675385     1.764508324399     0.411387619814

  Mulliken Charges: (a.u.)
   Center  Symbol    Alpha    Beta     Spin     Total
       1     H     0.44578  0.44578  0.00000  0.10845
       2     C     3.02460  3.02460  0.00000 -0.04920
       3     O     4.15397  4.15397  0.00000 -0.30795
       4     H     0.44968  0.44968  0.00000  0.10064
       5     H     0.46271  0.46271  0.00000  0.07457
       6     C     2.83052  2.83052  0.00000  0.33895
       7     O     4.17333  4.17333  0.00000 -0.34666
       8     H     0.45940  0.45940  0.00000  0.08119

   Total alpha = 16.00000, Total beta = 16.00000, Total charge = -0.00000

*** Psi4 exiting successfully. Buy a developer a beer!
