  ==> Input File <==

--------------------------------------------------------------------------
set {
	reference rhf
	basis 6-31G*
}

set_num_threads( 4 )
memory 2 gb

molecule MOL {
0 1

H	 -2.010978	 2.265007	 -2.228037
C	 -1.034584	 2.597045	 -1.853834
C	 -0.868277	 2.526890	 -0.357161
O	 -0.201970	 2.976288	 -2.611910
C	 -1.220012	 1.144545	 0.209990
H	 0.148512	 2.811257	 -0.112242
H	 -1.536306	 3.271460	 0.074124
C	 -0.252658	 0.041456	 -0.226725
H	 -1.227597	 1.209349	 1.293976
H	 -2.234663	 0.880781	 -0.084406
C	 1.180775	 0.282413	 0.250794
H	 -0.266029	 -0.034465	 -1.312038
H	 -0.597733	 -0.921000	 0.146291
C	 2.148627	 -0.814315	 -0.201312
H	 1.516199	 1.249228	 -0.115937
H	 1.192670	 0.346017	 1.338083
C	 3.580890	 -0.659131	 0.322722
H	 2.166869	 -0.852443	 -1.289387
H	 1.762857	 -1.776509	 0.128956
C	 4.324889	 0.564933	 -0.213704
H	 4.142010	 -1.551473	 0.056605
H	 3.564836	 -0.624694	 1.410140
H	 4.342616	 0.565491	 -1.300421
H	 3.866655	 1.493402	 0.110242
H	 5.353900	 0.572371	 0.132816

	symmetry c1
}
set optking {
	frozen_dihedral = ("
		3 5 8 12
	")
}

ee = optimize('scf')
oeprop('DIPOLE', 'QUADRUPOLE', 'MULLIKEN_CHARGES')
f=open( 'psi4out.xyz', 'w' )
f.write( "25  " )
f.write( str(ee) + "\n" )
f.write( MOL.save_string_xyz() )
f.close()
--------------------------------------------------------------------------

    Molecular point group: c1
  Charge       = 0
  Multiplicity = 1
  Basis Set: 6-31G*
  Basis Set:
  @DF-RHF Final Energy:  -387.11968916612449
    Total Energy =                       -387.1196891661248856
    Molecular point group: c1
  Basis Set: 6-31G*
  Basis Set:
  Basis Set: 6-31G*
  Basis Set:
  @DF-RHF Final Energy:  -387.12015395492131
    Total Energy =                       -387.1201539549211930
  Basis Set: 6-31G*
  Basis Set:
  Basis Set: 6-31G*
  Basis Set:
  @DF-RHF Final Energy:  -387.12046273598372
    Total Energy =                       -387.1204627359843471
  Basis Set: 6-31G*
  Basis Set:
  Basis Set: 6-31G*
  Basis Set:
  @DF-RHF Final Energy:  -387.12053373155561
    Total Energy =                       -387.1205337315560655
  Basis Set: 6-31G*
  Basis Set:
  @DF-RHF Final Energy:  -387.12065304954041
    Total Energy =                       -387.1206530495410334
  Basis Set: 6-31G*
  Basis Set:
  @DF-RHF Final Energy:  -387.12065596096710
    Total Energy =                       -387.1206559609679516
  Basis Set: 6-31G*
  Basis Set:
  Basis Set: 6-31G*
  Basis Set:
  @DF-RHF Final Energy:  -387.12065742860881
    Total Energy =                       -387.1206574286082969
  Basis Set: 6-31G*
  Basis Set:
  Basis Set: 6-31G*
  Basis Set:
  @DF-RHF Final Energy:  -387.12066810532764
    Total Energy =                       -387.1206681053274679
  Basis Set: 6-31G*
  Basis Set:
  Charge       = 0
  Multiplicity = 1
  Basis Set: 6-31G*
  Basis Set:

    Orbital Energies (a.u.)
    -----------------------

    Doubly Occupied:

       1A    -20.562658     2A    -11.326458     3A    -11.235711
       4A    -11.234189     5A    -11.223633     6A    -11.216454
       7A    -11.215142     8A    -11.214425     9A    -11.206166
      10A     -1.402326    11A     -1.102744    12A     -1.066540
      13A     -1.009124    14A     -0.942513    15A     -0.877530
      16A     -0.820913    17A     -0.785816    18A     -0.772887
      19A     -0.666158    20A     -0.656235    21A     -0.639270
      22A     -0.614814    23A     -0.608854    24A     -0.595038
      25A     -0.566978    26A     -0.546514    27A     -0.539890
      28A     -0.518827    29A     -0.515720    30A     -0.498032
      31A     -0.480748    32A     -0.475769    33A     -0.461565
      34A     -0.453123    35A     -0.441847    36A     -0.409526

  @DF-RHF Final Energy:  -387.12066902943423

   => Energetics <=

    Nuclear Repulsion Energy =            451.9883921939057245
    One-Electron Energy =               -1420.4098482902811611
    Two-Electron Energy =                 581.3007870669410977
    DFT Exchange-Correlation Energy =       0.0000000000000000
    Empirical Dispersion Energy =           0.0000000000000000
    PCM Polarization Energy =               0.0000000000000000
    EFP Energy =                            0.0000000000000000
    Total Energy =                       -387.1206690294343389
    Molecular point group: c1
  Basis Set: 6-31G*
  Basis Set:

  -Total Gradient:
     Atom            X                  Y                   Z
    ------   -----------------  -----------------  -----------------
       1        0.000008420545    -0.000015906596     0.000000328964
       2       -0.000004407022     0.000025919096    -0.000010110823
       3       -0.000051506220    -0.000134672221    -0.000072723727
       4       -0.000008173945     0.000018746330     0.000003599952
       5        0.000086944490     0.000093401058     0.000097518165
       6        0.000008796982     0.000010874633     0.000001696997
       7       -0.000005504661     0.000032318598    -0.000000291851
       8       -0.000120598509    -0.000105857601    -0.000017739343
       9        0.000014602570    -0.000004295923    -0.000001683971
      10        0.000012123135    -0.000008672683    -0.000001722301
      11        0.000007746951     0.000016917892     0.000007077577
      12        0.000090732961     0.000093804844    -0.000011392866
      13       -0.000005721652     0.000003815987     0.000006321123
      14       -0.000020740323    -0.000028093190     0.000020971029
      15        0.000040440753     0.000023333094    -0.000001842001
      16       -0.000021881312    -0.000002204110    -0.000003305456
      17        0.000017049657    -0.000019701061    -0.000045806862
      18        0.000004702420    -0.000016648492     0.000009921582
      19       -0.000003801677    -0.000000152976     0.000012798359
      20       -0.000021320198     0.000005080015     0.000013269224
      21        0.000011571756     0.000003246675    -0.000011178621
      22       -0.000002610946    -0.000011667053    -0.000006795744
      23       -0.000000564770    -0.000008182322     0.000009809096
      24       -0.000036516466     0.000022547400    -0.000005048347
      25        0.000000215484     0.000006048598     0.000006329842

  **** Optimization is complete! (in 9 steps) ****
    Final optimized geometry and variables:
    Molecular point group: c1

    Geometry (in Angstrom), charge = 0, multiplicity = 1:

    H           -2.856297621213     1.293727478304    -1.745362603220
    C           -1.919312576976     1.650994515168    -1.300702817790
    C           -1.852229567994     1.569977593203     0.202392293166
    O           -1.047315109927     2.062198312493    -1.996002680936
    C           -2.105596502651     0.145029969038     0.720916765103
    H           -0.893383976106     1.956515069040     0.522865299256
    H           -2.623674109580     2.228421629540     0.599059883932
    C           -1.089847044253    -0.906883472664     0.256615603863
    H           -2.122113914020     0.175400346924     1.806638548184
    H           -3.101136578594    -0.167758693630     0.412669493943
    C            0.343899772855    -0.666856497335     0.737694476184
    H           -1.094699398513    -0.970149694784    -0.830116883541
    H           -1.426179204332    -1.876981002245     0.614976056712
    C            1.286270216421    -1.812084254601     0.356325434189
    H            0.715127729970     0.264137356974     0.322169992664
    H            0.344478995661    -0.547452788902     1.820660473806
    C            2.721015209671    -1.657694755278     0.873815880372
    H            1.306108406748    -1.914853074305    -0.727362998546
    H            0.878184981313    -2.743901730938     0.742766321252
    C            3.492725415539    -0.483907439563     0.268047287955
    H            3.262387667499    -2.576681207308     0.662853623288
    H            2.703486253563    -1.558935539443     1.957462256603
    H            3.516404779890    -0.550497060917    -0.816146566934
    H            3.052025184353     0.472125776842     0.529976995143
    H            4.519536793758    -0.475991231508     0.620709150654

  Mulliken Charges: (a.u.)
   Center  Symbol    Alpha    Beta     Spin     Total
       1     H     0.43209  0.43209  0.00000  0.13583
       2     C     2.83080  2.83080  0.00000  0.33840
       3     C     3.21011  3.21011  0.00000 -0.42022
       4     O     4.23861  4.23861  0.00000 -0.47722
       5     C     3.16648  3.16648  0.00000 -0.33296
       6     H     0.39835  0.39835  0.00000  0.20331
       7     H     0.40746  0.40746  0.00000  0.18507
       8     C     3.15727  3.15727  0.00000 -0.31454
       9     H     0.41279  0.41279  0.00000  0.17443
      10     H     0.41783  0.41783  0.00000  0.16435
      11     C     3.15732  3.15732  0.00000 -0.31465
      12     H     0.41888  0.41888  0.00000  0.16225
      13     H     0.41844  0.41844  0.00000  0.16312
      14     C     3.15280  3.15280  0.00000 -0.30560
      15     H     0.41289  0.41289  0.00000  0.17422
      16     H     0.42509  0.42509  0.00000  0.14983
      17     C     3.15260  3.15260  0.00000 -0.30519
      18     H     0.42168  0.42168  0.00000  0.15664
      19     H     0.42315  0.42315  0.00000  0.15371
      20     C     3.24141  3.24141  0.00000 -0.48282
      21     H     0.42083  0.42083  0.00000  0.15834
      22     H     0.42406  0.42406  0.00000  0.15187
      23     H     0.42014  0.42014  0.00000  0.15972
      24     H     0.41940  0.41940  0.00000  0.16120
      25     H     0.41954  0.41954  0.00000  0.16092

   Total alpha = 36.00000, Total beta = 36.00000, Total charge = -0.00000
