  ==> Input File <==

--------------------------------------------------------------------------
set {
	reference rhf
	basis cc-pvtz
}

set_num_threads( 4 )
memory 2 gb

molecule MOL {
0 1

H	 -3.034039	 -0.667848	 0.004703
O	 -2.240597	 -1.171748	 0.000934
C	 -1.159675	 -0.364500	 0.000370
C	 0.035604	 -0.728390	 -0.585554
C	 -1.288053	 0.868655	 0.620775
H	 0.137929	 -1.684652	 -1.065295
C	 1.100984	 0.154419	 -0.542649
H	 -2.229994	 1.119940	 1.068591
C	 -0.225369	 1.748710	 0.660556
H	 2.033460	 -0.126359	 -0.994781
C	 0.980353	 1.380171	 0.071996
C	 -0.372118	 3.099454	 1.314467
H	 1.817291	 2.051949	 0.098648
H	 0.495322	 3.335251	 1.918428
H	 -1.246851	 3.137048	 1.949428
H	 -0.470699	 3.877779	 0.565377

	symmetry c1
}
set optking {
	frozen_dihedral = ("
		5 3 2 1
	")
}

ee = optimize('scf')
oeprop('DIPOLE', 'QUADRUPOLE', 'MULLIKEN_CHARGES')
f=open( 'psi4out.xyz', 'w' )
f.write( "16  " )
f.write( str(ee) + "\n" )
f.write( MOL.save_string_xyz() )
f.close()
--------------------------------------------------------------------------

    Molecular point group: c1
  Charge       = 0
  Multiplicity = 1
  Basis Set: CC-PVTZ
  Basis Set:
  @DF-RHF Final Energy:  -344.71774159127369
    Total Energy =                       -344.7177415912735796
    Molecular point group: c1
  Basis Set: CC-PVTZ
  Basis Set:
  Basis Set: CC-PVTZ
  Basis Set:
  @DF-RHF Final Energy:  -344.71937523090384
    Total Energy =                       -344.7193752309036654
  Basis Set: CC-PVTZ
  Basis Set:
  Basis Set: CC-PVTZ
  Basis Set:
  @DF-RHF Final Energy:  -344.71949966513438
    Total Energy =                       -344.7194996651347196
  Basis Set: CC-PVTZ
  Basis Set:
  Basis Set: CC-PVTZ
  Basis Set:
  @DF-RHF Final Energy:  -344.71951525351238
    Total Energy =                       -344.7195152535127249
  Basis Set: CC-PVTZ
  Basis Set:
  @DF-RHF Final Energy:  -344.71952114915922
    Total Energy =                       -344.7195211491590499
  @DF-RHF Final Energy:  -344.71952389950837
    Total Energy =                       -344.7195238995083173
  @DF-RHF Final Energy:  -344.71953201268565
    Total Energy =                       -344.7195320126863862
  @DF-RHF Final Energy:  -344.71955296597804
    Total Energy =                       -344.7195529659778686
  @DF-RHF Final Energy:  -344.71957545458326
    Total Energy =                       -344.7195754545831505
  Basis Set: CC-PVTZ
  Basis Set:
  @DF-RHF Final Energy:  -344.71959430404206
    Total Energy =                       -344.7195943040422890
  Basis Set: CC-PVTZ
  Basis Set:
  Basis Set: CC-PVTZ
  Basis Set:
  @DF-RHF Final Energy:  -344.71959846472697
    Total Energy =                       -344.7195984647267437
  Basis Set: CC-PVTZ
  Basis Set:
  Basis Set: CC-PVTZ
  Basis Set:
  @DF-RHF Final Energy:  -344.71959971997597
    Total Energy =                       -344.7195997199760313
  Basis Set: CC-PVTZ
  Basis Set:
  Charge       = 0
  Multiplicity = 1
  Basis Set: CC-PVTZ
  Basis Set:

    Orbital Energies (a.u.)
    -----------------------

    Doubly Occupied:

       1A    -20.579923     2A    -11.293512     3A    -11.241929
       4A    -11.230858     5A    -11.221597     6A    -11.219111
       7A    -11.215636     8A    -11.214446     9A     -1.409668
      10A     -1.154605    11A     -1.047592    12A     -1.006838
      13A     -0.940672    14A     -0.843135    15A     -0.803151
      16A     -0.731332    17A     -0.683243    18A     -0.652119
      19A     -0.610408    20A     -0.596497    21A     -0.579512
      22A     -0.569965    23A     -0.565288    24A     -0.533649
      25A     -0.506610    26A     -0.484918    27A     -0.471854
      28A     -0.333464    29A     -0.313288

  @DF-RHF Final Energy:  -344.71960003765827

   => Energetics <=

    Nuclear Repulsion Energy =            346.3028053280792733
    One-Electron Energy =               -1153.9351690004821194
    Two-Electron Energy =                 462.9127636347446924
    DFT Exchange-Correlation Energy =       0.0000000000000000
    Empirical Dispersion Energy =           0.0000000000000000
    PCM Polarization Energy =               0.0000000000000000
    EFP Energy =                            0.0000000000000000
    Total Energy =                       -344.7196000376580969
    Molecular point group: c1
  Basis Set: CC-PVTZ
  Basis Set:

  -Total Gradient:
     Atom            X                  Y                   Z
    ------   -----------------  -----------------  -----------------
       1        0.000123455396     0.000070487957    -0.002402314626
       2        0.000165581334    -0.000613963272     0.004054316619
       3       -0.000961006364     0.001513393544    -0.003643702672
       4        0.000191926007    -0.000058503384     0.000208537112
       5        0.000489367226    -0.000916718093     0.001787144308
       6       -0.000026623865    -0.000018209836     0.000002661733
       7       -0.000055286277    -0.000097937611    -0.000047057181
       8        0.000026250927    -0.000002381411     0.000003436797
       9        0.000124746054     0.000046933442    -0.000043518932
      10       -0.000006426830     0.000002822768     0.000002679483
      11       -0.000061189550     0.000067964170     0.000049575531
      12        0.000024391995    -0.000006677048     0.000015422003
      13       -0.000010345986     0.000004043224     0.000018797842
      14       -0.000007389771    -0.000000427563    -0.000003838383
      15       -0.000011563548     0.000009978570     0.000004580324
      16       -0.000005886749    -0.000000805460    -0.000006719960

  **** Optimization is complete! (in 13 steps) ****
    Final optimized geometry and variables:
    Molecular point group: c1

    Geometry (in Angstrom), charge = 0, multiplicity = 1:

    H           -2.592152546676    -1.333727678794    -0.334014190599
    O           -1.774363626778    -1.796861802457    -0.312108722907
    C           -0.733749686266    -0.933986879224    -0.241453488361
    C            0.482121483450    -1.346067763296    -0.761051815423
    C           -0.846943712317     0.294555616919     0.376642514348
    H            0.554886751801    -2.308221971965    -1.227929714480
    C            1.567782806259    -0.506069578736    -0.662113655504
    H           -1.792180284323     0.588707002051     0.797793848418
    C            0.245808139898     1.147750344972     0.465202763220
    H            2.513742185443    -0.818357617251    -1.062547334701
    C            1.457080153067     0.735980844089    -0.057990255439
    C            0.095690786907     2.495872658743     1.123994106991
    H            2.315256320817     1.377045230063     0.006460378011
    H            1.054803688858     2.979665233382     1.247973862491
    H           -0.363184792702     2.403135399497     2.101272715284
    H           -0.532919617580     3.148742965766     0.528282396944

  Mulliken Charges: (a.u.)
   Center  Symbol    Alpha    Beta     Spin     Total
       1     H     0.38613  0.38613  0.00000  0.22774
       2     O     4.17954  4.17954  0.00000 -0.35909
       3     C     2.84620  2.84620  0.00000  0.30760
       4     C     3.12351  3.12351  0.00000 -0.24703
       5     C     3.14988  3.14988  0.00000 -0.29976
       6     H     0.41869  0.41869  0.00000  0.16262
       7     C     3.04907  3.04907  0.00000 -0.09813
       8     H     0.43331  0.43331  0.00000  0.13337
       9     C     2.94629  2.94629  0.00000  0.10742
      10     H     0.42312  0.42312  0.00000  0.15376
      11     C     3.12333  3.12333  0.00000 -0.24666
      12     C     3.14876  3.14876  0.00000 -0.29753
      13     H     0.42662  0.42662  0.00000  0.14675
      14     H     0.44973  0.44973  0.00000  0.10054
      15     H     0.44823  0.44823  0.00000  0.10354
      16     H     0.44758  0.44758  0.00000  0.10484

   Total alpha = 29.00000, Total beta = 29.00000, Total charge = -0.00000
