  ==> Input File <==

--------------------------------------------------------------------------
set {
	reference rhf
	basis cc-pvtz
}

set_num_threads( 4 )
memory 2 gb

molecule MOL {
0 1

O	 1.847685	 1.294399	 -0.000190
C	 1.704209	 0.119472	 -0.000093
C	 0.380337	 -0.600947	 -0.000234
O	 2.715427	 -0.733672	 0.000025
C	 -0.824290	 0.329213	 -0.000115
H	 0.371455	 -1.255476	 -0.865660
H	 0.371410	 -1.255787	 0.864952
C	 -2.146151	 -0.432825	 -0.000068
H	 -0.773936	 0.979158	 -0.866319
H	 -0.773838	 0.979034	 0.866186
C	 -3.366283	 0.483552	 0.000557
H	 -2.189286	 -1.084450	 -0.869996
H	 -2.188867	 -1.085083	 0.869399
C	 -3.637393	 1.119174	 1.359930
H	 -4.238902	 -0.082195	 -0.313487
H	 -3.227573	 1.264667	 -0.741587
H	 -3.814576	 0.363019	 2.117604
H	 -4.509029	 1.762443	 1.325438
H	 -2.795414	 1.720854	 1.685945
C	 4.020999	 -0.192556	 0.000019
H	 4.182809	 0.412891	 -0.879449
H	 4.692590	 -1.035653	 0.000152
H	 4.182726	 0.413087	 0.879368

	symmetry c1
}
set optking {
	frozen_dihedral = ("
		15 11 8 12
	")
}

ee = optimize('scf')
oeprop('DIPOLE', 'QUADRUPOLE', 'MULLIKEN_CHARGES')
f=open( 'psi4out.xyz', 'w' )
f.write( "23  " )
f.write( str(ee) + "\n" )
f.write( MOL.save_string_xyz() )
f.close()
--------------------------------------------------------------------------

    Molecular point group: c1
  Charge       = 0
  Multiplicity = 1
  Basis Set: CC-PVTZ
  Basis Set:
  @DF-RHF Final Energy:  -423.12893270155462
    Total Energy =                       -423.1289327015542767
    Molecular point group: c1
  Basis Set: CC-PVTZ
  Basis Set:
  Basis Set: CC-PVTZ
  Basis Set:
  @DF-RHF Final Energy:  -423.12912060968745
    Total Energy =                       -423.1291206096874475
  Basis Set: CC-PVTZ
  Basis Set:
  Basis Set: CC-PVTZ
  Basis Set:
  @DF-RHF Final Energy:  -423.12914541051884
    Total Energy =                       -423.1291454105185039
  Basis Set: CC-PVTZ
  Basis Set:
  Basis Set: CC-PVTZ
  Basis Set:
  @DF-RHF Final Energy:  -423.12914115138312
    Total Energy =                       -423.1291411513827825
  Basis Set: CC-PVTZ
  Basis Set:
  Basis Set: CC-PVTZ
  Basis Set:
  @DF-RHF Final Energy:  -423.12914542197103
    Total Energy =                       -423.1291454219721118
  Basis Set: CC-PVTZ
  Basis Set:
  Basis Set: CC-PVTZ
  Basis Set:
  @DF-RHF Final Energy:  -423.12914661985809
    Total Energy =                       -423.1291466198583748
  Basis Set: CC-PVTZ
  Basis Set:
  Charge       = 0
  Multiplicity = 1
  Basis Set: CC-PVTZ
  Basis Set:

    Orbital Energies (a.u.)
    -----------------------

    Doubly Occupied:

       1A    -20.596328     2A    -20.534152     3A    -11.364581
       4A    -11.278491     5A    -11.233735     6A    -11.216962
       7A    -11.215916     8A    -11.214698     9A    -11.206672
      10A     -1.472223    11A     -1.365787    12A     -1.094168
      13A     -1.043340    14A     -0.986569    15A     -0.932116
      16A     -0.854129    17A     -0.786839    18A     -0.769350
      19A     -0.698921    20A     -0.686543    21A     -0.676062
      22A     -0.643486    23A     -0.616747    24A     -0.598039
      25A     -0.588727    26A     -0.563215    27A     -0.534414
      28A     -0.530218    29A     -0.522957    30A     -0.511469
      31A     -0.492164    32A     -0.467564    33A     -0.463693
      34A     -0.461643    35A     -0.456863    36A     -0.438515

  @DF-RHF Final Energy:  -423.12914667064689

   => Energetics <=

    Nuclear Repulsion Energy =            457.1607153511881165
    One-Electron Energy =               -1482.3451329435542903
    Two-Electron Energy =                 602.0552709217201937
    DFT Exchange-Correlation Energy =       0.0000000000000000
    Empirical Dispersion Energy =           0.0000000000000000
    PCM Polarization Energy =               0.0000000000000000
    EFP Energy =                            0.0000000000000000
    Total Energy =                       -423.1291466706459232
    Molecular point group: c1
  Basis Set: CC-PVTZ
  Basis Set:

  -Total Gradient:
     Atom            X                  Y                   Z
    ------   -----------------  -----------------  -----------------
       1       -0.000002258782     0.000000399541    -0.000003401363
       2        0.000000055433     0.000003006035    -0.000013671519
       3        0.000002464197    -0.000000666878     0.000025532387
       4       -0.000004201011    -0.000003363920     0.000009861931
       5        0.000003226669     0.000002939270     0.000000343272
       6        0.000002141368     0.000002096257    -0.000010738172
       7       -0.000002186662    -0.000002399963    -0.000009066777
       8        0.001075075511     0.001491654763    -0.001447609018
       9        0.000001400910    -0.000002541704     0.000002844991
      10        0.000001707020     0.000003926891     0.000003417189
      11       -0.000551677271    -0.000773009234     0.002137993195
      12       -0.000822888322    -0.001138512484     0.000881776743
      13       -0.000000428273     0.000000169896    -0.000000184366
      14        0.000003189273     0.000003104634     0.000003346426
      15        0.000295989297     0.000410965689    -0.001581723525
      16       -0.000000092144    -0.000000356859    -0.000001446965
      17       -0.000001282646     0.000001126346     0.000000510465
      18        0.000002749017    -0.000001771377    -0.000000280273
      19       -0.000000921542     0.000002279693     0.000003928167
      20       -0.000001551843     0.000001057337    -0.000001359861
      21       -0.000000134637     0.000000376326    -0.000000241105
      22       -0.000000505061    -0.000000203918     0.000000362073
      23        0.000000129504    -0.000000276339    -0.000000193894

  **** Optimization is complete! (in 7 steps) ****
    Final optimized geometry and variables:
    Molecular point group: c1

    Geometry (in Angstrom), charge = 0, multiplicity = 1:

    O            1.741362758682     1.129735657405    -0.137748442061
    C            1.591684055478    -0.044353540608    -0.155144802570
    C            0.264073780473    -0.757745692745    -0.157477503422
    O            2.598443764255    -0.902537623666    -0.174342591139
    C           -0.935261093043     0.179373141224    -0.146832382381
    H            0.249141515489    -1.406133361662    -1.027375880793
    H            0.254110675958    -1.418440092157     0.703274876714
    C           -2.259090407412    -0.581184952941    -0.153130586877
    H           -0.885618196344     0.832516895413    -1.010805122044
    H           -0.871564707051     0.823184783677     0.721397446993
    C           -3.499312210942     0.316188945149    -0.148822656062
    H           -2.296961840859    -1.229370569274    -1.024435777248
    H           -2.299501080261    -1.244948993372     0.708267052056
    C           -3.801773989823     0.967096309557     1.197935680639
    H           -4.356637738183    -0.270795426239    -0.462527484209
    H           -3.380369431790     1.089224223283    -0.903496047966
    H           -3.961045492010     0.216382000322     1.965142256480
    H           -4.697472348639     1.574830943323     1.140493271582
    H           -2.993315885261     1.609433087078     1.526369290443
    C            3.906752228181    -0.368261576295    -0.173146548961
    H            4.066892059808     0.250295581243    -1.043767178680
    H            4.573946779769    -1.214688020483    -0.190254554870
    H            4.076675397482     0.222443663558     0.714794196052

  Mulliken Charges: (a.u.)
   Center  Symbol    Alpha    Beta     Spin     Total
       1     O     4.19718  4.19718  0.00000 -0.39436
       2     C     2.80622  2.80622  0.00000  0.38757
       3     C     3.10140  3.10140  0.00000 -0.20279
       4     O     4.14643  4.14643  0.00000 -0.29285
       5     C     3.08513  3.08513  0.00000 -0.17027
       6     H     0.43947  0.43947  0.00000  0.12106
       7     H     0.43990  0.43990  0.00000  0.12019
       8     C     3.09757  3.09757  0.00000 -0.19513
       9     H     0.44633  0.44633  0.00000  0.10735
      10     H     0.44513  0.44513  0.00000  0.10974
      11     C     3.09028  3.09028  0.00000 -0.18057
      12     H     0.44930  0.44930  0.00000  0.10140
      13     H     0.45613  0.45613  0.00000  0.08775
      14     C     3.14993  3.14993  0.00000 -0.29986
      15     H     0.44792  0.44792  0.00000  0.10415
      16     H     0.45454  0.45454  0.00000  0.09092
      17     H     0.45579  0.45579  0.00000  0.08842
      18     H     0.44694  0.44694  0.00000  0.10612
      19     H     0.45262  0.45262  0.00000  0.09476
      20     C     3.03776  3.03776  0.00000 -0.07552
      21     H     0.45436  0.45436  0.00000  0.09128
      22     H     0.44533  0.44533  0.00000  0.10934
      23     H     0.45434  0.45434  0.00000  0.09131

   Total alpha = 36.00000, Total beta = 36.00000, Total charge = -0.00000
