                              Psi4 1.0.54 Driver

  ==> Input File <==

--------------------------------------------------------------------------
set {
	reference rhf
	basis cc-pvtz
}

set_num_threads( 4 )
memory 2 gb

molecule MOL {
0 1

H	 -0.900584	 4.978378	 5.383996
C	 -1.618831	 4.171628	 5.293765
C	 -1.613221	 3.583335	 3.886923
H	 -1.364076	 3.417997	 6.030892
H	 -2.595881	 4.568335	 5.550273
C	 -2.622195	 2.449399	 3.719200
H	 -0.618752	 3.219479	 3.655451
H	 -1.834959	 4.369096	 3.168428
C	 -2.643434	 1.845086	 2.318756
H	 -2.410797	 1.667074	 4.437607
H	 -3.616622	 2.824335	 3.943524
C	 -1.429150	 0.999345	 1.974201
H	 -3.506128	 1.192299	 2.212013
H	 -2.763685	 2.616739	 1.564031
C	 -1.180025	 0.697761	 0.509157
O	 -0.708825	 0.569196	 2.816447
C	 -2.285431	 -0.137488	 -0.145671
H	 -0.234071	 0.176776	 0.449280
H	 -1.077640	 1.640136	 -0.022485
C	 -3.646545	 0.082747	 0.508954
H	 -2.348635	 0.118247	 -1.199806
H	 -2.034895	 -1.192387	 -0.096473
C	 -4.757412	 -0.737227	 -0.138149
H	 -3.900211	 1.137405	 0.459735
H	 -3.580878	 -0.166775	 1.564416
H	 -4.867876	 -0.486707	 -1.187777
H	 -4.549650	 -1.800049	 -0.072540
H	 -5.709585	 -0.556397	 0.346597

	symmetry c1
}
set optking {
	frozen_dihedral = ("
		12 15 17 21
	")
}

ee,wfn = optimize('scf', return_wfn=True)
oeprop( wfn, 'DIPOLE', 'QUADRUPOLE', 'MULLIKEN_CHARGES')
f=open( 'psi4out.xyz', 'w' )
f.write( "28  " )
f.write( str(ee) + "\n" )
f.write( MOL.save_string_xyz() )
f.close()
--------------------------------------------------------------------------

    Molecular point group: c1
  Charge       = 0
  Multiplicity = 1
  Basis Set: CC-PVTZ
  Basis Set:
  @DF-RHF Final Energy:  -426.28352667361355
    Total Energy =                       -426.2835266736135509
    Molecular point group: c1
  Basis Set: CC-PVTZ
  Basis Set:
  Basis Set: CC-PVTZ
  Basis Set:
  @DF-RHF Final Energy:  -426.11158387609271
    Total Energy =                       -426.1115838760924817
  Basis Set: CC-PVTZ
  Basis Set:
  Basis Set: CC-PVTZ
  Basis Set:
  @DF-RHF Final Energy:  -426.24400026903027
    Total Energy =                       -426.2440002690308347
  Basis Set: CC-PVTZ
  Basis Set:
  Basis Set: CC-PVTZ
  Basis Set:
  @DF-RHF Final Energy:  -426.30409454124629
    Total Energy =                       -426.3040945412458314
  Basis Set: CC-PVTZ
  Basis Set:
  @DF-RHF Final Energy:  -426.30930517130707
    Total Energy =                       -426.3093051713068462
  @DF-RHF Final Energy:  -426.30613449812449
    Total Energy =                       -426.3061344981242655
  @DF-RHF Final Energy:  -426.30870342924891
    Total Energy =                       -426.3087034292492490
  @DF-RHF Final Energy:  -426.31125373035013
    Total Energy =                       -426.3112537303494491
  @DF-RHF Final Energy:  -426.31189637666387
    Total Energy =                       -426.3118963766635261
  @DF-RHF Final Energy:  -426.31248687941388
    Total Energy =                       -426.3124868794139957
  @DF-RHF Final Energy:  -426.31241963690854
    Total Energy =                       -426.3124196369082028
  @DF-RHF Final Energy:  -426.31342405179544
    Total Energy =                       -426.3134240517957778
  @DF-RHF Final Energy:  -426.30090754208720
    Total Energy =                       -426.3009075420868612
  @DF-RHF Final Energy:  -426.31402507426890
    Total Energy =                       -426.3140250742693524
  @DF-RHF Final Energy:  -426.31432354718140
    Total Energy =                       -426.3143235471816297
  @DF-RHF Final Energy:  -426.31428072934978
    Total Energy =                       -426.3142807293497754
  @DF-RHF Final Energy:  -426.31442281668001
    Total Energy =                       -426.3144228166795529
  @DF-RHF Final Energy:  -426.31444449604760
    Total Energy =                       -426.3144444960471446
  @DF-RHF Final Energy:  -426.31447196589318
    Total Energy =                       -426.3144719658935173
  @DF-RHF Final Energy:  -426.31450113102153
    Total Energy =                       -426.3145011310219843
  Basis Set: CC-PVTZ
  Basis Set:
  @DF-RHF Final Energy:  -426.31452416476691
    Total Energy =                       -426.3145241647667945
  Basis Set: CC-PVTZ
  Basis Set:
  Basis Set: CC-PVTZ
  Basis Set:
  @DF-RHF Final Energy:  -426.31455971501987
    Total Energy =                       -426.3145597150203230
  Basis Set: CC-PVTZ
  Basis Set:
  Basis Set: CC-PVTZ
  Basis Set:
  @DF-RHF Final Energy:  -426.31456163202699
    Total Energy =                       -426.3145616320275622
  Basis Set: CC-PVTZ
  Basis Set:
  Charge       = 0
  Multiplicity = 1
  Basis Set: CC-PVTZ
  Basis Set:

    Orbital Energies (a.u.)
    -----------------------

    Doubly Occupied:

       1A    -20.536208     2A    -11.318383     3A    -11.229676
       4A    -11.229029     5A    -11.222021     6A    -11.214779
       7A    -11.211718     8A    -11.210227     9A    -11.206231
      10A    -11.203747    11A     -1.397644    12A     -1.088327
      13A     -1.076875    14A     -1.021939    15A     -0.990217
      16A     -0.910391    17A     -0.868006    18A     -0.809664
      19A     -0.791288    20A     -0.721841    21A     -0.673104
      22A     -0.642316    23A     -0.632577    24A     -0.618266
      25A     -0.607636    26A     -0.584327    27A     -0.577566
      28A     -0.575242    29A     -0.549285    30A     -0.526861
      31A     -0.519800    32A     -0.510416    33A     -0.495141
      34A     -0.480674    35A     -0.474436    36A     -0.467495
      37A     -0.465375    38A     -0.461832    39A     -0.457385
      40A     -0.393733

  @DF-RHF Final Energy:  -426.31456187132289

   => Energetics <=

    Nuclear Repulsion Energy =            541.1225640431986221
    One-Electron Energy =               -1650.9308943742901192
    Two-Electron Energy =                 683.4937684597687166
    DFT Exchange-Correlation Energy =       0.0000000000000000
    Empirical Dispersion Energy =           0.0000000000000000
    PCM Polarization Energy =               0.0000000000000000
    EFP Energy =                            0.0000000000000000
    Total Energy =                       -426.3145618713226668
    Molecular point group: c1
  Basis Set: CC-PVTZ
  Basis Set:

  -Total Gradient:
     Atom            X                  Y                   Z
    ------   -----------------  -----------------  -----------------
       1       -0.000000516131     0.000000044731     0.000000446577
       2        0.000004105017     0.000003527717     0.000003167143
       3       -0.000010808754    -0.000017336050    -0.000010311555
       4        0.000001445265    -0.000001471480    -0.000002755948
       5        0.000000112497     0.000001583774     0.000000701897
       6       -0.000004510777    -0.000001132598    -0.000000108849
       7       -0.000001575657     0.000000821647     0.000001019398
       8       -0.000001161656    -0.000000216045     0.000002658215
       9       -0.000028464060    -0.000005657586    -0.000020337382
      10       -0.000000626028     0.000001121463    -0.000005650117
      11        0.000003473724    -0.000000098212     0.000001209957
      12       -0.001515125873     0.004255345476    -0.002710014521
      13       -0.000000013362    -0.000005042915    -0.000006502128
      14       -0.000003913411     0.000000976417     0.000008347079
      15        0.001362481098    -0.004997007081     0.003790476456
      16        0.000041977992     0.000014936636     0.000016814439
      17        0.004101166386    -0.004879975914    -0.000509050535
      18       -0.000009340071    -0.000013442720    -0.000001233028
      19        0.000009870335     0.000001262720     0.000003867693
      20        0.000015193683     0.000015718993     0.000018244062
      21       -0.003956123716     0.005625103048    -0.000580774628
      22        0.000000782314     0.000001815272     0.000006813858
      23       -0.000007292854    -0.000002512028    -0.000000640535
      24        0.000001321439    -0.000001213876    -0.000004102286
      25       -0.000001271669     0.000000926522    -0.000004469879
      26        0.000000234117     0.000002720711     0.000002669426
      27        0.000001833983     0.000000414552    -0.000000016403
      28       -0.000003253826    -0.000001213173    -0.000000468402

  **** Optimization is complete! (in 24 steps) ****
    Final optimized geometry and variables:
    Molecular point group: c1

    Geometry (in Angstrom), charge = 0, multiplicity = 1:

    H            1.993197529635     1.612060678312     4.575253458305
    C            1.277779784598     1.979821580348     3.848767334580
    C            1.528321128772     1.372542729239     2.472688476690
    H            0.284880305456     1.731825547324     4.207831492340
    H            1.359460570180     3.061733013101     3.822465068166
    C            0.546213244422     1.879362352651     1.418567856460
    H            1.461154801242     0.293291351650     2.539097561840
    H            2.542573525085     1.605839761632     2.156985495518
    C            0.771278789600     1.290133326226     0.031059172248
    H           -0.467361456768     1.662903950026     1.734294186903
    H            0.630408788931     2.960001929158     1.348148993757
    C            0.344237276502    -0.154712851081    -0.135292743957
    H            0.216009247320     1.852480392763    -0.717199090020
    H            1.814233679116     1.372527665929    -0.264545736073
    C            0.757126238818    -0.832435664217    -1.431050704799
    O           -0.265102843193    -0.735870524201     0.703610149768
    C           -0.323125706960    -1.667399052428    -2.147743994709
    H            1.610015219284    -1.458342940684    -1.186102898007
    H            1.127353069521    -0.071882308734    -2.109093934676
    C           -1.761601614086    -1.166465417023    -1.990475763298
    H           -0.102582890991    -1.622325945253    -3.209283622148
    H           -0.269480015929    -2.703059377990    -1.837002861817
    C           -2.733815607182    -1.933400002218    -2.881075563895
    H           -1.805533579399    -0.109116259977    -2.244776870314
    H           -2.073598838141    -1.251283105370    -0.959457781145
    H           -2.476603519554    -1.831363305630    -3.930390629283
    H           -2.728153051889    -2.991678610700    -2.641806304842
    H           -3.747695211062    -1.572673179057    -2.752442282733

  Mulliken Charges: (a.u.)
   Center  Symbol    Alpha    Beta     Spin     Total
       1     H     0.44871  0.44871  0.00000  0.10258
       2     C     3.15167  3.15167  0.00000 -0.30335
       3     C     3.08446  3.08446  0.00000 -0.16892
       4     H     0.45204  0.45204  0.00000  0.09592
       5     H     0.45710  0.45710  0.00000  0.08579
       6     C     3.08691  3.08691  0.00000 -0.17382
       7     H     0.44468  0.44468  0.00000  0.11064
       8     H     0.45860  0.45860  0.00000  0.08279
       9     C     3.12454  3.12454  0.00000 -0.24908
      10     H     0.44580  0.44580  0.00000  0.10841
      11     H     0.44778  0.44778  0.00000  0.10444
      12     C     2.85634  2.85634  0.00000  0.28733
      13     H     0.43566  0.43566  0.00000  0.12867
      14     H     0.44229  0.44229  0.00000  0.11541
      15     C     3.11850  3.11850  0.00000 -0.23700
      16     O     4.18511  4.18511  0.00000 -0.37023
      17     C     3.07907  3.07907  0.00000 -0.15815
      18     H     0.43727  0.43727  0.00000  0.12546
      19     H     0.44418  0.44418  0.00000  0.11163
      20     C     3.09659  3.09659  0.00000 -0.19317
      21     H     0.45132  0.45132  0.00000  0.09737
      22     H     0.44684  0.44684  0.00000  0.10632
      23     C     3.15183  3.15183  0.00000 -0.30366
      24     H     0.45798  0.45798  0.00000  0.08403
      25     H     0.43594  0.43594  0.00000  0.12812
      26     H     0.45736  0.45736  0.00000  0.08528
      27     H     0.45398  0.45398  0.00000  0.09205
      28     H     0.44744  0.44744  0.00000  0.10512

   Total alpha = 40.00000, Total beta = 40.00000, Total charge = -0.00000

*** Psi4 exiting successfully. Buy a developer a beer!
