  ==> Input File <==

--------------------------------------------------------------------------
set {
	reference rhf
	basis cc-pvtz
}

set_num_threads( 4 )
memory 2 gb

molecule MOL {
0 1

H	 3.721907	 -0.933076	 -0.066039
O	 2.824271	 -1.154299	 0.131461
C	 2.076458	 -0.067370	 -0.038225
C	 0.626018	 -0.337582	 0.258241
O	 2.538288	 0.965419	 -0.381593
C	 -0.267326	 0.883135	 0.076490
H	 0.325620	 -1.161483	 -0.378003
H	 0.574537	 -0.713685	 1.275261
C	 -1.726822	 0.642622	 0.463839
H	 -0.210803	 1.217591	 -0.953497
H	 0.129920	 1.693110	 0.675679
C	 -2.480891	 -0.340606	 -0.429852
H	 -2.243098	 1.597649	 0.438609
H	 -1.776542	 0.301208	 1.495542
C	 -3.178273	 -1.441364	 0.362907
H	 -3.217418	 0.202971	 -1.015587
H	 -1.800832	 -0.797544	 -1.141669
H	 -3.706772	 -2.123081	 -0.293320
H	 -3.899238	 -1.025452	 1.058554
H	 -2.463992	 -2.022198	 0.937005

	symmetry c1
}
set optking {
	frozen_dihedral = ("
		16 12 9 6
	")
}

ee = optimize('scf')
oeprop('DIPOLE', 'QUADRUPOLE', 'MULLIKEN_CHARGES')
f=open( 'psi4out.xyz', 'w' )
f.write( "20  " )
f.write( str(ee) + "\n" )
f.write( MOL.save_string_xyz() )
f.close()
--------------------------------------------------------------------------

    Molecular point group: c1
  Charge       = 0
  Multiplicity = 1
  Basis Set: CC-PVTZ
  Basis Set:
  @DF-RHF Final Energy:  -384.08941185155749
    Total Energy =                       -384.0894118515575428
    Molecular point group: c1
  Basis Set: CC-PVTZ
  Basis Set:
  Basis Set: CC-PVTZ
  Basis Set:
  @DF-RHF Final Energy:  -384.08971293798066
    Total Energy =                       -384.0897129379811190
  Basis Set: CC-PVTZ
  Basis Set:
  Basis Set: CC-PVTZ
  Basis Set:
  @DF-RHF Final Energy:  -384.08979690604480
    Total Energy =                       -384.0897969060448531
  Basis Set: CC-PVTZ
  Basis Set:
  Basis Set: CC-PVTZ
  Basis Set:
  @DF-RHF Final Energy:  -384.08987217326182
    Total Energy =                       -384.0898721732613694
  Basis Set: CC-PVTZ
  Basis Set:
  Basis Set: CC-PVTZ
  Basis Set:
  @DF-RHF Final Energy:  -384.08978491297631
    Total Energy =                       -384.0897849129761994
  Basis Set: CC-PVTZ
  Basis Set:
  Basis Set: CC-PVTZ
  Basis Set:
  @DF-RHF Final Energy:  -384.08987642365241
    Total Energy =                       -384.0898764236524130
  Basis Set: CC-PVTZ
  Basis Set:
  Charge       = 0
  Multiplicity = 1
  Basis Set: CC-PVTZ
  Basis Set:

    Orbital Energies (a.u.)
    -----------------------

    Doubly Occupied:

       1A    -20.604037     2A    -20.540648     3A    -11.373614
       4A    -11.238974     5A    -11.221344     6A    -11.218664
       7A    -11.218041     8A    -11.211608     9A     -1.477616
      10A     -1.369143    11A     -1.096737    12A     -1.040345
      13A     -0.963167    14A     -0.871183    15A     -0.815936
      16A     -0.780261    17A     -0.703825    18A     -0.693757
      19A     -0.667112    20A     -0.629494    21A     -0.609128
      22A     -0.596741    23A     -0.583346    24A     -0.554716
      25A     -0.537119    26A     -0.511626    27A     -0.503634
      28A     -0.484593    29A     -0.470354    30A     -0.464315
      31A     -0.457111    32A     -0.446073

  @DF-RHF Final Energy:  -384.08987676361699

   => Energetics <=

    Nuclear Repulsion Energy =            379.4282625649877900
    One-Electron Energy =               -1275.1277618065673778
    Two-Electron Energy =                 511.6096224779626027
    DFT Exchange-Correlation Energy =       0.0000000000000000
    Empirical Dispersion Energy =           0.0000000000000000
    PCM Polarization Energy =               0.0000000000000000
    EFP Energy =                            0.0000000000000000
    Total Energy =                       -384.0898767636169850
    Molecular point group: c1
  Basis Set: CC-PVTZ
  Basis Set:

  -Total Gradient:
     Atom            X                  Y                   Z
    ------   -----------------  -----------------  -----------------
       1        0.000001528286    -0.000000254856     0.000001870658
       2        0.000005740655    -0.000006189744    -0.000000299715
       3       -0.000003300063     0.000008978089    -0.000023297603
       4       -0.000011227442     0.000000082777    -0.000011455578
       5        0.000000116536    -0.000004460097     0.000018227002
       6        0.000314808688    -0.000848078908     0.000636291423
       7        0.000002997126     0.000005816534     0.000009478269
       8        0.000005874130     0.000000533580     0.000010270386
       9       -0.000691163842     0.001135543176    -0.000656145742
      10       -0.000003776663     0.000001846478    -0.000001756498
      11        0.000001017397    -0.000002095969    -0.000001053752
      12        0.001383715134    -0.000063731702    -0.001058256614
      13        0.000000989587     0.000002698682    -0.000002693234
      14       -0.000000392849     0.000000052575     0.000001875250
      15       -0.000000747976     0.000000749215     0.000001053944
      16       -0.001008977025    -0.000232998409     0.001077162664
      17        0.000004012734    -0.000000801936     0.000001044278
      18       -0.000004697224     0.000003052279     0.000000291458
      19        0.000004421072    -0.000000353102     0.000004975528
      20       -0.000000938253    -0.000000388665    -0.000007582124

  **** Optimization is complete! (in 7 steps) ****
    Final optimized geometry and variables:
    Molecular point group: c1

    Geometry (in Angstrom), charge = 0, multiplicity = 1:

    H            3.610008575012    -0.825091129956    -0.146229729594
    O            2.723641217374    -1.020025081018     0.118519575584
    C            1.970553706279     0.051976565700    -0.111967941949
    C            0.537624010255    -0.178011011452     0.285826820494
    O            2.415285426954     1.044975625903    -0.574610779393
    C           -0.361364371361     1.029057898376     0.051216749883
    H            0.196702820193    -1.051851492778    -0.257833447802
    H            0.540412352261    -0.464439972763     1.332662141301
    C           -1.818192276365     0.776507110614     0.443788027064
    H           -0.304368248004     1.324053491155    -0.990487398017
    H            0.026425366305     1.864960434172     0.620980612765
    C           -2.575918699023    -0.204074185642    -0.476796081903
    H           -2.336576473048     1.728072057329     0.460060021682
    H           -1.844223220655     0.409046968406     1.466165565897
    C           -3.282432826988    -1.327691581550     0.277288159405
    H           -3.316596929896     0.342405311903    -1.050080794355
    H           -1.897391677617    -0.638087787115    -1.203296301093
    H           -3.821070226168    -1.979097922841    -0.401550556245
    H           -3.996593126039    -0.929093398189     0.990105117114
    H           -2.573671064094    -1.936269924804     0.829464845560

  Mulliken Charges: (a.u.)
   Center  Symbol    Alpha    Beta     Spin     Total
       1     H     0.38237  0.38237  0.00000  0.23526
       2     O     4.16049  4.16049  0.00000 -0.32097
       3     C     2.80328  2.80328  0.00000  0.39345
       4     C     3.11218  3.11218  0.00000 -0.22436
       5     O     4.19094  4.19094  0.00000 -0.38188
       6     C     3.09087  3.09087  0.00000 -0.18174
       7     H     0.43749  0.43749  0.00000  0.12501
       8     H     0.43727  0.43727  0.00000  0.12546
       9     C     3.10400  3.10400  0.00000 -0.20799
      10     H     0.44453  0.44453  0.00000  0.11093
      11     H     0.44107  0.44107  0.00000  0.11786
      12     C     3.09706  3.09706  0.00000 -0.19412
      13     H     0.44128  0.44128  0.00000  0.11745
      14     H     0.45548  0.45548  0.00000  0.08904
      15     C     3.14636  3.14636  0.00000 -0.29272
      16     H     0.44465  0.44465  0.00000  0.11069
      17     H     0.45266  0.45266  0.00000  0.09469
      18     H     0.44853  0.44853  0.00000  0.10294
      19     H     0.45348  0.45348  0.00000  0.09305
      20     H     0.45602  0.45602  0.00000  0.08796

   Total alpha = 32.00000, Total beta = 32.00000, Total charge = -0.00000
