  ==> Input File <==

--------------------------------------------------------------------------
set {
	reference rhf
	basis cc-pvtz
}

set_num_threads( 4 )
memory 2 gb

molecule MOL {
0 1

H	 2.718289	 -0.552936	 -0.772563
N	 2.326826	 -0.066186	 0.000000
C	 0.934676	 -0.005420	 0.000000
H	 2.726255	 -0.370435	 0.857270
C	 0.226436	 -0.001077	 -1.195129
C	 0.226436	 -0.001077	 1.195129
H	 0.759091	 -0.011439	 -2.128123
C	 -1.153391	 0.009141	 -1.189028
H	 0.759091	 -0.011439	 2.128123
C	 -1.153391	 0.009141	 1.189028
H	 -1.680905	 0.012964	 -2.124348
C	 -1.857876	 0.014675	 0.000000
H	 -1.680905	 0.012964	 2.124348
H	 -2.930222	 0.022904	 0.000000

	symmetry c1
}
set optking {
	frozen_dihedral = ("
		1 2 3 5
	")
}

ee = optimize('scf')
oeprop('DIPOLE', 'QUADRUPOLE', 'MULLIKEN_CHARGES')
f=open( 'psi4out.xyz', 'w' )
f.write( "14  " )
f.write( str(ee) + "\n" )
f.write( MOL.save_string_xyz() )
f.close()
--------------------------------------------------------------------------

    Molecular point group: c1
  Charge       = 0
  Multiplicity = 1
  Basis Set: CC-PVTZ
  Basis Set:
  @DF-RHF Final Energy:  -285.83312959830255
    Total Energy =                       -285.8331295983025484
    Molecular point group: c1
  Basis Set: CC-PVTZ
  Basis Set:
  Basis Set: CC-PVTZ
  Basis Set:
  @DF-RHF Final Energy:  -285.83357152087552
    Total Energy =                       -285.8335715208754664
  Basis Set: CC-PVTZ
  Basis Set:
  Basis Set: CC-PVTZ
  Basis Set:
  @DF-RHF Final Energy:  -285.83369901490056
    Total Energy =                       -285.8336990149005032
  Basis Set: CC-PVTZ
  Basis Set:
  Basis Set: CC-PVTZ
  Basis Set:
  @DF-RHF Final Energy:  -285.83370196924824
    Total Energy =                       -285.8337019692482954
  Basis Set: CC-PVTZ
  Basis Set:
  Charge       = 0
  Multiplicity = 1
  Basis Set: CC-PVTZ
  Basis Set:

    Orbital Energies (a.u.)
    -----------------------

    Doubly Occupied:

       1A    -15.556248     2A    -11.270928     3A    -11.227235
       4A    -11.227179     5A    -11.215774     6A    -11.215579
       7A    -11.211155     8A     -1.227187     9A     -1.130722
      10A     -1.013560    11A     -0.988044    12A     -0.832990
      13A     -0.813615    14A     -0.708187    15A     -0.687381
      16A     -0.654893    17A     -0.598952    18A     -0.594361
      19A     -0.581669    20A     -0.535567    21A     -0.506482
      22A     -0.487367    23A     -0.449299    24A     -0.336343
      25A     -0.294870

  @DF-RHF Final Energy:  -285.83370286641303

   => Energetics <=

    Nuclear Repulsion Energy =            273.7368434594109772
    One-Electron Energy =                -928.4099201667551142
    Two-Electron Energy =                 368.8393738409312164
    DFT Exchange-Correlation Energy =       0.0000000000000000
    Empirical Dispersion Energy =           0.0000000000000000
    PCM Polarization Energy =               0.0000000000000000
    EFP Energy =                            0.0000000000000000
    Total Energy =                       -285.8337028664128638
    Molecular point group: c1
  Basis Set: CC-PVTZ
  Basis Set:

  -Total Gradient:
     Atom            X                  Y                   Z
    ------   -----------------  -----------------  -----------------
       1        0.000055516895    -0.000459627989     0.000220477163
       2       -0.000165700291     0.000780503758    -0.000313386049
       3        0.000120760517    -0.000702547929     0.000074354763
       4        0.000032117907    -0.000016754351     0.000019551167
       5       -0.000041428932     0.000414922907    -0.000008774868
       6       -0.000000710490     0.000034818726    -0.000003084407
       7        0.000001623087    -0.000006009960    -0.000002019034
       8        0.000029641167    -0.000027728013     0.000011826139
       9       -0.000004169512    -0.000003787662    -0.000000682516
      10       -0.000015234624    -0.000030483461    -0.000027813370
      11        0.000000801311     0.000005481663    -0.000000319813
      12       -0.000011929686    -0.000018123092     0.000023635219
      13       -0.000005717912     0.000006074742     0.000001691315
      14        0.000004430563     0.000023260661     0.000004544290

  **** Optimization is complete! (in 5 steps) ****
    Final optimized geometry and variables:
    Molecular point group: c1

    Geometry (in Angstrom), charge = 0, multiplicity = 1:

    H            2.741934418005    -0.449246285830    -0.792491895262
    N            2.328355258752    -0.017302447932     0.001339585938
    C            0.934150643074    -0.030063903774     0.001968211448
    H            2.740378262902    -0.351200930983     0.841773704487
    C            0.228255866995    -0.010755652539    -1.194706018362
    C            0.224247063469    -0.003325004541     1.195368321223
    H            0.763149891177    -0.020207807120    -2.126359549946
    C           -1.150729028348     0.027733146887    -1.191220965671
    H            0.754820051922    -0.010649454446     2.129610197517
    C           -1.155383593150     0.038220793741     1.186818514722
    H           -1.676460296614     0.040282461293    -2.127461224459
    C           -1.857218226661     0.052873906885    -0.003225818664
    H           -1.684261709825     0.057924785494     2.121166611321
    H           -2.929123512969     0.084262403863    -0.005343103679

  Mulliken Charges: (a.u.)
   Center  Symbol    Alpha    Beta     Spin     Total
       1     H     0.42218  0.42218  0.00000  0.15563
       2     N     3.66696  3.66696  0.00000 -0.33392
       3     C     2.88975  2.88975  0.00000  0.22050
       4     H     0.42346  0.42346  0.00000  0.15307
       5     C     3.11666  3.11666  0.00000 -0.23333
       6     C     3.11753  3.11753  0.00000 -0.23506
       7     H     0.43340  0.43340  0.00000  0.13320
       8     C     3.05800  3.05800  0.00000 -0.11600
       9     H     0.43433  0.43433  0.00000  0.13133
      10     C     3.05809  3.05809  0.00000 -0.11618
      11     H     0.42470  0.42470  0.00000  0.15060
      12     C     3.10486  3.10486  0.00000 -0.20972
      13     H     0.42472  0.42472  0.00000  0.15055
      14     H     0.42534  0.42534  0.00000  0.14933

   Total alpha = 25.00000, Total beta = 25.00000, Total charge = -0.00000
