  ==> Input File <==

--------------------------------------------------------------------------
set {
	reference rhf
	basis cc-pvtz
}

set_num_threads( 4 )
memory 2 gb

molecule MOL {
0 1

H	 -2.498963	 -0.741158	 -0.729149
O	 -2.346257	 -0.289210	 0.080372
C	 -1.183935	 0.486039	 -0.009831
C	 0.062853	 -0.375310	 0.027457
H	 -1.178881	 1.094526	 -0.908634
H	 -1.184406	 1.155156	 0.838676
O	 1.172093	 0.457955	 -0.054438
H	 0.052476	 -1.081302	 -0.804627
H	 0.076323	 -0.955658	 0.947560
C	 1.616189	 0.705942	 -1.347691
H	 0.848889	 1.193955	 -1.944657
H	 2.474534	 1.358489	 -1.283573
H	 1.910411	 -0.212716	 -1.849709

	symmetry c1
}
set optking {
	frozen_dihedral = ("
		10 7 4 8
	")
}

ee = optimize('scf')
oeprop('DIPOLE', 'QUADRUPOLE', 'MULLIKEN_CHARGES')
f=open( 'psi4out.xyz', 'w' )
f.write( "13  " )
f.write( str(ee) + "\n" )
f.write( MOL.save_string_xyz() )
f.close()
--------------------------------------------------------------------------

    Molecular point group: c1
  Charge       = 0
  Multiplicity = 1
  Basis Set: CC-PVTZ
  Basis Set:
  @DF-RHF Final Energy:  -268.05769934066910
    Total Energy =                       -268.0576993406688757
    Molecular point group: c1
  Basis Set: CC-PVTZ
  Basis Set:
  Basis Set: CC-PVTZ
  Basis Set:
  @DF-RHF Final Energy:  -268.05861928627053
    Total Energy =                       -268.0586192862704706
  Basis Set: CC-PVTZ
  Basis Set:
  Basis Set: CC-PVTZ
  Basis Set:
  @DF-RHF Final Energy:  -268.05895645243879
    Total Energy =                       -268.0589564524389061
  Basis Set: CC-PVTZ
  Basis Set:
  Basis Set: CC-PVTZ
  Basis Set:
  @DF-RHF Final Energy:  -268.05896231995837
    Total Energy =                       -268.0589623199582547
  Basis Set: CC-PVTZ
  Basis Set:
  Charge       = 0
  Multiplicity = 1
  Basis Set: CC-PVTZ
  Basis Set:

    Orbital Energies (a.u.)
    -----------------------

    Doubly Occupied:

       1A    -20.554762     2A    -20.554528     3A    -11.269678
       4A    -11.269342     5A    -11.268587     6A     -1.389094
       7A     -1.370233     8A     -1.016224     9A     -0.925458
      10A     -0.839529    11A     -0.712905    12A     -0.672243
      13A     -0.664289    14A     -0.640908    15A     -0.596253
      16A     -0.577821    17A     -0.542077    18A     -0.492994
      19A     -0.481984    20A     -0.465605    21A     -0.408272

  @DF-RHF Final Energy:  -268.05896275942888

   => Energetics <=

    Nuclear Repulsion Energy =            191.8241437250981676
    One-Electron Energy =                -746.3406401622341946
    Two-Electron Energy =                 286.4575336777071470
    DFT Exchange-Correlation Energy =       0.0000000000000000
    Empirical Dispersion Energy =           0.0000000000000000
    PCM Polarization Energy =               0.0000000000000000
    EFP Energy =                            0.0000000000000000
    Total Energy =                       -268.0589627594289368
    Molecular point group: c1
  Basis Set: CC-PVTZ
  Basis Set:

  -Total Gradient:
     Atom            X                  Y                   Z
    ------   -----------------  -----------------  -----------------
       1        0.000000205677     0.000026185471     0.000006073215
       2        0.000015579604    -0.000021430092     0.000015098255
       3        0.000002153083    -0.000014267389    -0.000022964225
       4        0.000282195179    -0.000418637835     0.000212188329
       5        0.000007166854     0.000004933717     0.000003465673
       6       -0.000016009856     0.000011843940    -0.000002088085
       7       -0.000243473958     0.000382306353    -0.000048340592
       8       -0.000176726945     0.000217694678    -0.000183006542
       9       -0.000006370150     0.000021726556     0.000000286808
      10        0.000138804389    -0.000211293559     0.000035456967
      11       -0.000001369924     0.000002085161    -0.000010803316
      12       -0.000000031159    -0.000001474902    -0.000006944132
      13       -0.000002122801     0.000000327900     0.000001577643

  **** Optimization is complete! (in 5 steps) ****
    Final optimized geometry and variables:
    Molecular point group: c1

    Geometry (in Angstrom), charge = 0, multiplicity = 1:

    H           -2.359665061460    -0.974482254646    -0.386924928441
    O           -2.204347376836    -0.499657646068     0.409008738810
    C           -1.063569834720     0.302583629398     0.281953037625
    C            0.206854244885    -0.533802616171     0.270911381749
    H           -1.118970084603     0.923950579816    -0.607544346149
    H           -1.046671285696     0.962110093841     1.137856982328
    O            1.347672823699     0.265627189997     0.201701587771
    H            0.179329540695    -1.241442729667    -0.557075540859
    H            0.258793444022    -1.106541911736     1.187334687768
    C            1.840964798671     0.515212669126    -1.075287357360
    H            1.111967192231     1.014820575937    -1.707848541285
    H            2.702128988448     1.159162302888    -0.972407857413
    H            2.149847386381    -0.404807609900    -1.565406097329

  Mulliken Charges: (a.u.)
   Center  Symbol    Alpha    Beta     Spin     Total
       1     H     0.39438  0.39438  0.00000  0.21123
       2     O     4.20238  4.20238  0.00000 -0.40477
       3     C     2.97023  2.97023  0.00000  0.05955
       4     C     2.98296  2.98296  0.00000  0.03409
       5     H     0.47124  0.47124  0.00000  0.05751
       6     H     0.45285  0.45285  0.00000  0.09429
       7     O     4.18013  4.18013  0.00000 -0.36026
       8     H     0.47976  0.47976  0.00000  0.04047
       9     H     0.44677  0.44677  0.00000  0.10646
      10     C     3.03153  3.03153  0.00000 -0.06305
      11     H     0.47360  0.47360  0.00000  0.05281
      12     H     0.44578  0.44578  0.00000  0.10845
      13     H     0.46839  0.46839  0.00000  0.06323

   Total alpha = 21.00000, Total beta = 21.00000, Total charge = -0.00000
