                              Psi4 1.0.54 Driver

  ==> Input File <==

--------------------------------------------------------------------------
set {
	reference rhf
	basis cc-pvtz
}

set_num_threads( 4 )
memory 2 gb

molecule MOL {
0 1

H	 2.614283	 2.028610	 0.296620
O	 3.358864	 1.662087	 -0.142800
C	 3.565468	 0.338079	 0.273842
C	 2.533667	 -0.637565	 -0.272227
H	 4.548038	 0.064914	 -0.086598
H	 3.593945	 0.282242	 1.360360
C	 1.114816	 -0.402372	 0.240993
H	 2.544552	 -0.580764	 -1.356576
H	 2.850574	 -1.642962	 -0.005497
C	 1.053513	 0.648250	 1.348816
H	 0.706337	 -1.338205	 0.607552
H	 0.480595	 -0.086427	 -0.585584
C	 -0.353839	 0.977880	 1.849773
H	 1.664696	 0.320133	 2.186086
H	 1.510332	 1.563302	 0.982120
C	 -1.058706	 -0.156937	 2.590782
H	 -0.287096	 1.835042	 2.514113
H	 -0.968116	 1.295115	 1.010022
C	 -2.416507	 0.251636	 3.156339
H	 -0.422979	 -0.503278	 3.402797
H	 -1.196666	 -1.006528	 1.928841
C	 -3.124660	 -0.880126	 3.893582
H	 -2.285628	 1.093652	 3.830473
H	 -3.049988	 0.605892	 2.347471
H	 -2.530292	 -1.235196	 4.728980
H	 -4.082620	 -0.556099	 4.284000
H	 -3.304515	 -1.724076	 3.235743

	symmetry c1
}
set optking {
	frozen_dihedral = ("
		10 7 4 8
	")
}

ee,wfn = optimize('scf', return_wfn=True)
oeprop( wfn, 'DIPOLE', 'QUADRUPOLE', 'MULLIKEN_CHARGES')
f=open( 'psi4out.xyz', 'w' )
f.write( "27  " )
f.write( str(ee) + "\n" )
f.write( MOL.save_string_xyz() )
f.close()
--------------------------------------------------------------------------

    Molecular point group: c1
  Charge       = 0
  Multiplicity = 1
  Basis Set: CC-PVTZ
  Basis Set:
  @DF-RHF Final Energy:  -388.40345479060989
    Total Energy =                       -388.4034547906094303
    Molecular point group: c1
  Basis Set: CC-PVTZ
  Basis Set:
  Basis Set: CC-PVTZ
  Basis Set:
  @DF-RHF Final Energy:  -388.35267464091532
    Total Energy =                       -388.3526746409153247
  Basis Set: CC-PVTZ
  Basis Set:
  Basis Set: CC-PVTZ
  Basis Set:
  @DF-RHF Final Energy:  -388.41162173621484
    Total Energy =                       -388.4116217362147836
  Basis Set: CC-PVTZ
  Basis Set:
  Basis Set: CC-PVTZ
  Basis Set:
  @DF-RHF Final Energy:  -388.41641743995103
    Total Energy =                       -388.4164174399512603
  Basis Set: CC-PVTZ
  Basis Set:
  @DF-RHF Final Energy:  -388.41671507756348
    Total Energy =                       -388.4167150775632535
  @DF-RHF Final Energy:  -388.41680963393094
    Total Energy =                       -388.4168096339307112
  @DF-RHF Final Energy:  -388.41681715657757
    Total Energy =                       -388.4168171565770535
  @DF-RHF Final Energy:  -388.41685356668864
    Total Energy =                       -388.4168535666884736
  @DF-RHF Final Energy:  -388.41685876759823
    Total Energy =                       -388.4168587675980007
  @DF-RHF Final Energy:  -388.41686085741884
    Total Energy =                       -388.4168608574191239
  Basis Set: CC-PVTZ
  Basis Set:
  @DF-RHF Final Energy:  -388.41686223023612
    Total Energy =                       -388.4168622302363474
  Basis Set: CC-PVTZ
  Basis Set:
  Basis Set: CC-PVTZ
  Basis Set:
  @DF-RHF Final Energy:  -388.41683583331059
    Total Energy =                       -388.4168358333104152
  Basis Set: CC-PVTZ
  Basis Set:
  Basis Set: CC-PVTZ
  Basis Set:
  @DF-RHF Final Energy:  -388.41686253779733
    Total Energy =                       -388.4168625377973285
  Basis Set: CC-PVTZ
  Basis Set:
  Charge       = 0
  Multiplicity = 1
  Basis Set: CC-PVTZ
  Basis Set:

    Orbital Energies (a.u.)
    -----------------------

    Doubly Occupied:

       1A    -20.542943     2A    -11.263409     3A    -11.221180
       4A    -11.217001     5A    -11.216558     6A    -11.215296
       7A    -11.213748     8A    -11.213624     9A    -11.208342
      10A     -1.361082    11A     -1.096939    12A     -1.059880
      13A     -1.012539    14A     -0.949301    15A     -0.894048
      16A     -0.829802    17A     -0.800244    18A     -0.774329
      19A     -0.692095    20A     -0.652826    21A     -0.643879
      22A     -0.614107    23A     -0.601796    24A     -0.580877
      25A     -0.572131    26A     -0.566980    27A     -0.544748
      28A     -0.528375    29A     -0.522289    30A     -0.496065
      31A     -0.481719    32A     -0.473007    33A     -0.465985
      34A     -0.463484    35A     -0.452864    36A     -0.440218
      37A     -0.424429

  @DF-RHF Final Energy:  -388.41686259631217

   => Energetics <=

    Nuclear Repulsion Energy =            464.4250487890089971
    One-Electron Energy =               -1447.0675420308425601
    Two-Electron Energy =                 594.2256306455212780
    DFT Exchange-Correlation Energy =       0.0000000000000000
    Empirical Dispersion Energy =           0.0000000000000000
    PCM Polarization Energy =               0.0000000000000000
    EFP Energy =                            0.0000000000000000
    Total Energy =                       -388.4168625963122849
    Molecular point group: c1
  Basis Set: CC-PVTZ
  Basis Set:

  -Total Gradient:
     Atom            X                  Y                   Z
    ------   -----------------  -----------------  -----------------
       1       -0.000006283158     0.000006763186     0.000000297772
       2        0.000010585855    -0.000011949823     0.000002093415
       3        0.000007944685     0.000002907612    -0.000006064489
       4       -0.000311982160    -0.004365205748    -0.000456751467
       5       -0.000003283479    -0.000001773527    -0.000000663772
       6       -0.000000764925    -0.000002410466     0.000002047375
       7        0.001606963921    -0.001560201642     0.003510247919
       8       -0.000166505874     0.004215458229    -0.000563134234
       9       -0.000002191047     0.000000179828    -0.000001677496
      10       -0.001144556059     0.001715671198    -0.002484300468
      11        0.000003539619    -0.000001814502     0.000001937805
      12       -0.000001150766     0.000004290155     0.000005882664
      13        0.000001636515    -0.000004753550     0.000007264062
      14       -0.000004482205    -0.000003410525    -0.000001996601
      15       -0.000002054873     0.000002464238    -0.000003447619
      16        0.000006444146     0.000005335213     0.000001149906
      17        0.000004358238     0.000002099141    -0.000001612976
      18        0.000003662768    -0.000000820896    -0.000001340826
      19       -0.000009689657    -0.000005140536    -0.000010663068
      20        0.000004348443    -0.000000491072    -0.000001126304
      21       -0.000001578263    -0.000000136375     0.000001136087
      22        0.000003740230     0.000000926787    -0.000002536503
      23        0.000002940448    -0.000001264893    -0.000000472563
      24       -0.000002522709     0.000001122972    -0.000000487030
      25        0.000001629066    -0.000001812073     0.000003400362
      26       -0.000000009330     0.000002207614     0.000001184559
      27       -0.000000739424     0.000001759455    -0.000000366511

  **** Optimization is complete! (in 14 steps) ****
    Final optimized geometry and variables:
    Molecular point group: c1

    Geometry (in Angstrom), charge = 0, multiplicity = 1:

    H            1.705891388416     2.133779736585    -2.065326967511
    O            2.486759657470     1.734313278348    -2.398021968475
    C            2.872226995524     0.654462845653    -1.587103710858
    C            1.970781161149    -0.568432084823    -1.728168647958
    H            3.864084544386     0.384453030015    -1.923841018297
    H            2.963974129577     0.967584611636    -0.551858542176
    C            0.566474967100    -0.535970709228    -1.066132670300
    H            1.854082997496    -0.714759840274    -2.795601357590
    H            2.524253653558    -1.418949136067    -1.344388894601
    C            0.249279572008     0.624258500369    -0.118917391538
    H            0.424420641035    -1.468887571086    -0.535953943173
    H           -0.185546171551    -0.529005490835    -1.848997610394
    C           -1.163063164496     0.573209611009     0.471368603926
    H            0.967941290868     0.655003431069     0.695119658475
    H            0.346648970662     1.568535521171    -0.644519316843
    C           -1.410569208503    -0.560203326936     1.465372723498
    H           -1.355335440108     1.517445519878     0.973188344121
    H           -1.887308026503     0.508248504120    -0.337134118794
    C           -2.798463012027    -0.503618293633     2.098722558546
    H           -0.658272154996    -0.517952554095     2.250064220676
    H           -1.288297923200    -1.521568651792     0.976871139017
    C           -3.051499525084    -1.634428049497     3.090127831331
    H           -2.924978315147     0.451032957766     2.601886524405
    H           -3.551256621684    -0.536556830964     1.315776592883
    H           -2.334165863607    -1.609456289730     3.903788969332
    H           -4.043151218798    -1.563647528790     3.522042783922
    H           -2.969282726285    -2.603202911653     2.608600614168

  Mulliken Charges: (a.u.)
   Center  Symbol    Alpha    Beta     Spin     Total
       1     H     0.39151  0.39151  0.00000  0.21698
       2     O     4.20977  4.20977  0.00000 -0.41953
       3     C     2.98092  2.98092  0.00000  0.03815
       4     C     3.09857  3.09857  0.00000 -0.19715
       5     H     0.44381  0.44381  0.00000  0.11238
       6     H     0.46789  0.46789  0.00000  0.06422
       7     C     3.10350  3.10350  0.00000 -0.20700
       8     H     0.44826  0.44826  0.00000  0.10347
       9     H     0.45270  0.45270  0.00000  0.09460
      10     C     3.10923  3.10923  0.00000 -0.21846
      11     H     0.44715  0.44715  0.00000  0.10570
      12     H     0.44855  0.44855  0.00000  0.10290
      13     C     3.09876  3.09876  0.00000 -0.19753
      14     H     0.44892  0.44892  0.00000  0.10216
      15     H     0.45357  0.45357  0.00000  0.09285
      16     C     3.08759  3.08759  0.00000 -0.17518
      17     H     0.44783  0.44783  0.00000  0.10435
      18     H     0.45220  0.45220  0.00000  0.09561
      19     C     3.08475  3.08475  0.00000 -0.16951
      20     H     0.45519  0.45519  0.00000  0.08962
      21     H     0.45306  0.45306  0.00000  0.09387
      22     C     3.14977  3.14977  0.00000 -0.29954
      23     H     0.45385  0.45385  0.00000  0.09230
      24     H     0.45414  0.45414  0.00000  0.09173
      25     H     0.45516  0.45516  0.00000  0.08969
      26     H     0.44806  0.44806  0.00000  0.10388
      27     H     0.45528  0.45528  0.00000  0.08944

   Total alpha = 37.00000, Total beta = 37.00000, Total charge = -0.00000

*** Psi4 exiting successfully. Buy a developer a beer!
