                              Psi4 1.0.54 Driver

  ==> Input File <==

--------------------------------------------------------------------------
set {
	reference rhf
	basis cc-pvtz
}

set_num_threads( 4 )
memory 2 gb

molecule MOL {
0 1

H	 -4.024094	 -0.454727	 0.000004
C	 -2.962215	 -0.297920	 0.000004
C	 -2.454736	 0.988978	 0.000025
C	 -2.105837	 -1.382632	 -0.000016
H	 -3.120052	 1.830438	 0.000041
C	 -1.090106	 1.189676	 0.000026
H	 -2.500390	 -2.380229	 -0.000033
C	 -0.739175	 -1.183302	 -0.000016
H	 -0.680214	 2.179144	 0.000042
C	 -0.227341	 0.104540	 0.000006
H	 -0.073209	 -2.021168	 -0.000032
C	 1.238974	 0.374429	 0.000004
O	 1.607303	 1.235617	 -0.929876
O	 2.002118	 -0.128910	 0.754617
C	 2.982968	 1.553868	 -1.006180
H	 3.322460	 1.994702	 -0.081093
H	 3.078454	 2.260886	 -1.814015
H	 3.566361	 0.669235	 -1.212278

	symmetry c1
}
set optking {
	frozen_dihedral = ("
		13 12 10 6
	")
}

ee,wfn = optimize('scf', return_wfn=True)
oeprop( wfn, 'DIPOLE', 'QUADRUPOLE', 'MULLIKEN_CHARGES')
f=open( 'psi4out.xyz', 'w' )
f.write( "18  " )
f.write( str(ee) + "\n" )
f.write( MOL.save_string_xyz() )
f.close()
--------------------------------------------------------------------------

    Molecular point group: c1
  Charge       = 0
  Multiplicity = 1
  Basis Set: CC-PVTZ
  Basis Set:
  @DF-RHF Final Energy:  -457.50347500674138
    Total Energy =                       -457.5034750067418372
    Molecular point group: c1
  Basis Set: CC-PVTZ
  Basis Set:
  Basis Set: CC-PVTZ
  Basis Set:
  @DF-RHF Final Energy:  -457.50398927652537
    Total Energy =                       -457.5039892765253171
  Basis Set: CC-PVTZ
  Basis Set:
  Basis Set: CC-PVTZ
  Basis Set:
  @DF-RHF Final Energy:  -457.50300369099909
    Total Energy =                       -457.5030036909986393
  Basis Set: CC-PVTZ
  Basis Set:
  Basis Set: CC-PVTZ
  Basis Set:
  @DF-RHF Final Energy:  -457.50472234637260
    Total Energy =                       -457.5047223463726596
  Basis Set: CC-PVTZ
  Basis Set:
  Basis Set: CC-PVTZ
  Basis Set:
  @DF-RHF Final Energy:  -457.50474920078693
    Total Energy =                       -457.5047492007870460
  Basis Set: CC-PVTZ
  Basis Set:
  Charge       = 0
  Multiplicity = 1
  Basis Set: CC-PVTZ
  Basis Set:

    Orbital Energies (a.u.)
    -----------------------

    Doubly Occupied:

       1A    -20.602628     2A    -20.537960     3A    -11.372997
       4A    -11.281802     5A    -11.247652     6A    -11.242906
       7A    -11.240985     8A    -11.240662     9A    -11.237205
      10A    -11.236540    11A     -1.478278    12A     -1.370787
      13A     -1.171529    14A     -1.052350    15A     -1.029577
      16A     -0.981617    17A     -0.862993    18A     -0.840872
      19A     -0.782682    20A     -0.743026    21A     -0.688258
      22A     -0.682904    23A     -0.680145    24A     -0.633695
      25A     -0.632805    26A     -0.600532    27A     -0.592333
      28A     -0.557293    29A     -0.536463    30A     -0.520504
      31A     -0.511259    32A     -0.504666    33A     -0.464001
      34A     -0.450231    35A     -0.348712    36A     -0.346958

  @DF-RHF Final Energy:  -457.50475111766593

   => Energetics <=

    Nuclear Repulsion Energy =            493.3238610699917217
    One-Electron Energy =               -1601.0456214940381869
    Two-Electron Energy =                 650.2170093063801914
    DFT Exchange-Correlation Energy =       0.0000000000000000
    Empirical Dispersion Energy =           0.0000000000000000
    PCM Polarization Energy =               0.0000000000000000
    EFP Energy =                            0.0000000000000000
    Total Energy =                       -457.5047511176661601
    Molecular point group: c1
  Basis Set: CC-PVTZ
  Basis Set:

  -Total Gradient:
     Atom            X                  Y                   Z
    ------   -----------------  -----------------  -----------------
       1        0.000018073592     0.000002683426     0.000016618040
       2       -0.000001883220    -0.000130625678    -0.000042868737
       3        0.000140161207     0.000064344134     0.000018773326
       4       -0.000132110256     0.000059877413    -0.000020224194
       5        0.000001258253    -0.000011398165    -0.000007294799
       6       -0.000293683061    -0.000478987929     0.005106366798
       7        0.000010169171     0.000009108835     0.000003997942
       8        0.000112061407     0.000148182968     0.000047483628
       9        0.000009411215    -0.000013511107     0.000003944350
      10        0.000316773561    -0.000597727802    -0.008718179041
      11       -0.000004213889    -0.000002520931    -0.000007938658
      12       -0.000750368317     0.004468037752     0.007060333137
      13        0.000330251665    -0.003581748435    -0.003432855871
      14        0.000073300148     0.000033227002     0.000004336506
      15        0.000199982991     0.000030700577    -0.000034833371
      16       -0.000026831656    -0.000005021705    -0.000019218228
      17        0.000011581453    -0.000010571150     0.000019321603
      18       -0.000013934257     0.000015950790     0.000002237569

  **** Optimization is complete! (in 6 steps) ****
    Final optimized geometry and variables:
    Molecular point group: c1

    Geometry (in Angstrom), charge = 0, multiplicity = 1:

    H           -4.007921418139    -0.553675841482     0.167792554826
    C           -2.941763590141    -0.433647452785     0.141627408909
    C           -2.388228925076     0.831601505967     0.196546198739
    C           -2.123395134938    -1.545222767839     0.061493759636
    H           -3.021896082593     1.693963315383     0.272961830697
    C           -1.016647536259     0.987610171610     0.152359824103
    H           -2.552059092944    -2.528094077281     0.026687971269
    C           -0.751455147980    -1.392338411105     0.043639147954
    H           -0.584515864601     1.968553657529     0.181987679423
    C           -0.197436503476    -0.124217912854     0.062098837818
    H           -0.108087542841    -2.249481154097     0.016364519058
    C            1.288754846046     0.010405518357     0.114743182229
    O            1.743067081194     0.925675463369    -0.719970880917
    O            1.988628952825    -0.659034107209     0.795613468921
    C            3.140640185573     1.145762549947    -0.739314727428
    H            3.491067872049     1.454559956282     0.234270671664
    H            3.307246435650     1.927614374391    -1.461982431758
    H            3.660942037319     0.246876089815    -1.033816448428

  Mulliken Charges: (a.u.)
   Center  Symbol    Alpha    Beta     Spin     Total
       1     H     0.42104  0.42104  0.00000  0.15791
       2     C     3.07740  3.07740  0.00000 -0.15479
       3     C     3.06967  3.06967  0.00000 -0.13935
       4     C     3.06754  3.06754  0.00000 -0.13508
       5     H     0.42169  0.42169  0.00000  0.15661
       6     C     3.09125  3.09125  0.00000 -0.18250
       7     H     0.42114  0.42114  0.00000  0.15773
       8     C     3.08837  3.08837  0.00000 -0.17675
       9     H     0.41920  0.41920  0.00000  0.16160
      10     C     2.94834  2.94834  0.00000  0.10332
      11     H     0.41489  0.41489  0.00000  0.17021
      12     C     2.82745  2.82745  0.00000  0.34510
      13     O     4.14528  4.14528  0.00000 -0.29056
      14     O     4.20039  4.20039  0.00000 -0.40078
      15     C     3.03705  3.03705  0.00000 -0.07410
      16     H     0.45385  0.45385  0.00000  0.09231
      17     H     0.44351  0.44351  0.00000  0.11299
      18     H     0.45193  0.45193  0.00000  0.09614

   Total alpha = 36.00000, Total beta = 36.00000, Total charge =  0.00000

*** Psi4 exiting successfully. Buy a developer a beer!
