  ==> Input File <==

--------------------------------------------------------------------------
set {
	reference rhf
	basis cc-pvtz
}

set_num_threads( 4 )
memory 2 gb

molecule MOL {
0 1

H	 2.763410	 0.480786	 -0.705151
N	 2.326826	 -0.066186	 0.000000
C	 0.934676	 -0.005420	 0.000000
H	 2.699348	 -0.986880	 0.023943
C	 0.226436	 -0.001077	 -1.195129
C	 0.226436	 -0.001077	 1.195129
H	 0.759091	 -0.011439	 -2.128123
C	 -1.153391	 0.009141	 -1.189028
H	 0.759091	 -0.011439	 2.128123
C	 -1.153391	 0.009141	 1.189028
H	 -1.680905	 0.012964	 -2.124348
C	 -1.857876	 0.014675	 0.000000
H	 -1.680905	 0.012964	 2.124348
H	 -2.930222	 0.022904	 0.000000

	symmetry c1
}
set optking {
	frozen_dihedral = ("
		1 2 3 5
	")
}

ee = optimize('scf')
oeprop('DIPOLE', 'QUADRUPOLE', 'MULLIKEN_CHARGES')
f=open( 'psi4out.xyz', 'w' )
f.write( "14  " )
f.write( str(ee) + "\n" )
f.write( MOL.save_string_xyz() )
f.close()
--------------------------------------------------------------------------

    Molecular point group: c1
  Charge       = 0
  Multiplicity = 1
  Basis Set: CC-PVTZ
  Basis Set:
  @DF-RHF Final Energy:  -285.82669585657538
    Total Energy =                       -285.8266958565753839
    Molecular point group: c1
  Basis Set: CC-PVTZ
  Basis Set:
  Basis Set: CC-PVTZ
  Basis Set:
  @DF-RHF Final Energy:  -285.82761976332318
    Total Energy =                       -285.8276197633230140
  Basis Set: CC-PVTZ
  Basis Set:
  Basis Set: CC-PVTZ
  Basis Set:
  @DF-RHF Final Energy:  -285.82780236505323
    Total Energy =                       -285.8278023650530599
  Basis Set: CC-PVTZ
  Basis Set:
  Basis Set: CC-PVTZ
  Basis Set:
  @DF-RHF Final Energy:  -285.82786717482520
    Total Energy =                       -285.8278671748252009
  Basis Set: CC-PVTZ
  Basis Set:
  Basis Set: CC-PVTZ
  Basis Set:
  @DF-RHF Final Energy:  -285.82787342575870
    Total Energy =                       -285.8278734257587530
  Basis Set: CC-PVTZ
  Basis Set:
  Charge       = 0
  Multiplicity = 1
  Basis Set: CC-PVTZ
  Basis Set:

    Orbital Energies (a.u.)
    -----------------------

    Doubly Occupied:

       1A    -15.542611     2A    -11.260574     3A    -11.228207
       4A    -11.226801     5A    -11.223081     6A    -11.222669
       7A    -11.218975     8A     -1.210677     9A     -1.131431
      10A     -1.015562    11A     -0.989883    12A     -0.830656
      13A     -0.811051    14A     -0.706049    15A     -0.669666
      16A     -0.648853    17A     -0.627357    18A     -0.594431
      19A     -0.585338    20A     -0.509522    21A     -0.502205
      22A     -0.494930    23A     -0.416301    24A     -0.336176
      25A     -0.323707

  @DF-RHF Final Energy:  -285.82787419346732

   => Energetics <=

    Nuclear Repulsion Energy =            273.0369873290560463
    One-Electron Energy =                -927.0763011199668426
    Two-Electron Energy =                 368.2114395974435865
    DFT Exchange-Correlation Energy =       0.0000000000000000
    Empirical Dispersion Energy =           0.0000000000000000
    PCM Polarization Energy =               0.0000000000000000
    EFP Energy =                            0.0000000000000000
    Total Energy =                       -285.8278741934672098
    Molecular point group: c1
  Basis Set: CC-PVTZ
  Basis Set:

  -Total Gradient:
     Atom            X                  Y                   Z
    ------   -----------------  -----------------  -----------------
       1       -0.000009821381     0.001905845256     0.001550550749
       2       -0.000017820987    -0.003430274094    -0.001931775758
       3        0.000020404339     0.003500321890     0.000351882698
       4        0.000009633193    -0.000006748872    -0.000013078306
       5       -0.000000329870    -0.001992175207     0.000009684874
       6       -0.000032614785     0.000019671241     0.000025941911
       7       -0.000006103397     0.000002139818     0.000006568750
       8       -0.000004337474     0.000048841120     0.000016122062
       9       -0.000000810784    -0.000009704361    -0.000003811950
      10        0.000055332631    -0.000023575236     0.000007348814
      11       -0.000005739867    -0.000006989837    -0.000003907509
      12       -0.000008792663    -0.000011504118    -0.000021240773
      13       -0.000004875586     0.000008749650     0.000004852270
      14        0.000005876631    -0.000004597250     0.000000862165

  **** Optimization is complete! (in 6 steps) ****
    Final optimized geometry and variables:
    Molecular point group: c1

    Geometry (in Angstrom), charge = 0, multiplicity = 1:

    H            2.762646967046     0.530104450097    -0.657088206278
    N            2.350851664543    -0.043198577649     0.045877947443
    C            0.926720100126    -0.008084251274     0.000893569611
    H            2.708696062982    -0.970131351299    -0.038635471563
    C            0.221308533065    -0.007036154080    -1.192606539795
    C            0.224346566543     0.007421692395     1.193784088707
    H            0.757130599369    -0.029609555270    -2.123533918338
    C           -1.160267469470     0.026210986444    -1.192400862474
    H            0.773019859576     0.014195875018     2.115279566384
    C           -1.157657801507     0.022874448557     1.194013068362
    H           -1.691975828379     0.034399581304    -2.125002448057
    C           -1.855868335370     0.036757365718     0.001530769206
    H           -1.688337458815     0.033936470605     2.127129583478
    H           -2.928727618939     0.056872432885     0.002323303562

  Mulliken Charges: (a.u.)
   Center  Symbol    Alpha    Beta     Spin     Total
       1     H     0.42089  0.42089  0.00000  0.15822
       2     N     3.70467  3.70467  0.00000 -0.40934
       3     C     2.89854  2.89854  0.00000  0.20291
       4     H     0.42113  0.42113  0.00000  0.15775
       5     C     3.11340  3.11340  0.00000 -0.22681
       6     C     3.10107  3.10107  0.00000 -0.20215
       7     H     0.42713  0.42713  0.00000  0.14575
       8     C     3.07237  3.07237  0.00000 -0.14474
       9     H     0.41831  0.41831  0.00000  0.16338
      10     C     3.06568  3.06568  0.00000 -0.13136
      11     H     0.42369  0.42369  0.00000  0.15262
      12     C     3.08602  3.08602  0.00000 -0.17205
      13     H     0.42327  0.42327  0.00000  0.15347
      14     H     0.42383  0.42383  0.00000  0.15234

   Total alpha = 25.00000, Total beta = 25.00000, Total charge = -0.00000
