  ==> Input File <==

--------------------------------------------------------------------------
set {
	reference rhf
	basis 6-31G*
}

set_num_threads( 4 )
memory 2 gb

molecule MOL {
0 1

O	 3.225979	 0.970355	 -0.599647
C	 2.701189	 0.057885	 -0.047330
C	 1.245376	 -0.013843	 0.345420
O	 3.347903	 -1.046386	 0.304773
C	 0.455112	 1.231400	 -0.050772
H	 0.838542	 -0.913825	 -0.103701
H	 1.208210	 -0.175333	 1.419774
C	 -0.998893	 1.219485	 0.433193
H	 0.482531	 1.345121	 -1.130325
H	 0.957290	 2.103070	 0.354729
C	 -1.883438	 0.145884	 -0.207175
H	 -1.431207	 2.195402	 0.224832
H	 -1.019646	 1.105716	 1.516076
C	 -3.347647	 0.245583	 0.225435
H	 -1.822183	 0.231698	 -1.291012
H	 -1.510341	 -0.844814	 0.042401
C	 -3.608975	 -0.331820	 1.617715
H	 -3.973188	 -0.271404	 -0.500277
H	 -3.658635	 1.288946	 0.205987
C	 -5.074197	 -0.231831	 2.040593
H	 -3.297839	 -1.374113	 1.639200
H	 -2.987800	 0.186631	 2.345129
H	 -5.227525	 -0.649015	 3.031075
H	 -5.718694	 -0.770415	 1.351574
H	 -5.406333	 0.802329	 2.062313
C	 4.728119	 -1.109107	 -0.004993
H	 4.882018	 -1.033965	 -1.071845
H	 5.068212	 -2.067527	 0.355250
H	 5.265056	 -0.311663	 0.488280

	symmetry c1
}
set optking {
	frozen_dihedral = ("
		17 14 11 15
	")
}

ee = optimize('scf')
oeprop('DIPOLE', 'QUADRUPOLE', 'MULLIKEN_CHARGES')
f=open( 'psi4out.xyz', 'w' )
f.write( "29  " )
f.write( str(ee) + "\n" )
f.write( MOL.save_string_xyz() )
f.close()
--------------------------------------------------------------------------

    Molecular point group: c1
  Charge       = 0
  Multiplicity = 1
  Basis Set: 6-31G*
  Basis Set:
  @DF-RHF Final Energy:  -501.04179022581002
    Total Energy =                       -501.0417902258107006
    Molecular point group: c1
  Basis Set: 6-31G*
  Basis Set:
  Basis Set: 6-31G*
  Basis Set:
  @DF-RHF Final Energy:  -501.04200796926500
    Total Energy =                       -501.0420079692650006
  Basis Set: 6-31G*
  Basis Set:
  Basis Set: 6-31G*
  Basis Set:
  @DF-RHF Final Energy:  -501.04203429518145
    Total Energy =                       -501.0420342951816792
  Basis Set: 6-31G*
  Basis Set:
  Basis Set: 6-31G*
  Basis Set:
  @DF-RHF Final Energy:  -501.04202456165820
    Total Energy =                       -501.0420245616587636
  Basis Set: 6-31G*
  Basis Set:
  Basis Set: 6-31G*
  Basis Set:
  @DF-RHF Final Energy:  -501.04203568122171
    Total Energy =                       -501.0420356812210230
  Basis Set: 6-31G*
  Basis Set:
  Charge       = 0
  Multiplicity = 1
  Basis Set: 6-31G*
  Basis Set:

    Orbital Energies (a.u.)
    -----------------------

    Doubly Occupied:

       1A    -20.603366     2A    -20.545188     3A    -11.372000
       4A    -11.280659     5A    -11.234739     6A    -11.219122
       7A    -11.217501     8A    -11.216143     9A    -11.216016
      10A    -11.214645    11A    -11.209278    12A     -1.469063
      13A     -1.362504    14A     -1.097938    15A     -1.066134
      16A     -1.018315    17A     -0.977032    18A     -0.928944
      19A     -0.861737    20A     -0.811724    21A     -0.781157
      22A     -0.762577    23A     -0.700635    24A     -0.682304
      25A     -0.671827    26A     -0.639283    27A     -0.629066
      28A     -0.612398    29A     -0.596920    30A     -0.580677
      31A     -0.561745    32A     -0.556679    33A     -0.541999
      34A     -0.524762    35A     -0.513449    36A     -0.510790
      37A     -0.495312    38A     -0.482788    39A     -0.472519
      40A     -0.458420    41A     -0.456597    42A     -0.447030
      43A     -0.445679    44A     -0.436501

  @DF-RHF Final Energy:  -501.04203545686107

   => Energetics <=

    Nuclear Repulsion Energy =            615.1918614921017934
    One-Electron Energy =               -1901.5014767798554658
    Two-Electron Energy =                 785.2675798308916910
    DFT Exchange-Correlation Energy =       0.0000000000000000
    Empirical Dispersion Energy =           0.0000000000000000
    PCM Polarization Energy =               0.0000000000000000
    EFP Energy =                            0.0000000000000000
    Total Energy =                       -501.0420354568620951
    Molecular point group: c1
  Basis Set: 6-31G*
  Basis Set:

  -Total Gradient:
     Atom            X                  Y                   Z
    ------   -----------------  -----------------  -----------------
       1        0.000025068150     0.000044067465     0.000093134253
       2       -0.000070720980    -0.000121558436    -0.000258423367
       3        0.000018734486     0.000038542579     0.000086336108
       4        0.000019424097     0.000036982648     0.000075180840
       5        0.000005384690     0.000016964220     0.000001206844
       6        0.000026164843     0.000007125097    -0.000005293941
       7       -0.000019232539    -0.000004998069     0.000007277482
       8        0.000001451324    -0.000028358514    -0.000020607047
       9       -0.000003995002    -0.000004207360     0.000007952388
      10        0.000013751625     0.000007679303    -0.000005320082
      11        0.000083495214     0.001870628877    -0.000035333179
      12        0.000005158771    -0.000002017381     0.000004560289
      13       -0.000005387508    -0.000009290984     0.000004141323
      14        0.000315742728     0.001369454276     0.000778017458
      15       -0.000137774264    -0.001928507952    -0.000164643539
      16        0.000000665991     0.000007383626     0.000002180399
      17       -0.000255751209    -0.001305610437    -0.000615137959
      18       -0.000008256350    -0.000003898396     0.000003768793
      19       -0.000012139551    -0.000002804162     0.000004132630
      20        0.000000852948     0.000008576821     0.000025822030
      21       -0.000007660271    -0.000004163308     0.000004289068
      22        0.000003508392     0.000002380914    -0.000004951448
      23       -0.000011843940     0.000005462837     0.000009801749
      24        0.000011830181    -0.000000975081     0.000003764053
      25        0.000000274390    -0.000000258090    -0.000005075568
      26        0.000000541005     0.000000339918     0.000000793605
      27       -0.000002708667     0.000000665738     0.000000994078
      28        0.000000526955     0.000000729707     0.000001599639
      29        0.000002894482    -0.000000335853    -0.000000166897

  **** Optimization is complete! (in 6 steps) ****
    Final optimized geometry and variables:
    Molecular point group: c1

    Geometry (in Angstrom), charge = 0, multiplicity = 1:

    O            3.114452835885     0.869582187964    -0.995139235271
    C            2.592731874750    -0.035198320338    -0.427470673654
    C            1.141049722458    -0.097860787510    -0.018227292992
    O            3.240155033084    -1.136888849494    -0.068657509728
    C            0.350041957473     1.144673598485    -0.421627632404
    H            0.727060516804    -1.002390651183    -0.451275559922
    H            1.115114451448    -0.245566002241     1.058438071268
    C           -1.098604094843     1.144026782444     0.079096120784
    H            0.365538655118     1.244470442579    -1.502802040120
    H            0.859653840463     2.019701183408    -0.032961734616
    C           -1.993429327985     0.073570352537    -0.554118168552
    H           -1.528026877859     2.120666852698    -0.132062243463
    H           -1.102862312402     1.039895952551     1.162054228804
    C           -3.465239489900     0.153015451108    -0.125455177197
    H           -1.934654873109     0.157117947132    -1.637405968522
    H           -1.616907928541    -0.918942480364    -0.315715409624
    C           -3.749026810219    -0.418367031129     1.266683853237
    H           -4.068737883765    -0.394694117846    -0.846330465132
    H           -3.803548604308     1.186573921940    -0.172882141893
    C           -5.226117166025    -0.334043558175     1.650474005348
    H           -3.427807689628    -1.457435570821     1.295715017650
    H           -3.157459340819     0.105210506573     2.013475385425
    H           -5.401592220125    -0.753820896229     2.636203321182
    H           -5.846410043569    -0.878300587157     0.943842260536
    H           -5.569259676871     0.696601523550     1.664182349684
    C            4.617051301873    -1.206936270907    -0.391360994576
    H            4.760489597851    -1.144955941537    -1.460518184859
    H            4.958291567594    -2.161871126266    -0.023056049038
    H            5.160881141313    -0.405072550416     0.086971701483

  Mulliken Charges: (a.u.)
   Center  Symbol    Alpha    Beta     Spin     Total
       1     O     4.28596  4.28596  0.00000 -0.57192
       2     C     2.60490  2.60490  0.00000  0.79021
       3     C     3.20957  3.20957  0.00000 -0.41913
       4     O     4.30744  4.30744  0.00000 -0.61488
       5     C     3.15387  3.15387  0.00000 -0.30775
       6     H     0.39884  0.39884  0.00000  0.20232
       7     H     0.40124  0.40124  0.00000  0.19752
       8     C     3.15750  3.15750  0.00000 -0.31501
       9     H     0.41311  0.41311  0.00000  0.17377
      10     H     0.40872  0.40872  0.00000  0.18257
      11     C     3.15747  3.15747  0.00000 -0.31494
      12     H     0.41834  0.41834  0.00000  0.16333
      13     H     0.42249  0.42249  0.00000  0.15501
      14     C     3.15238  3.15238  0.00000 -0.30475
      15     H     0.42043  0.42043  0.00000  0.15913
      16     H     0.42377  0.42377  0.00000  0.15245
      17     C     3.15287  3.15287  0.00000 -0.30574
      18     H     0.42158  0.42158  0.00000  0.15683
      19     H     0.42317  0.42317  0.00000  0.15365
      20     C     3.23929  3.23929  0.00000 -0.47858
      21     H     0.42339  0.42339  0.00000  0.15321
      22     H     0.42204  0.42204  0.00000  0.15592
      23     H     0.41933  0.41933  0.00000  0.16134
      24     H     0.42173  0.42173  0.00000  0.15654
      25     H     0.42142  0.42142  0.00000  0.15716
      26     C     3.09240  3.09240  0.00000 -0.18480
      27     H     0.40909  0.40909  0.00000  0.18182
      28     H     0.40852  0.40852  0.00000  0.18297
      29     H     0.40912  0.40912  0.00000  0.18175

   Total alpha = 44.00000, Total beta = 44.00000, Total charge = -0.00000
