  ==> Input File <==

--------------------------------------------------------------------------
set {
	reference rhf
	basis 6-31G*
}

set_num_threads( 4 )
memory 2 gb

molecule MOL {
0 1

O	 2.212898	 -0.347224	 0.055713
C	 1.122059	 0.121804	 -0.000188
C	 -0.170150	 -0.657997	 -0.000612
O	 0.895525	 1.427393	 -0.071563
C	 -1.412532	 0.227344	 -0.000452
H	 -0.153702	 -1.313099	 -0.867402
H	 -0.153924	 -1.313811	 0.865644
C	 -2.706999	 -0.587347	 -0.000541
H	 -1.388000	 0.879466	 -0.868000
H	 -1.387972	 0.879138	 0.867341
C	 -3.956778	 0.291888	 0.000910
H	 -2.726114	 -1.239230	 -0.871609
H	 -2.725217	 -1.240844	 0.869333
H	 -3.985213	 0.933254	 -0.875158
H	 -4.860123	 -0.309979	 0.000519
H	 -3.984618	 0.931166	 0.878514
C	 2.028519	 2.276749	 -0.079270
H	 2.603838	 2.151078	 0.826657
H	 1.642974	 3.282484	 -0.140918
H	 2.657318	 2.063787	 -0.931775

	symmetry c1
}
set optking {
	frozen_dihedral = ("
		1 2 3 6
	")
}

ee = optimize('scf')
oeprop('DIPOLE', 'QUADRUPOLE', 'MULLIKEN_CHARGES')
f=open( 'psi4out.xyz', 'w' )
f.write( "20  " )
f.write( str(ee) + "\n" )
f.write( MOL.save_string_xyz() )
f.close()
--------------------------------------------------------------------------

    Molecular point group: c1
  Charge       = 0
  Multiplicity = 1
  Basis Set: 6-31G*
  Basis Set:
  @DF-RHF Final Energy:  -383.93750552890987
    Total Energy =                       -383.9375055289095826
    Molecular point group: c1
  Basis Set: 6-31G*
  Basis Set:
  Basis Set: 6-31G*
  Basis Set:
  @DF-RHF Final Energy:  -383.93849821168692
    Total Energy =                       -383.9384982116872607
  Basis Set: 6-31G*
  Basis Set:
  Basis Set: 6-31G*
  Basis Set:
  @DF-RHF Final Energy:  -383.93893576671286
    Total Energy =                       -383.9389357667130298
  Basis Set: 6-31G*
  Basis Set:
  Basis Set: 6-31G*
  Basis Set:
  @DF-RHF Final Energy:  -383.93894612461958
    Total Energy =                       -383.9389461246195197
  Basis Set: 6-31G*
  Basis Set:
  Basis Set: 6-31G*
  Basis Set:
  @DF-RHF Final Energy:  -383.93890489518958
    Total Energy =                       -383.9389048951896939
  Basis Set: 6-31G*
  Basis Set:
  Charge       = 0
  Multiplicity = 1
  Basis Set: 6-31G*
  Basis Set:

    Orbital Energies (a.u.)
    -----------------------

    Doubly Occupied:

       1A    -20.606779     2A    -20.540164     3A    -11.372649
       4A    -11.281738     5A    -11.235974     6A    -11.223420
       7A    -11.222363     8A    -11.213326     9A     -1.470396
      10A     -1.360880    11A     -1.091238    12A     -1.023667
      13A     -0.966998    14A     -0.892456    15A     -0.805989
      16A     -0.775029    17A     -0.693016    18A     -0.684458
      19A     -0.670154    20A     -0.647502    21A     -0.593549
      22A     -0.592231    23A     -0.581143    24A     -0.541671
      25A     -0.531680    26A     -0.522834    27A     -0.502554
      28A     -0.494954    29A     -0.478998    30A     -0.475068
      31A     -0.451325    32A     -0.427440

  @DF-RHF Final Energy:  -383.93896521644280

   => Energetics <=

    Nuclear Repulsion Energy =            383.6667859248452146
    One-Electron Energy =               -1283.2682180978740689
    Two-Electron Energy =                 515.6624669565858312
    DFT Exchange-Correlation Energy =       0.0000000000000000
    Empirical Dispersion Energy =           0.0000000000000000
    PCM Polarization Energy =               0.0000000000000000
    EFP Energy =                            0.0000000000000000
    Total Energy =                       -383.9389652164429663
    Molecular point group: c1
  Basis Set: 6-31G*
  Basis Set:

  -Total Gradient:
     Atom            X                  Y                   Z
    ------   -----------------  -----------------  -----------------
       1       -0.000041027224     0.000056537539    -0.000269570996
       2        0.000052129845    -0.000198539857     0.000492649207
       3       -0.000083592360     0.000192039528    -0.000250735242
       4        0.000020351769     0.000113947702    -0.000057146920
       5        0.000052290372    -0.000017319789     0.000000556550
       6        0.000050064093    -0.000142277536     0.000094196613
       7        0.000000143599     0.000001919572     0.000004142930
       8       -0.000011271313    -0.000009875022    -0.000002500059
       9       -0.000003063222     0.000008740774    -0.000003382923
      10       -0.000004328452    -0.000001160163    -0.000006545447
      11       -0.000014845323    -0.000002618666     0.000000463747
      12        0.000003318603     0.000008094367     0.000002096492
      13        0.000005320396     0.000007103698    -0.000001809356
      14        0.000001639079    -0.000001392486    -0.000000161590
      15       -0.000003588011     0.000001630235    -0.000000161508
      16        0.000001312950    -0.000001437583     0.000000789358
      17       -0.000053201669    -0.000042003145     0.000000660537
      18        0.000009130767     0.000008691128     0.000004055842
      19        0.000004758022     0.000006554715    -0.000001754693
      20        0.000014458077     0.000011364992    -0.000005842540

  **** Optimization is complete! (in 6 steps) ****
    Final optimized geometry and variables:
    Molecular point group: c1

    Geometry (in Angstrom), charge = 0, multiplicity = 1:

    O            2.396193258734    -0.742655406657     0.082744352699
    C            1.337952202616    -0.203007630278     0.016418163144
    C            0.024908460041    -0.955447551853     0.006748909830
    O            1.201428662715     1.111125082476    -0.066574394041
    C           -1.253632495038    -0.119452979819     0.011356681002
    H            0.058350332950    -1.602316742185    -0.865643268234
    H            0.055691152373    -1.620495638746     0.864377679540
    C           -2.509069595326    -0.993978413077     0.011290126318
    H           -1.265318865586     0.534605997126    -0.854843807342
    H           -1.262337298925     0.528854590075     0.882532057119
    C           -3.799025613490    -0.174843892041     0.015632217573
    H           -2.497753879297    -1.644138638266    -0.861015245818
    H           -2.494928206731    -1.649054998515     0.879800083642
    H           -3.859296247064     0.465768667325    -0.859477738318
    H           -4.672729713083    -0.818847623233     0.015238973669
    H           -3.856519990375     0.460816791035     0.894540688100
    C            2.391245846482     1.879939791550    -0.072231454160
    H            2.950111207260     1.719606935657     0.838261577074
    H            2.076308987076     2.909353943790    -0.142958153202
    H            3.008245155982     1.616645041760    -0.919022434713

  Mulliken Charges: (a.u.)
   Center  Symbol    Alpha    Beta     Spin     Total
       1     O     4.28929  4.28929  0.00000 -0.57858
       2     C     2.60396  2.60396  0.00000  0.79208
       3     C     3.21254  3.21254  0.00000 -0.42508
       4     O     4.30450  4.30450  0.00000 -0.60899
       5     C     3.14968  3.14968  0.00000 -0.29936
       6     H     0.39835  0.39835  0.00000  0.20329
       7     H     0.39802  0.39802  0.00000  0.20396
       8     C     3.15481  3.15481  0.00000 -0.30962
       9     H     0.41392  0.41392  0.00000  0.17216
      10     H     0.41534  0.41534  0.00000  0.16933
      11     C     3.23934  3.23934  0.00000 -0.47867
      12     H     0.42191  0.42191  0.00000  0.15617
      13     H     0.42176  0.42176  0.00000  0.15648
      14     H     0.42056  0.42056  0.00000  0.15888
      15     H     0.41787  0.41787  0.00000  0.16427
      16     H     0.42057  0.42057  0.00000  0.15887
      17     C     3.09278  3.09278  0.00000 -0.18556
      18     H     0.40811  0.40811  0.00000  0.18378
      19     H     0.40855  0.40855  0.00000  0.18290
      20     H     0.40816  0.40816  0.00000  0.18367

   Total alpha = 32.00000, Total beta = 32.00000, Total charge = -0.00000
