  ==> Input File <==

--------------------------------------------------------------------------
set {
	reference rhf
	basis 6-31G*
}

set_num_threads( 4 )
memory 2 gb

molecule MOL {
0 1

H	 -2.798360	 -0.862255	 -0.071053
N	 -1.863561	 -0.715187	 0.256814
C	 -1.344686	 0.554728	 -0.219830
H	 -1.300452	 -1.461917	 -0.101532
C	 0.168200	 0.552454	 -0.154218
H	 -1.644192	 0.795924	 -1.240674
H	 -1.717151	 1.345428	 0.424255
O	 0.644359	 -0.415393	 -1.045078
H	 0.558325	 1.533650	 -0.423838
H	 0.489946	 0.323224	 0.859275
C	 2.025840	 -0.584684	 -1.024546
H	 2.273397	 -1.349631	 -1.747920
H	 2.543473	 0.334257	 -1.293958
H	 2.373036	 -0.901332	 -0.043221

	symmetry c1
}
set optking {
	frozen_dihedral = ("
		6 3 2 4
	")
}

ee = optimize('scf')
oeprop('DIPOLE', 'QUADRUPOLE', 'MULLIKEN_CHARGES')
f=open( 'psi4out.xyz', 'w' )
f.write( "14  " )
f.write( str(ee) + "\n" )
f.write( MOL.save_string_xyz() )
f.close()
--------------------------------------------------------------------------

    Molecular point group: c1
  Charge       = 0
  Multiplicity = 1
  Basis Set: 6-31G*
  Basis Set:
  @DF-RHF Final Energy:  -248.12412025520536
    Total Energy =                       -248.1241202552055256
    Molecular point group: c1
  Basis Set: 6-31G*
  Basis Set:
  Basis Set: 6-31G*
  Basis Set:
  @DF-RHF Final Energy:  -248.12423688284841
    Total Energy =                       -248.1242368828484928
  Basis Set: 6-31G*
  Basis Set:
  Basis Set: 6-31G*
  Basis Set:
  @DF-RHF Final Energy:  -248.12425360156521
    Total Energy =                       -248.1242536015654423
  Basis Set: 6-31G*
  Basis Set:
  Charge       = 0
  Multiplicity = 1
  Basis Set: 6-31G*
  Basis Set:

    Orbital Energies (a.u.)
    -----------------------

    Doubly Occupied:

       1A    -20.560431     2A    -15.526060     3A    -11.269052
       4A    -11.268537     5A    -11.240597     6A     -1.384386
       7A     -1.171959     8A     -1.000236     9A     -0.909564
      10A     -0.817266    11A     -0.687048    12A     -0.672264
      13A     -0.649307    14A     -0.614639    15A     -0.597757
      16A     -0.545268    17A     -0.533173    18A     -0.498942
      19A     -0.473178    20A     -0.420410    21A     -0.376753

  @DF-RHF Final Energy:  -248.12425439634015

   => Energetics <=

    Nuclear Repulsion Energy =            194.7262643734112260
    One-Electron Energy =                -723.2673805469586341
    Two-Electron Energy =                 280.4168617772073162
    DFT Exchange-Correlation Energy =       0.0000000000000000
    Empirical Dispersion Energy =           0.0000000000000000
    PCM Polarization Energy =               0.0000000000000000
    EFP Energy =                            0.0000000000000000
    Total Energy =                       -248.1242543963400635
    Molecular point group: c1
  Basis Set: 6-31G*
  Basis Set:

  -Total Gradient:
     Atom            X                  Y                   Z
    ------   -----------------  -----------------  -----------------
       1       -0.000004782211     0.000012343115    -0.000007220351
       2       -0.003301226641     0.000230609260    -0.002837191831
       3        0.003812575147    -0.001857581699    -0.000964257814
       4        0.002042325455     0.000126764908     0.002621663389
       5       -0.000073526459     0.000016700009    -0.000021488425
       6       -0.002488439713     0.001466927492     0.001196836330
       7       -0.000008994939     0.000002700759     0.000022099333
       8        0.000009975826     0.000018435952     0.000020537333
       9        0.000023007447     0.000000556723    -0.000015120109
      10       -0.000009503702    -0.000017808769    -0.000023441645
      11       -0.000006165484     0.000005731851     0.000001666270
      12        0.000002490019    -0.000003066063     0.000002790407
      13       -0.000001720585    -0.000000551015     0.000001449859
      14        0.000003985837    -0.000001762523     0.000001677253

  **** Optimization is complete! (in 4 steps) ****
    Final optimized geometry and variables:
    Molecular point group: c1

    Geometry (in Angstrom), charge = 0, multiplicity = 1:

    H           -2.762538400484    -0.698846639837     0.405657567065
    N           -1.811645063142    -0.573857356091     0.689809586681
    C           -1.280491270189     0.696513907875     0.226985983187
    H           -1.272003629411    -1.324928764529     0.306936085989
    C            0.232025052306     0.691784978032     0.290486528015
    H           -1.599040107736     0.959718970504    -0.781937937066
    H           -1.640880521611     1.486061136582     0.881296306243
    O            0.714975331724    -0.284464194977    -0.587049429051
    H            0.620084776422     1.671328677811     0.014359186711
    H            0.554136582776     0.474270462062     1.307179629420
    C            2.099384600781    -0.433589959732    -0.573299696224
    H            2.352421067661    -1.209684967442    -1.282570547913
    H            2.600754539125     0.487105306852    -0.865545505182
    H            2.458414257460    -0.724551494304     0.411794377200

  Mulliken Charges: (a.u.)
   Center  Symbol    Alpha    Beta     Spin     Total
       1     H     0.33207  0.33207  0.00000  0.33586
       2     N     3.93075  3.93075  0.00000 -0.86151
       3     C     3.06100  3.06100  0.00000 -0.12199
       4     H     0.32232  0.32232  0.00000  0.35535
       5     C     2.99788  2.99788  0.00000  0.00424
       6     H     0.42662  0.42662  0.00000  0.14675
       7     H     0.42097  0.42097  0.00000  0.15806
       8     O     4.30891  4.30891  0.00000 -0.61782
       9     H     0.42857  0.42857  0.00000  0.14286
      10     H     0.42265  0.42265  0.00000  0.15469
      11     C     3.07975  3.07975  0.00000 -0.15951
      12     H     0.41178  0.41178  0.00000  0.17644
      13     H     0.42908  0.42908  0.00000  0.14185
      14     H     0.42764  0.42764  0.00000  0.14471

   Total alpha = 21.00000, Total beta = 21.00000, Total charge =  0.00000
