                              Psi4 1.0.54 Driver

  ==> Input File <==

--------------------------------------------------------------------------
set {
	reference rhf
	basis cc-pvtz
}

set_num_threads( 4 )
memory 2 gb

molecule MOL {
0 1

H	 3.460665	 -0.231456	 -0.992397
N	 3.091268	 -0.241216	 -0.065538
C	 1.860978	 0.530248	 0.016256
H	 3.791986	 0.140827	 0.534783
C	 0.644130	 -0.381765	 -0.031064
H	 1.835721	 1.204666	 -0.833114
H	 1.808789	 1.151975	 0.911067
C	 -0.678115	 0.376691	 0.025731
H	 0.693998	 -0.977147	 -0.936845
H	 0.693309	 -1.082142	 0.800523
C	 -1.900706	 -0.535531	 -0.022488
H	 -0.725296	 1.079516	 -0.802982
H	 -0.715474	 0.974884	 0.933278
C	 -3.220513	 0.226854	 0.028039
H	 -1.865036	 -1.134397	 -0.928236
H	 -1.857948	 -1.236381	 0.806820
H	 -3.309098	 0.911849	 -0.808725
H	 -4.066838	 -0.449485	 -0.008086
H	 -3.301685	 0.809374	 0.939860

	symmetry c1
}
set optking {
	frozen_dihedral = ("
		1 2 3 6
	")
}

ee,wfn = optimize('scf', return_wfn=True)
oeprop( wfn, 'DIPOLE', 'QUADRUPOLE', 'MULLIKEN_CHARGES')
f=open( 'psi4out.xyz', 'w' )
f.write( "19  " )
f.write( str(ee) + "\n" )
f.write( MOL.save_string_xyz() )
f.close()
--------------------------------------------------------------------------

    Molecular point group: c1
  Charge       = 0
  Multiplicity = 1
  Basis Set: CC-PVTZ
  Basis Set:
  @DF-RHF Final Energy:  -251.44469627434557
    Total Energy =                       -251.4446962743454037
    Molecular point group: c1
  Basis Set: CC-PVTZ
  Basis Set:
  Basis Set: CC-PVTZ
  Basis Set:
  @DF-RHF Final Energy:  -251.44568278388087
    Total Energy =                       -251.4456827838812956
  Basis Set: CC-PVTZ
  Basis Set:
  Basis Set: CC-PVTZ
  Basis Set:
  @DF-RHF Final Energy:  -251.44588890001864
    Total Energy =                       -251.4458889000185877
  Basis Set: CC-PVTZ
  Basis Set:
  Basis Set: CC-PVTZ
  Basis Set:
  @DF-RHF Final Energy:  -251.44589301929614
    Total Energy =                       -251.4458930192961361
  Basis Set: CC-PVTZ
  Basis Set:
  Charge       = 0
  Multiplicity = 1
  Basis Set: CC-PVTZ
  Basis Set:

    Orbital Energies (a.u.)
    -----------------------

    Doubly Occupied:

       1A    -15.526306     2A    -11.238875     3A    -11.210138
       4A    -11.208138     5A    -11.204223     6A    -11.202321
       7A     -1.176135     8A     -1.072357     9A     -0.998443
      10A     -0.900694    11A     -0.810687    12A     -0.786074
      13A     -0.675760    14A     -0.636101    15A     -0.615895
      16A     -0.580184    17A     -0.568528    18A     -0.554476
      19A     -0.519435    20A     -0.504352    21A     -0.473654
      22A     -0.462906    23A     -0.458570    24A     -0.455994
      25A     -0.381774

  @DF-RHF Final Energy:  -251.44589389487305

   => Energetics <=

    Nuclear Repulsion Energy =            245.6167663310269518
    One-Electron Energy =                -825.6812872913454839
    Two-Electron Energy =                 328.6186270654455370
    DFT Exchange-Correlation Energy =       0.0000000000000000
    Empirical Dispersion Energy =           0.0000000000000000
    PCM Polarization Energy =               0.0000000000000000
    EFP Energy =                            0.0000000000000000
    Total Energy =                       -251.4458938948729951
    Molecular point group: c1
  Basis Set: CC-PVTZ
  Basis Set:

  -Total Gradient:
     Atom            X                  Y                   Z
    ------   -----------------  -----------------  -----------------
       1        0.001189962306     0.001888088093     0.000486245425
       2       -0.001763962396    -0.002747396003    -0.000921080876
       3        0.001571894506     0.002291390928     0.001500789497
       4        0.000004122442    -0.000005814686     0.000004500515
       5        0.000044948412     0.000044140383     0.000019453485
       6       -0.001006372005    -0.001480433043    -0.001102993429
       7       -0.000028560481    -0.000008206840     0.000001478715
       8       -0.000003889304    -0.000002747226     0.000004063219
       9        0.000014397267     0.000023525690     0.000010443300
      10        0.000003547585     0.000002070831     0.000002562381
      11       -0.000010006577     0.000014921314    -0.000010182414
      12        0.000003757262    -0.000006839986     0.000008673447
      13        0.000000610254    -0.000005940617    -0.000004943397
      14       -0.000014897475    -0.000012880865     0.000004054658
      15       -0.000000073657    -0.000000361244     0.000000375670
      16       -0.000003534513     0.000008805695    -0.000003526706
      17        0.000003937400    -0.000004840815     0.000001909236
      18       -0.000008568628     0.000003027334     0.000001831633
      19        0.000002687598    -0.000000508943    -0.000003654360

  **** Optimization is complete! (in 5 steps) ****
    Final optimized geometry and variables:
    Molecular point group: c1

    Geometry (in Angstrom), charge = 0, multiplicity = 1:

    H            3.434246700286    -0.225889809712    -1.164906999979
    N            3.093054363834    -0.236639174703    -0.228214550341
    C            1.854799429536     0.528145769506    -0.102331055874
    H            3.814437463747     0.150315655551     0.340206721029
    C            0.637508115174    -0.387181805455    -0.056674070303
    H            1.731587947423     1.229318952515    -0.925167348319
    H            1.892738440367     1.116689710108     0.807785258736
    C           -0.680682994406     0.370096926030     0.067127677509
    H            0.626653793911    -0.998052745638    -0.955689642434
    H            0.753571219901    -1.073953333781     0.775736282524
    C           -1.902039042289    -0.543890015575     0.114254226651
    H           -0.784136944469     1.059072709686    -0.768533895695
    H           -0.661714739478     0.984731504072     0.964810757647
    C           -3.217752738975     0.216998683885     0.239222882109
    H           -1.924653568442    -1.157432127640    -0.782175795599
    H           -1.802617013623    -1.231047575440     0.949843219485
    H           -3.363290854813     0.888133118080    -0.600894112157
    H           -4.062973239026    -0.461104030673     0.270237920389
    H           -3.240049459852     0.814290172897     1.144818196723

  Mulliken Charges: (a.u.)
   Center  Symbol    Alpha    Beta     Spin     Total
       1     H     0.42920  0.42920  0.00000  0.14160
       2     N     3.69296  3.69296  0.00000 -0.38592
       3     C     3.04465  3.04465  0.00000 -0.08930
       4     H     0.42651  0.42651  0.00000  0.14698
       5     C     3.06480  3.06480  0.00000 -0.12960
       6     H     0.46154  0.46154  0.00000  0.07691
       7     H     0.45637  0.45637  0.00000  0.08726
       8     C     3.09657  3.09657  0.00000 -0.19315
       9     H     0.45847  0.45847  0.00000  0.08306
      10     H     0.45374  0.45374  0.00000  0.09252
      11     C     3.08282  3.08282  0.00000 -0.16564
      12     H     0.45720  0.45720  0.00000  0.08561
      13     H     0.45681  0.45681  0.00000  0.08638
      14     C     3.14966  3.14966  0.00000 -0.29932
      15     H     0.45456  0.45456  0.00000  0.09088
      16     H     0.45404  0.45404  0.00000  0.09191
      17     H     0.45579  0.45579  0.00000  0.08841
      18     H     0.44868  0.44868  0.00000  0.10264
      19     H     0.45562  0.45562  0.00000  0.08877

   Total alpha = 25.00000, Total beta = 25.00000, Total charge = -0.00000

*** Psi4 exiting successfully. Buy a developer a beer!
