  ==> Input File <==

--------------------------------------------------------------------------
set {
	reference rhf
	basis 6-31G*
}

set_num_threads( 1 )
memory 2 gb

molecule MOL {
0 1

H	 -2.798360	 -0.862255	 -0.071053
N	 -1.863561	 -0.715187	 0.256814
C	 -1.344686	 0.554728	 -0.219830
H	 -1.300452	 -1.461917	 -0.101532
C	 0.068734	 0.757699	 0.284333
H	 -1.338440	 0.646160	 -1.306846
H	 -1.968599	 1.352935	 0.170528
O	 0.882983	 -0.227431	 -0.284529
H	 0.429223	 1.747830	 0.006256
H	 0.084691	 0.680208	 1.369218
C	 2.201313	 -0.211062	 0.161910
H	 2.728759	 -1.008572	 -0.343537
H	 2.688354	 0.734435	 -0.070054
H	 2.259396	 -0.374769	 1.235984

	symmetry c1
}
set optking {
	frozen_dihedral = ("
		8 5 3 6,
		5 8 11 13,
		11 8 5 3
	")
}

ee = energy('scf')
oeprop('DIPOLE', 'QUADRUPOLE', 'MULLIKEN_CHARGES')
f=open( 'psi4out.xyz', 'w' )
f.write( "14  " )
f.write( str(ee) + "\n" )
f.write( MOL.save_string_xyz() )
f.close()
--------------------------------------------------------------------------

    Molecular point group: c1

    Geometry (in Angstrom), charge = 0, multiplicity = 1:

       Center              X                  Y                   Z               Mass
    ------------   -----------------  -----------------  -----------------  -----------------
           H         -2.797330251337    -0.875965921255    -0.106461295166     1.007825032070
           N         -1.862531251337    -0.728897921255     0.221405704834    14.003074004780
           C         -1.343656251337     0.541017078745    -0.255238295166    12.000000000000
           H         -1.299422251337    -1.475627921255    -0.136940295166     1.007825032070
           C          0.069763748663     0.743988078745     0.248924704834    12.000000000000
           H         -1.337410251337     0.632449078745    -1.342254295166     1.007825032070
           H         -1.967569251337     1.339224078745     0.135119704834     1.007825032070
           O          0.884012748663    -0.241141921255    -0.319937295166    15.994914619560
           H          0.430252748663     1.734119078745    -0.029152295166     1.007825032070
           H          0.085720748663     0.666497078745     1.333809704834     1.007825032070
           C          2.202342748663    -0.224772921255     0.126501704834    12.000000000000
           H          2.729788748663    -1.022282921255    -0.378945295166     1.007825032070
           H          2.689383748663     0.720724078745    -0.105462295166     1.007825032070
           H          2.260425748663    -0.388479921255     1.200575704834     1.007825032070

  Charge       = 0
  Multiplicity = 1
  Basis Set: 6-31G*
  Basis Set:

    Orbital Energies (a.u.)
    -----------------------

    Doubly Occupied:

       1A    -20.557202     2A    -15.528622     3A    -11.266022
       4A    -11.265347     5A    -11.240878     6A     -1.381174
       7A     -1.173733     8A     -0.998925     9A     -0.907018
      10A     -0.815030    11A     -0.683576    12A     -0.674097
      13A     -0.645030    14A     -0.609746    15A     -0.605965
      16A     -0.540224    17A     -0.529800    18A     -0.496899
      19A     -0.472691    20A     -0.417352    21A     -0.380248

  @DF-RHF Final Energy:  -248.12526328842921

   => Energetics <=

    Nuclear Repulsion Energy =            194.6536769097286310
    One-Electron Energy =                -723.1786752849258164
    Two-Electron Energy =                 280.3997350867678051
    DFT Exchange-Correlation Energy =       0.0000000000000000
    Empirical Dispersion Energy =           0.0000000000000000
    PCM Polarization Energy =               0.0000000000000000
    EFP Energy =                            0.0000000000000000
    Total Energy =                       -248.1252632884293234

  Mulliken Charges: (a.u.)
   Center  Symbol    Alpha    Beta     Spin     Total
       1     H     0.33281  0.33281  0.00000  0.33437
       2     N     3.92487  3.92487  0.00000 -0.84974
       3     C     3.06956  3.06956  0.00000 -0.13911
       4     H     0.32386  0.32386  0.00000  0.35229
       5     C     2.98942  2.98942  0.00000  0.02116
       6     H     0.42653  0.42653  0.00000  0.14693
       7     H     0.42047  0.42047  0.00000  0.15905
       8     O     4.30969  4.30969  0.00000 -0.61938
       9     H     0.43122  0.43122  0.00000  0.13755
      10     H     0.42261  0.42261  0.00000  0.15479
      11     C     3.07897  3.07897  0.00000 -0.15795
      12     H     0.41256  0.41256  0.00000  0.17489
      13     H     0.42998  0.42998  0.00000  0.14003
      14     H     0.42745  0.42745  0.00000  0.14511

   Total alpha = 21.00000, Total beta = 21.00000, Total charge = -0.00000
