                              Psi4 1.0.54 Driver

  ==> Input File <==

--------------------------------------------------------------------------
set {
	reference rhf
	basis cc-pvtz
}

set_num_threads( 4 )
memory 2 gb

molecule MOL {
0 1

H	 -4.081269	 0.437924	 -0.786775
C	 -3.394976	 -0.181457	 -0.246703
C	 -2.105997	 -0.000418	 -0.398703
H	 -3.783562	 -0.935915	 0.408731
O	 -1.189946	 -0.765863	 0.237511
H	 -1.705760	 0.758172	 -1.046375
C	 0.026572	 -0.995256	 -0.379403
C	 1.057223	 0.049888	 -0.004615
H	 -0.054361	 -1.010670	 -1.459674
H	 0.397526	 -1.952058	 -0.044198
F	 2.203233	 -0.234060	 -0.590375
F	 0.698147	 1.254887	 -0.392621
F	 1.266440	 0.094219	 1.288722

	symmetry c1
}
set optking {
	frozen_dihedral = ("
		6 3 5 7
	")
}

ee,wfn = optimize('scf', return_wfn=True)
oeprop( wfn, 'DIPOLE', 'QUADRUPOLE', 'MULLIKEN_CHARGES')
f=open( 'psi4out.xyz', 'w' )
f.write( "13  " )
f.write( str(ee) + "\n" )
f.write( MOL.save_string_xyz() )
f.close()
--------------------------------------------------------------------------

    Molecular point group: c1
  Charge       = 0
  Multiplicity = 1
  Basis Set: CC-PVTZ
  Basis Set:
  @DF-RHF Final Energy:  -527.74111444138737
    Total Energy =                       -527.7411144413872535
    Molecular point group: c1
  Basis Set: CC-PVTZ
  Basis Set:
  Basis Set: CC-PVTZ
  Basis Set:
  @DF-RHF Final Energy:  -527.74121204417304
    Total Energy =                       -527.7412120441730394
  Basis Set: CC-PVTZ
  Basis Set:
  Basis Set: CC-PVTZ
  Basis Set:
  @DF-RHF Final Energy:  -527.74152399686432
    Total Energy =                       -527.7415239968639753
  Basis Set: CC-PVTZ
  Basis Set:
  Basis Set: CC-PVTZ
  Basis Set:
  @DF-RHF Final Energy:  -527.74154410698361
    Total Energy =                       -527.7415441069839517
  Basis Set: CC-PVTZ
  Basis Set:
  Basis Set: CC-PVTZ
  Basis Set:
  @DF-RHF Final Energy:  -527.74155313090955
    Total Energy =                       -527.7415531309094376
  Basis Set: CC-PVTZ
  Basis Set:
  Basis Set: CC-PVTZ
  Basis Set:
  @DF-RHF Final Energy:  -527.74155433442752
    Total Energy =                       -527.7415543344278603
  Basis Set: CC-PVTZ
  Basis Set:
  Charge       = 0
  Multiplicity = 1
  Basis Set: CC-PVTZ
  Basis Set:

    Orbital Energies (a.u.)
    -----------------------

    Doubly Occupied:

       1A    -26.341795     2A    -26.340961     3A    -26.337883
       4A    -20.601184     5A    -11.497739     6A    -11.318744
       7A    -11.297585     8A    -11.217768     9A     -1.750436
      10A     -1.647036    11A     -1.645289    12A     -1.441345
      13A     -1.087734    14A     -1.020884    15A     -0.932135
      16A     -0.843381    17A     -0.839669    18A     -0.827872
      19A     -0.792863    20A     -0.731234    21A     -0.719290
      22A     -0.707270    23A     -0.681806    24A     -0.666807
      25A     -0.661507    26A     -0.651018    27A     -0.633861
      28A     -0.596842    29A     -0.569029    30A     -0.533588
      31A     -0.501245    32A     -0.362428

  @DF-RHF Final Energy:  -527.74155457494840

   => Energetics <=

    Nuclear Repulsion Energy =            411.8766933941871571
    One-Electron Energy =               -1547.6400442113967983
    Two-Electron Energy =                 608.0217962422613027
    DFT Exchange-Correlation Energy =       0.0000000000000000
    Empirical Dispersion Energy =           0.0000000000000000
    PCM Polarization Energy =               0.0000000000000000
    EFP Energy =                            0.0000000000000000
    Total Energy =                       -527.7415545749482817
    Molecular point group: c1
  Basis Set: CC-PVTZ
  Basis Set:

  -Total Gradient:
     Atom            X                  Y                   Z
    ------   -----------------  -----------------  -----------------
       1       -0.000002327541     0.000004864338    -0.000001408404
       2        0.000009832702    -0.000023729423     0.000007600636
       3       -0.000129239207    -0.001218701671    -0.001060515218
       4        0.000011782330     0.000013126468    -0.000008130338
       5        0.000382077320     0.001215218416     0.000648762884
       6       -0.000009159225     0.000675133981     0.000696001399
       7       -0.000279773354    -0.000662233700    -0.000270546573
       8        0.000042858833    -0.000061526659    -0.000008493402
       9        0.000002921326     0.000005282235    -0.000002364200
      10       -0.000001049958     0.000012460815    -0.000001481355
      11        0.000003707695     0.000017263716    -0.000013797628
      12       -0.000005408318    -0.000011442329     0.000025236725
      13       -0.000026222603     0.000034283809    -0.000010864530

  **** Optimization is complete! (in 7 steps) ****
    Final optimized geometry and variables:
    Molecular point group: c1

    Geometry (in Angstrom), charge = 0, multiplicity = 1:

    H           -4.107800636106     0.470092304807    -0.740811046505
    C           -3.399801034871    -0.125943417963    -0.201886478389
    C           -2.118348613079     0.026733030365    -0.429807601165
    H           -3.760400417380    -0.823530713837     0.528470994898
    O           -1.179145166944    -0.660150351922     0.264575481610
    H           -1.741532646830     0.734007280516    -1.145592380108
    C            0.035388212669    -0.908718497201    -0.355312533918
    C            1.083784314799     0.104169204691     0.054376416220
    H           -0.039802472844    -0.895658276329    -1.435312406674
    H            0.383912385376    -1.882168602789    -0.043316383062
    F            2.225910310335    -0.177721571536    -0.539098195476
    F            0.745206313477     1.328690615742    -0.292795792655
    F            1.291672114343     0.102830079010     1.348698343554

  Mulliken Charges: (a.u.)
   Center  Symbol    Alpha    Beta     Spin     Total
       1     H     0.42511  0.42511  0.00000  0.14977
       2     C     3.19055  3.19055  0.00000 -0.38109
       3     C     2.96859  2.96859  0.00000  0.06282
       4     H     0.42365  0.42365  0.00000  0.15270
       5     O     4.14857  4.14857  0.00000 -0.29714
       6     H     0.42944  0.42944  0.00000  0.14113
       7     C     3.01640  3.01640  0.00000 -0.03280
       8     C     2.67503  2.67503  0.00000  0.64994
       9     H     0.45596  0.45596  0.00000  0.08808
      10     H     0.43619  0.43619  0.00000  0.12762
      11     F     4.61241  4.61241  0.00000 -0.22482
      12     F     4.61160  4.61160  0.00000 -0.22320
      13     F     4.60651  4.60651  0.00000 -0.21302

   Total alpha = 32.00000, Total beta = 32.00000, Total charge = -0.00000

*** Psi4 exiting successfully. Buy a developer a beer!
