  ==> Input File <==

--------------------------------------------------------------------------
set {
	reference rhf
	basis 6-31G*
}

set_num_threads( 4 )
memory 2 gb

molecule MOL {
0 1

H	 0.804159	 -0.877737	 1.568792
O	 1.210317	 -0.606189	 0.756911
C	 0.679396	 0.628361	 0.372239
C	 -0.793441	 0.596080	 0.058728
H	 1.232542	 0.934205	 -0.508494
H	 0.865778	 1.384197	 1.134472
C	 -1.530462	 -0.493172	 -0.025500
H	 -1.244701	 1.562167	 -0.107175
H	 -1.092586	 -1.461565	 -0.186463
H	 -2.602122	 -0.450675	 0.050101

	symmetry c1
}
set optking {
	frozen_dihedral = ("
		3 4 7 9
	")
}

ee = optimize('scf')
oeprop('DIPOLE', 'QUADRUPOLE', 'MULLIKEN_CHARGES')
f=open( 'psi4out.xyz', 'w' )
f.write( "10  " )
f.write( str(ee) + "\n" )
f.write( MOL.save_string_xyz() )
f.close()
--------------------------------------------------------------------------

    Molecular point group: c1
  Charge       = 0
  Multiplicity = 1
  Basis Set: 6-31G*
  Basis Set:
  @DF-RHF Final Energy:  -191.90854049475578
    Total Energy =                       -191.9085404947558402
    Molecular point group: c1
  Basis Set: 6-31G*
  Basis Set:
  Basis Set: 6-31G*
  Basis Set:
  @DF-RHF Final Energy:  -191.91403070053892
    Total Energy =                       -191.9140307005387172
  Basis Set: 6-31G*
  Basis Set:
  Basis Set: 6-31G*
  Basis Set:
  @DF-RHF Final Energy:  -191.91415204751985
    Total Energy =                       -191.9141520475198206
  Basis Set: 6-31G*
  Basis Set:
  Basis Set: 6-31G*
  Basis Set:
  @DF-RHF Final Energy:  -191.91424305962477
    Total Energy =                       -191.9142430596247095
  Basis Set: 6-31G*
  Basis Set:
  Basis Set: 6-31G*
  Basis Set:
  @DF-RHF Final Energy:  -191.91424602342670
    Total Energy =                       -191.9142460234266991
  Basis Set: 6-31G*
  Basis Set:
  Charge       = 0
  Multiplicity = 1
  Basis Set: 6-31G*
  Basis Set:

    Orbital Energies (a.u.)
    -----------------------

    Doubly Occupied:

       1A    -20.560310     2A    -11.279068     3A    -11.233573
       4A    -11.220400     5A     -1.369470     6A     -1.058909
       7A     -0.929695     8A     -0.769596     9A     -0.687682
      10A     -0.661593    11A     -0.617966    12A     -0.569564
      13A     -0.536768    14A     -0.495010    15A     -0.447341
      16A     -0.364911

  @DF-RHF Final Energy:  -191.91424628217243

   => Energetics <=

    Nuclear Repulsion Energy =            119.3959645061914188
    One-Electron Energy =                -497.0167091520921190
    Two-Electron Energy =                 185.7064983637282580
    DFT Exchange-Correlation Energy =       0.0000000000000000
    Empirical Dispersion Energy =           0.0000000000000000
    PCM Polarization Energy =               0.0000000000000000
    EFP Energy =                            0.0000000000000000
    Total Energy =                       -191.9142462821724280
    Molecular point group: c1
  Basis Set: 6-31G*
  Basis Set:

  -Total Gradient:
     Atom            X                  Y                   Z
    ------   -----------------  -----------------  -----------------
       1       -0.000004768583     0.000016281835    -0.000004272304
       2        0.000028454428    -0.000003715570    -0.000016288243
       3       -0.001810490559     0.001513042680     0.007473634310
       4        0.002760433978    -0.002492654385    -0.016888301248
       5        0.000008904628    -0.000014562531    -0.000000674199
       6       -0.000001846790     0.000001737801    -0.000014300009
       7       -0.000391586997     0.000967353432     0.019847139832
       8       -0.000013140292     0.000011621096     0.000029624134
       9       -0.000566567803     0.000004401514    -0.010429102482
      10       -0.000009392011    -0.000003505872     0.000002540209

  **** Optimization is complete! (in 6 steps) ****
    Final optimized geometry and variables:
    Molecular point group: c1

    Geometry (in Angstrom), charge = 0, multiplicity = 1:

    H            0.830215119149    -0.936439658109     1.153611422476
    O            1.270041595018    -0.604419424129     0.382605153968
    C            0.718470555868     0.632919748106     0.042714861591
    C           -0.747452822270     0.581978290320    -0.299522973984
    H            1.295534418786     0.999282671181    -0.799004036235
    H            0.852215486835     1.353910269165     0.848560596715
    C           -1.505293223956    -0.497364537654    -0.260651591882
    H           -1.211925339349     1.549273724003    -0.417629427780
    H           -1.086170411313    -1.487757741138    -0.284346970692
    H           -2.567995616237    -0.429242856306    -0.412108978152

  Mulliken Charges: (a.u.)
   Center  Symbol    Alpha    Beta     Spin     Total
       1     H     0.28051  0.28051  0.00000  0.43898
       2     O     4.36650  4.36650  0.00000 -0.73299
       3     C     3.00232  3.00232  0.00000 -0.00465
       4     C     3.08640  3.08640  0.00000 -0.17279
       5     H     0.40935  0.40935  0.00000  0.18129
       6     H     0.42407  0.42407  0.00000  0.15186
       7     C     3.20378  3.20378  0.00000 -0.40756
       8     H     0.41074  0.41074  0.00000  0.17853
       9     H     0.40492  0.40492  0.00000  0.19016
      10     H     0.41142  0.41142  0.00000  0.17716

   Total alpha = 16.00000, Total beta = 16.00000, Total charge = -0.00000
