  ==> Input File <==

--------------------------------------------------------------------------
set {
	reference rhf
	basis 6-31G*
}

set_num_threads( 4 )
memory 2 gb

molecule MOL {
0 1

H	 -0.944757	 -0.000069	 1.678017
O	 -0.042387	 -0.000390	 1.388199
C	 -0.001487	 0.000018	 -0.026623
C	 -1.235034	 -0.720102	 -0.574737
C	 0.059319	 1.441103	 -0.536742
C	 1.271815	 -0.756205	 -0.388908
H	 -1.213230	 -0.774021	 -1.658488
H	 -2.145666	 -0.198940	 -0.288303
H	 -1.287046	 -1.728721	 -0.179767
H	 0.131717	 1.475343	 -1.619182
H	 -0.833484	 1.991033	 -0.247933
H	 0.918823	 1.951816	 -0.116861
H	 1.397377	 -0.813111	 -1.465356
H	 1.234918	 -1.764082	 0.008973
H	 2.136625	 -0.257996	 0.034512

	symmetry c1
}
set optking {
	frozen_dihedral = ("
		4 3 2 1
	")
}

ee = optimize('scf')
oeprop('DIPOLE', 'QUADRUPOLE', 'MULLIKEN_CHARGES')
f=open( 'psi4out.xyz', 'w' )
f.write( "15  " )
f.write( str(ee) + "\n" )
f.write( MOL.save_string_xyz() )
f.close()
--------------------------------------------------------------------------

    Molecular point group: c1
  Charge       = 0
  Multiplicity = 1
  Basis Set: 6-31G*
  Basis Set:
  @DF-RHF Final Energy:  -232.15194727301761
    Total Energy =                       -232.1519472730178677
    Molecular point group: c1
  Basis Set: 6-31G*
  Basis Set:
  Basis Set: 6-31G*
  Basis Set:
  @DF-RHF Final Energy:  -232.15204067375581
    Total Energy =                       -232.1520406737558346
  Basis Set: 6-31G*
  Basis Set:
  Basis Set: 6-31G*
  Basis Set:
  @DF-RHF Final Energy:  -232.15208721282247
    Total Energy =                       -232.1520872128223800
  Basis Set: 6-31G*
  Basis Set:
  Charge       = 0
  Multiplicity = 1
  Basis Set: 6-31G*
  Basis Set:

    Orbital Energies (a.u.)
    -----------------------

    Doubly Occupied:

       1A    -20.547795     2A    -11.281941     3A    -11.216667
       4A    -11.206062     5A    -11.204862     6A     -1.359347
       7A     -1.063546     8A     -0.944459     9A     -0.936517
      10A     -0.775635    11A     -0.669766    12A     -0.622748
      13A     -0.620883    14A     -0.574904    15A     -0.556420
      16A     -0.532565    17A     -0.516807    18A     -0.508922
      19A     -0.502116    20A     -0.457479    21A     -0.423438

  @DF-RHF Final Energy:  -232.15208641578445

   => Energetics <=

    Nuclear Repulsion Energy =            200.3034801104886071
    One-Electron Energy =                -711.8653731267277180
    Two-Electron Energy =                 279.4098066004546013
    DFT Exchange-Correlation Energy =       0.0000000000000000
    Empirical Dispersion Energy =           0.0000000000000000
    PCM Polarization Energy =               0.0000000000000000
    EFP Energy =                            0.0000000000000000
    Total Energy =                       -232.1520864157844812
    Molecular point group: c1
  Basis Set: 6-31G*
  Basis Set:

  -Total Gradient:
     Atom            X                  Y                   Z
    ------   -----------------  -----------------  -----------------
       1        0.000168931216    -0.002191655609    -0.000085620909
       2       -0.000175427448     0.003251289430    -0.000027628471
       3        0.000722812008    -0.002259084730    -0.000049226656
       4       -0.000740630912     0.001294733430    -0.000022258513
       5       -0.000070417558     0.000152302882    -0.000012422237
       6       -0.000158819191    -0.000088839044     0.000125464334
       7        0.000005090889     0.000004828375     0.000096960335
       8       -0.000002798724     0.000013288277     0.000030348611
       9        0.000058171569    -0.000185126367    -0.000099005326
      10        0.000159885805     0.000040742484    -0.000111264642
      11        0.000130623885    -0.000194313120     0.000040766677
      12       -0.000068642419     0.000138126462     0.000025093649
      13       -0.000068575856     0.000113479475     0.000061902848
      14        0.000048632280    -0.000098177077    -0.000011968399
      15       -0.000008835544     0.000008405132     0.000038858700

  **** Optimization is complete! (in 4 steps) ****
    Final optimized geometry and variables:
    Molecular point group: c1

    Geometry (in Angstrom), charge = 0, multiplicity = 1:

    H           -0.936260895710     0.039819845994     1.688546612883
    O           -0.038127133586     0.025526330043     1.390567932527
    C            0.002098206247    -0.000131573231    -0.026390749880
    C           -1.234278473289    -0.716194290239    -0.571530853959
    C            0.056395474117     1.440677157841    -0.539306544839
    C            1.275965490192    -0.753814567301    -0.392558262085
    H           -1.213263517067    -0.764938035159    -1.654826501845
    H           -2.142899861287    -0.191487246866    -0.284155121146
    H           -1.289470662821    -1.729977444191    -0.186894102496
    H            0.138440200347     1.476479501728    -1.621696745012
    H           -0.839934050273     1.981269542630    -0.249748110378
    H            0.908922680883     1.956253263387    -0.111556525445
    H            1.418381562001    -0.780218263551    -1.468247867636
    H            1.232352852519    -1.772104596158    -0.022165676771
    H            2.136002569827    -0.269403806356     0.056326553953

  Mulliken Charges: (a.u.)
   Center  Symbol    Alpha    Beta     Spin     Total
       1     H     0.28164  0.28164  0.00000  0.43671
       2     O     4.37994  4.37994  0.00000 -0.75988
       3     C     2.84869  2.84869  0.00000  0.30262
       4     C     3.25414  3.25414  0.00000 -0.50829
       5     C     3.23354  3.23354  0.00000 -0.46709
       6     C     3.23270  3.23270  0.00000 -0.46540
       7     H     0.41615  0.41615  0.00000  0.16770
       8     H     0.42402  0.42402  0.00000  0.15196
       9     H     0.41341  0.41341  0.00000  0.17318
      10     H     0.42490  0.42490  0.00000  0.15019
      11     H     0.42450  0.42450  0.00000  0.15100
      12     H     0.41288  0.41288  0.00000  0.17425
      13     H     0.42483  0.42483  0.00000  0.15035
      14     H     0.41604  0.41604  0.00000  0.16792
      15     H     0.41261  0.41261  0.00000  0.17477

   Total alpha = 21.00000, Total beta = 21.00000, Total charge =  0.00000
