  ==> Input File <==

--------------------------------------------------------------------------
set {
	reference rhf
	basis cc-pvtz
}

set_num_threads( 4 )
memory 2 gb

molecule MOL {
0 1

H	 3.083659	 -1.378387	 0.000000
O	 2.179005	 -1.633391	 0.000000
C	 1.366950	 -0.558201	 0.000000
C	 0.600678	 -0.208892	 1.101586
C	 1.312960	 0.206260	 -1.147477
H	 0.643953	 -0.805529	 1.994659
C	 -0.216594	 0.902281	 1.053442
H	 1.903554	 -0.060903	 -1.999924
C	 0.491208	 1.318248	 -1.187149
H	 -0.804918	 1.162863	 1.911810
C	 -0.276336	 1.672305	 -0.090635
C	 0.423969	 2.150088	 -2.417149
H	 -0.910924	 2.536917	 -0.131032
O	 1.035083	 1.939255	 -3.407861
H	 -0.252976	 3.007529	 -2.352806

	symmetry c1
}
set optking {
	frozen_dihedral = ("
		4 3 2 1
	")
}

ee = optimize('scf')
oeprop('DIPOLE', 'QUADRUPOLE', 'MULLIKEN_CHARGES')
f=open( 'psi4out.xyz', 'w' )
f.write( "15  " )
f.write( str(ee) + "\n" )
f.write( MOL.save_string_xyz() )
f.close()
--------------------------------------------------------------------------

    Molecular point group: c1
  Charge       = 0
  Multiplicity = 1
  Basis Set: CC-PVTZ
  Basis Set:
  @DF-RHF Final Energy:  -418.43471862490844
    Total Energy =                       -418.4347186249081005
    Molecular point group: c1
  Basis Set: CC-PVTZ
  Basis Set:
  Basis Set: CC-PVTZ
  Basis Set:
  @DF-RHF Final Energy:  -418.43581649166686
    Total Energy =                       -418.4358164916668557
  Basis Set: CC-PVTZ
  Basis Set:
  Basis Set: CC-PVTZ
  Basis Set:
  @DF-RHF Final Energy:  -418.43486982282320
    Total Energy =                       -418.4348698228230887
  Basis Set: CC-PVTZ
  Basis Set:
  Basis Set: CC-PVTZ
  Basis Set:
  @DF-RHF Final Energy:  -418.43591432372813
    Total Energy =                       -418.4359143237281842
  Basis Set: CC-PVTZ
  Basis Set:
  Basis Set: CC-PVTZ
  Basis Set:
  @DF-RHF Final Energy:  -418.43592446281400
    Total Energy =                       -418.4359244628142278
  Basis Set: CC-PVTZ
  Basis Set:
  Charge       = 0
  Multiplicity = 1
  Basis Set: CC-PVTZ
  Basis Set:

    Orbital Energies (a.u.)
    -----------------------

    Doubly Occupied:

       1A    -20.582934     2A    -20.555750     3A    -11.329535
       4A    -11.303952     5A    -11.251317     6A    -11.249886
       7A    -11.248578     8A    -11.246254     9A    -11.243065
      10A     -1.411972    11A     -1.410873    12A     -1.175283
      13A     -1.052887    14A     -1.030139    15A     -0.901048
      16A     -0.852096    17A     -0.802207    18A     -0.750571
      19A     -0.702387    20A     -0.680966    21A     -0.660597
      22A     -0.637664    23A     -0.623212    24A     -0.611154
      25A     -0.563079    26A     -0.550012    27A     -0.535013
      28A     -0.507085    29A     -0.492307    30A     -0.428016
      31A     -0.357251    32A     -0.345407

  @DF-RHF Final Energy:  -418.43592640953818

   => Energetics <=

    Nuclear Repulsion Energy =            403.6133093889685597
    One-Electron Energy =               -1369.9134768708040610
    Two-Electron Energy =                 547.8642410722972045
    DFT Exchange-Correlation Energy =       0.0000000000000000
    Empirical Dispersion Energy =           0.0000000000000000
    PCM Polarization Energy =               0.0000000000000000
    EFP Energy =                            0.0000000000000000
    Total Energy =                       -418.4359264095382969
    Molecular point group: c1
  Basis Set: CC-PVTZ
  Basis Set:

  -Total Gradient:
     Atom            X                  Y                   Z
    ------   -----------------  -----------------  -----------------
       1       -0.000065207689     0.000062554746     0.001791916852
       2        0.000627041677     0.000197087387    -0.002061045927
       3       -0.001660088868    -0.000935311227     0.000045253303
       4        0.001116522386     0.000567414363     0.000389160241
       5        0.000007119658     0.000010239184    -0.000107550355
       6        0.000014571037    -0.000029925192    -0.000003523451
       7       -0.000051623804     0.000190645395    -0.000107238138
       8       -0.000027523490     0.000019765322     0.000017863825
       9        0.000119242708    -0.000045992376    -0.000064401325
      10        0.000018612065    -0.000017111853    -0.000011030980
      11       -0.000067539625    -0.000071306762     0.000148089853
      12       -0.000044000272     0.000047449186     0.000022341504
      13        0.000006011247     0.000012649621    -0.000053414648
      14        0.000010245446    -0.000014403958     0.000002362673
      15       -0.000003382473     0.000006246158    -0.000008783430

  **** Optimization is complete! (in 6 steps) ****
    Final optimized geometry and variables:
    Molecular point group: c1

    Geometry (in Angstrom), charge = 0, multiplicity = 1:

    H            2.257554074942    -2.047474590927     0.782299955004
    O            1.345894865999    -2.280083790967     0.759287182535
    C            0.563241139632    -1.164858566586     0.701689743358
    C           -0.197978092218    -0.823045729339     1.808882616369
    C            0.499410068623    -0.404279385285    -0.442927803269
    H           -0.135020782198    -1.434039321130     2.688078162359
    C           -1.026557066199     0.278164360602     1.765694461175
    H            1.076382299565    -0.669267417935    -1.306495851449
    C           -0.327490615395     0.709770902523    -0.480450801891
    H           -1.616356969358     0.535684295692     2.623794665596
    C           -1.091488025277     1.050071671317     0.619543850254
    C           -0.401918019674     1.542832427684    -1.706657735995
    H           -1.733620765418     1.909897268239     0.582573989470
    O            0.220091527717     1.345235348751    -2.693924561052
    H           -1.093649287453     2.388803390269    -1.644338575408

  Mulliken Charges: (a.u.)
   Center  Symbol    Alpha    Beta     Spin     Total
       1     H     0.38547  0.38547  0.00000  0.22905
       2     O     4.18800  4.18800  0.00000 -0.37600
       3     C     2.86007  2.86007  0.00000  0.27986
       4     C     3.10084  3.10084  0.00000 -0.20167
       5     C     3.12632  3.12632  0.00000 -0.25265
       6     H     0.41265  0.41265  0.00000  0.17470
       7     C     3.06563  3.06563  0.00000 -0.13125
       8     H     0.40433  0.40433  0.00000  0.19135
       9     C     2.98110  2.98110  0.00000  0.03781
      10     H     0.41864  0.41864  0.00000  0.16271
      11     C     3.09843  3.09843  0.00000 -0.19685
      12     C     2.90877  2.90877  0.00000  0.18247
      13     H     0.42240  0.42240  0.00000  0.15519
      14     O     4.17123  4.17123  0.00000 -0.34247
      15     H     0.45613  0.45613  0.00000  0.08774

   Total alpha = 32.00000, Total beta = 32.00000, Total charge = -0.00000
