  ==> Input File <==

--------------------------------------------------------------------------
set {
	reference rhf
	basis 6-31G*
}

set_num_threads( 4 )
memory 2 gb

molecule MOL {
0 1

H	 -1.009692	 2.147120	 1.133893
C	 -0.844253	 1.203804	 0.652032
C	 -1.915944	 0.472944	 0.039785
C	 0.381230	 0.666062	 0.602597
H	 -2.911953	 0.878506	 0.062801
C	 -1.684503	 -0.705064	 -0.557035
H	 1.236140	 1.149100	 1.036427
N	 0.640212	 -0.532897	 -0.000111
H	 -2.460399	 -1.279100	 -1.024822
C	 -0.350871	 -1.289978	 -0.610732
C	 2.010177	 -1.032049	 0.000042
O	 -0.101519	 -2.345747	 -1.137403
H	 2.187698	 -1.635381	 -0.882279
H	 2.677579	 -0.189247	 -0.001871
H	 2.188882	 -1.632203	 0.884288

	symmetry c1
}
set optking {
	frozen_dihedral = ("
		10 8 11 13
	")
}

ee = optimize('scf')
oeprop('DIPOLE', 'QUADRUPOLE', 'MULLIKEN_CHARGES')
f=open( 'psi4out.xyz', 'w' )
f.write( "15  " )
f.write( str(ee) + "\n" )
f.write( MOL.save_string_xyz() )
f.close()
--------------------------------------------------------------------------

    Molecular point group: c1
  Charge       = 0
  Multiplicity = 1
  Basis Set: 6-31G*
  Basis Set:
  @DF-RHF Final Energy:  -360.59581818243373
    Total Energy =                       -360.5958181824340159
    Molecular point group: c1
  Basis Set: 6-31G*
  Basis Set:
  Basis Set: 6-31G*
  Basis Set:
  @DF-RHF Final Energy:  -360.59613990294122
    Total Energy =                       -360.5961399029409904
  Basis Set: 6-31G*
  Basis Set:
  Basis Set: 6-31G*
  Basis Set:
  @DF-RHF Final Energy:  -360.59617192044550
    Total Energy =                       -360.5961719204457836
  Basis Set: 6-31G*
  Basis Set:
  Basis Set: 6-31G*
  Basis Set:
  @DF-RHF Final Energy:  -360.59616304071830
    Total Energy =                       -360.5961630407186362
  Basis Set: 6-31G*
  Basis Set:
  Charge       = 0
  Multiplicity = 1
  Basis Set: 6-31G*
  Basis Set:

    Orbital Energies (a.u.)
    -----------------------

    Doubly Occupied:

       1A    -20.508759     2A    -15.621889     3A    -11.342506
       4A    -11.297305     5A    -11.265484     6A    -11.260383
       7A    -11.233279     8A    -11.228990     9A     -1.384684
      10A     -1.281019    11A     -1.114842    12A     -1.026010
      13A     -0.970161    14A     -0.872483    15A     -0.835547
      16A     -0.715705    17A     -0.698007    18A     -0.661047
      19A     -0.648105    20A     -0.622265    21A     -0.606571
      22A     -0.573262    23A     -0.550616    24A     -0.547186
      25A     -0.526955    26A     -0.476997    27A     -0.414127
      28A     -0.405510    29A     -0.304835

  @DF-RHF Final Energy:  -360.59618665375450

   => Energetics <=

    Nuclear Repulsion Energy =            357.7678151370917590
    One-Electron Energy =               -1198.7389486556994598
    Two-Electron Energy =                 480.3749468648530865
    DFT Exchange-Correlation Energy =       0.0000000000000000
    Empirical Dispersion Energy =           0.0000000000000000
    PCM Polarization Energy =               0.0000000000000000
    EFP Energy =                            0.0000000000000000
    Total Energy =                       -360.5961866537546712
    Molecular point group: c1
  Basis Set: 6-31G*
  Basis Set:

  -Total Gradient:
     Atom            X                  Y                   Z
    ------   -----------------  -----------------  -----------------
       1       -0.000005442986     0.000001484856    -0.000000842182
       2        0.000091769618    -0.000031663220     0.000024341325
       3       -0.000055372276    -0.000055672502    -0.000053997873
       4       -0.000075904196     0.000149692295     0.000029361864
       5        0.000001832620     0.000000440279     0.000006062257
       6       -0.000067132939     0.000065901141     0.000020852100
       7        0.000000481978    -0.000022128287    -0.000001115631
       8       -0.000240861750    -0.000666903756     0.000840413735
       9        0.000002620282    -0.000009311174    -0.000001072186
      10        0.000273621860     0.000348641730    -0.000500032670
      11        0.000315117003     0.000816039553    -0.000742419870
      12       -0.000037300188    -0.000024857657    -0.000015279509
      13       -0.000219424081    -0.000611811880     0.000406888534
      14        0.000014093490     0.000036000735    -0.000001589541
      15        0.000001901565     0.000004147891    -0.000011570351

  **** Optimization is complete! (in 5 steps) ****
    Final optimized geometry and variables:
    Molecular point group: c1

    Geometry (in Angstrom), charge = 0, multiplicity = 1:

    H           -0.849504908225     2.633470619218     1.282062535314
    C           -0.676471612558     1.693472800104     0.796525211642
    C           -1.741436156797     0.960196365656     0.176529861007
    C            0.554453930708     1.166816288981     0.745533394150
    H           -2.739306210136     1.361212487575     0.197357643854
    C           -1.502018966363    -0.214217771872    -0.425115380226
    H            1.403671843255     1.655906972076     1.182423288195
    N            0.821946324539    -0.024449316040     0.132808551390
    H           -2.273045423243    -0.791284804288    -0.897450265222
    C           -0.166213967207    -0.792996696141    -0.465995631957
    C            2.182750368240    -0.547564453263     0.131545333246
    O            0.096723970098    -1.856042368504    -0.971273073227
    H            2.320597546623    -1.158924405735    -0.743448546926
    H            2.883031150774     0.276425552326     0.120207313955
    H            2.360620937060    -1.157739316865     1.009447967973

  Mulliken Charges: (a.u.)
   Center  Symbol    Alpha    Beta     Spin     Total
       1     H     0.39297  0.39297  0.00000  0.21405
       2     C     3.16198  3.16198  0.00000 -0.32397
       3     C     3.05826  3.05826  0.00000 -0.11653
       4     C     2.92127  2.92127  0.00000  0.15747
       5     H     0.39087  0.39087  0.00000  0.21825
       6     C     3.16966  3.16966  0.00000 -0.33933
       7     H     0.38785  0.38785  0.00000  0.22431
       8     N     3.86466  3.86466  0.00000 -0.72932
       9     H     0.38641  0.38641  0.00000  0.22718
      10     C     2.59535  2.59535  0.00000  0.80929
      11     C     3.14686  3.14686  0.00000 -0.29372
      12     O     4.32183  4.32183  0.00000 -0.64367
      13     H     0.38188  0.38188  0.00000  0.23623
      14     H     0.41419  0.41419  0.00000  0.17162
      15     H     0.40593  0.40593  0.00000  0.18814

   Total alpha = 29.00000, Total beta = 29.00000, Total charge =  0.00000
