                              Psi4 1.0.54 Driver

  ==> Input File <==

--------------------------------------------------------------------------
set {
	reference rhf
	basis cc-pvtz
}

set_num_threads( 4 )
memory 2 gb

molecule MOL {
0 1

H	 2.845608	 -0.424090	 0.126611
O	 2.010871	 -0.865000	 0.076128
C	 1.048867	 0.053239	 0.078673
C	 -0.318151	 -0.570512	 0.000144
O	 1.283682	 1.210586	 0.136793
C	 -1.454884	 0.441630	 -0.000560
H	 -0.338220	 -1.186163	 -0.893423
H	 -0.404171	 -1.259001	 0.834700
C	 -2.822577	 -0.232186	 0.000063
H	 -1.359760	 1.084704	 -0.867077
H	 -1.359641	 1.085996	 0.864983
H	 -2.954352	 -0.858985	 -0.875745
H	 -3.615886	 0.505352	 0.000019
H	 -2.953878	 -0.858359	 0.876394

	symmetry c1
}
set optking {
	frozen_dihedral = ("
		7 4 6 10
	")
}

ee,wfn = optimize('scf', return_wfn=True)
oeprop( wfn, 'DIPOLE', 'QUADRUPOLE', 'MULLIKEN_CHARGES')
f=open( 'psi4out.xyz', 'w' )
f.write( "14  " )
f.write( str(ee) + "\n" )
f.write( MOL.save_string_xyz() )
f.close()
--------------------------------------------------------------------------

    Molecular point group: c1
  Charge       = 0
  Multiplicity = 1
  Basis Set: CC-PVTZ
  Basis Set:
  @DF-RHF Final Energy:  -306.00101761156338
    Total Energy =                       -306.0010176115632703
    Molecular point group: c1
  Basis Set: CC-PVTZ
  Basis Set:
  Basis Set: CC-PVTZ
  Basis Set:
  @DF-RHF Final Energy:  -306.00102234529203
    Total Energy =                       -306.0010223452919718
  Basis Set: CC-PVTZ
  Basis Set:
  Basis Set: CC-PVTZ
  Basis Set:
  @DF-RHF Final Energy:  -306.00100876404787
    Total Energy =                       -306.0010087640480378
  Basis Set: CC-PVTZ
  Basis Set:
  Basis Set: CC-PVTZ
  Basis Set:
  @DF-RHF Final Energy:  -306.00102371354421
    Total Energy =                       -306.0010237135441571
  Basis Set: CC-PVTZ
  Basis Set:
  Charge       = 0
  Multiplicity = 1
  Basis Set: CC-PVTZ
  Basis Set:

    Orbital Energies (a.u.)
    -----------------------

    Doubly Occupied:

       1A    -20.604454     2A    -20.541047     3A    -11.373973
       4A    -11.239902     5A    -11.223895     6A    -11.215371
       7A     -1.478045     8A     -1.369587     9A     -1.084467
      10A     -0.980989    11A     -0.859195    12A     -0.792879
      13A     -0.704168    14A     -0.691777    15A     -0.670227
      16A     -0.618011    17A     -0.596853    18A     -0.574607
      19A     -0.546244    20A     -0.506765    21A     -0.492264
      22A     -0.485385    23A     -0.482231    24A     -0.447650

  @DF-RHF Final Energy:  -306.00102380889075

   => Energetics <=

    Nuclear Repulsion Energy =            240.4590266305229136
    One-Electron Energy =                -893.7601260713179272
    Two-Electron Energy =                 347.3000756319044058
    DFT Exchange-Correlation Energy =       0.0000000000000000
    Empirical Dispersion Energy =           0.0000000000000000
    PCM Polarization Energy =               0.0000000000000000
    EFP Energy =                            0.0000000000000000
    Total Energy =                       -306.0010238088906362
    Molecular point group: c1
  Basis Set: CC-PVTZ
  Basis Set:

  -Total Gradient:
     Atom            X                  Y                   Z
    ------   -----------------  -----------------  -----------------
       1       -0.000003755222     0.000001625978     0.000001248229
       2       -0.000003551578    -0.000009357836    -0.000006097530
       3        0.000008460183    -0.000019226948     0.000007685491
       4       -0.000516379278    -0.000571671448     0.000261468826
       5       -0.000005279655     0.000024465607     0.000002321797
       6        0.000497328004     0.000556394919     0.000319378661
       7        0.000350148349     0.000387410738    -0.000275506038
       8        0.000000108290     0.000002630947     0.000003353616
       9        0.000004954068     0.000002631956     0.000004174951
      10       -0.000326626417    -0.000370030234    -0.000317040584
      11       -0.000000636928    -0.000002131001    -0.000002367353
      12        0.000000745672     0.000000919901     0.000001206879
      13       -0.000001146404    -0.000001402702    -0.000000882763
      14       -0.000004369082    -0.000002259873     0.000001055818

  **** Optimization is complete! (in 5 steps) ****
    Final optimized geometry and variables:
    Molecular point group: c1

    Geometry (in Angstrom), charge = 0, multiplicity = 1:

    H            2.846135838541    -0.424540976528     0.076386244838
    O            2.011163073071    -0.865300155540     0.028276730016
    C            1.049678045423     0.053589590848     0.030412933933
    C           -0.317916464267    -0.569830805163    -0.044804294159
    O            1.285419303548     1.210896333126     0.085427016157
    C           -1.453274008638     0.443938564128    -0.047834265952
    H           -0.336692995667    -1.184524783181    -0.939008480228
    H           -0.403255774620    -1.256638276890     0.791051451788
    C           -2.821531415236    -0.229170775941    -0.059648130706
    H           -1.354292203267     1.087321949652    -0.913878141764
    H           -1.363318226729     1.085385900377     0.820034473633
    H           -2.945281729518    -0.857343306289    -0.935686199958
    H           -3.614339008333     0.508875888268    -0.068710288361
    H           -2.961694434173    -0.853806089056     0.816379919781

  Mulliken Charges: (a.u.)
   Center  Symbol    Alpha    Beta     Spin     Total
       1     H     0.38230  0.38230  0.00000  0.23540
       2     O     4.16012  4.16012  0.00000 -0.32024
       3     C     2.80531  2.80531  0.00000  0.38939
       4     C     3.10547  3.10547  0.00000 -0.21094
       5     O     4.19093  4.19093  0.00000 -0.38187
       6     C     3.07935  3.07935  0.00000 -0.15869
       7     H     0.43860  0.43860  0.00000  0.12280
       8     H     0.43909  0.43909  0.00000  0.12183
       9     C     3.15031  3.15031  0.00000 -0.30063
      10     H     0.44690  0.44690  0.00000  0.10619
      11     H     0.44545  0.44545  0.00000  0.10910
      12     H     0.45559  0.45559  0.00000  0.08881
      13     H     0.44513  0.44513  0.00000  0.10973
      14     H     0.45544  0.45544  0.00000  0.08912

   Total alpha = 24.00000, Total beta = 24.00000, Total charge = -0.00000

*** Psi4 exiting successfully. Buy a developer a beer!
