  ==> Input File <==

--------------------------------------------------------------------------
set {
	reference rhf
	basis cc-pvtz
}

set_num_threads( 4 )
memory 2 gb

molecule MOL {
0 1

H	 3.721907	 -0.933076	 -0.066039
O	 2.824271	 -1.154299	 0.131461
C	 2.076458	 -0.067370	 -0.038225
C	 0.626018	 -0.337582	 0.258241
O	 2.538288	 0.965419	 -0.381593
C	 -0.267326	 0.883135	 0.076490
H	 0.325620	 -1.161483	 -0.378003
H	 0.574537	 -0.713685	 1.275261
C	 -1.726822	 0.642622	 0.463839
H	 -0.210803	 1.217591	 -0.953497
H	 0.129920	 1.693110	 0.675679
C	 -2.480891	 -0.340606	 -0.429852
H	 -2.243098	 1.597649	 0.438609
H	 -1.776542	 0.301208	 1.495542
C	 -2.148890	 -1.795793	 -0.115716
H	 -3.549504	 -0.181700	 -0.312173
H	 -2.256012	 -0.146601	 -1.473761
H	 -2.697670	 -2.471780	 -0.761135
H	 -2.399533	 -2.041272	 0.910742
H	 -1.090981	 -1.993818	 -0.252723

	symmetry c1
}
set optking {
	frozen_dihedral = ("
		16 12 9 6
	")
}

ee = optimize('scf')
oeprop('DIPOLE', 'QUADRUPOLE', 'MULLIKEN_CHARGES')
f=open( 'psi4out.xyz', 'w' )
f.write( "20  " )
f.write( str(ee) + "\n" )
f.write( MOL.save_string_xyz() )
f.close()
--------------------------------------------------------------------------

    Molecular point group: c1
  Charge       = 0
  Multiplicity = 1
  Basis Set: CC-PVTZ
  Basis Set:
  @DF-RHF Final Energy:  -384.08422317379143
    Total Energy =                       -384.0842231737914290
    Molecular point group: c1
  Basis Set: CC-PVTZ
  Basis Set:
  Basis Set: CC-PVTZ
  Basis Set:
  @DF-RHF Final Energy:  -384.08933480122414
    Total Energy =                       -384.0893348012240267
  Basis Set: CC-PVTZ
  Basis Set:
  Basis Set: CC-PVTZ
  Basis Set:
  @DF-RHF Final Energy:  -384.08993955878151
    Total Energy =                       -384.0899395587816798
  Basis Set: CC-PVTZ
  Basis Set:
  Basis Set: CC-PVTZ
  Basis Set:
  @DF-RHF Final Energy:  -384.08990078616176
    Total Energy =                       -384.0899007861620476
  Basis Set: CC-PVTZ
  Basis Set:
  @DF-RHF Final Energy:  -384.09001122293074
    Total Energy =                       -384.0900112229313663
  @DF-RHF Final Energy:  -384.09005543593980
    Total Energy =                       -384.0900554359400303
  @DF-RHF Final Energy:  -384.09006164825189
    Total Energy =                       -384.0900616482520036
  Basis Set: CC-PVTZ
  Basis Set:
  @DF-RHF Final Energy:  -384.09006461533198
    Total Energy =                       -384.0900646153321532
  Basis Set: CC-PVTZ
  Basis Set:
  Basis Set: CC-PVTZ
  Basis Set:
  @DF-RHF Final Energy:  -384.09006671053913
    Total Energy =                       -384.0900667105396451
  Basis Set: CC-PVTZ
  Basis Set:
  Basis Set: CC-PVTZ
  Basis Set:
  @DF-RHF Final Energy:  -384.09006808515636
    Total Energy =                       -384.0900680851567586
  Basis Set: CC-PVTZ
  Basis Set:
  Charge       = 0
  Multiplicity = 1
  Basis Set: CC-PVTZ
  Basis Set:

    Orbital Energies (a.u.)
    -----------------------

    Doubly Occupied:

       1A    -20.603782     2A    -20.540459     3A    -11.373201
       4A    -11.238180     5A    -11.221062     6A    -11.219294
       7A    -11.218693     8A    -11.211675     9A     -1.477374
      10A     -1.368885    11A     -1.094954    12A     -1.040280
      13A     -0.964946    14A     -0.878282    15A     -0.811586
      16A     -0.776548    17A     -0.703655    18A     -0.691934
      19A     -0.667611    20A     -0.627310    21A     -0.613200
      22A     -0.598627    23A     -0.579694    24A     -0.555602
      25A     -0.535283    26A     -0.522440    27A     -0.497945
      28A     -0.484303    29A     -0.470233    30A     -0.466696
      31A     -0.455567    32A     -0.443420

  @DF-RHF Final Energy:  -384.09006833313953

   => Energetics <=

    Nuclear Repulsion Energy =            381.6664392750068941
    One-Electron Energy =               -1279.6075717401549809
    Two-Electron Energy =                 513.8510641320084460
    DFT Exchange-Correlation Energy =       0.0000000000000000
    Empirical Dispersion Energy =           0.0000000000000000
    PCM Polarization Energy =               0.0000000000000000
    EFP Energy =                            0.0000000000000000
    Total Energy =                       -384.0900683331395840
    Molecular point group: c1
  Basis Set: CC-PVTZ
  Basis Set:

  -Total Gradient:
     Atom            X                  Y                   Z
    ------   -----------------  -----------------  -----------------
       1       -0.000000128353    -0.000000052191    -0.000000232442
       2       -0.000002046793     0.000002590587     0.000001669935
       3        0.000002580064    -0.000000064380     0.000007300789
       4       -0.000007417770    -0.000005273838    -0.000004968289
       5       -0.000000360154     0.000000439039    -0.000003207240
       6        0.000026852362    -0.000078188208     0.000055325737
       7        0.000006082639     0.000003680393    -0.000007575902
       8       -0.000006042508    -0.000006551652    -0.000002718259
       9       -0.000036573838     0.000092603250    -0.000054677009
      10       -0.000006707485     0.000006678853     0.000001733045
      11        0.000008037776    -0.000003463181     0.000002629767
      12        0.000014029437     0.000061411135    -0.000086806834
      13       -0.000003170467    -0.000001477728    -0.000009644256
      14        0.000000183748     0.000010356154     0.000003511204
      15        0.000004621028     0.000003518398     0.000001290158
      16        0.000002466116    -0.000084147753     0.000095715346
      17       -0.000001852030    -0.000000823378    -0.000000431182
      18        0.000001537472    -0.000000167749    -0.000001427567
      19       -0.000002541784    -0.000000596611    -0.000000368711
      20        0.000000450545    -0.000000471144     0.000002881711

  **** Optimization is complete! (in 11 steps) ****
    Final optimized geometry and variables:
    Molecular point group: c1

    Geometry (in Angstrom), charge = 0, multiplicity = 1:

    H            3.609270836554    -0.590563121310     0.058021126046
    O            2.721533534616    -0.862990351148     0.235279555285
    C            1.911829048328     0.167306705305     0.005846427058
    C            0.472484921852    -0.188721345958     0.268076862799
    O            2.317939645991     1.215993157492    -0.359236246335
    C           -0.488706367037     0.963234295123    -0.001154783479
    H            0.256253348894    -1.060190967961    -0.334723600359
    H            0.411829751283    -0.518660141210     1.300331807815
    C           -1.936993348883     0.740068176675     0.448771091050
    H           -0.468394961115     1.208408688583    -1.057608015459
    H           -0.107564658317     1.837881866911     0.510980529411
    C           -2.811204298313    -0.193005667738    -0.399309531394
    H           -2.413823668307     1.714656040952     0.447658548845
    H           -1.950135818478     0.405412947857     1.483835651581
    C           -2.612706153571    -1.693410174399    -0.189102116142
    H           -3.847329954091     0.035867862788    -0.170604890485
    H           -2.677694843902     0.048328160951    -1.450438000431
    H           -3.367457086219    -2.252335402775    -0.730537910968
    H           -2.701889017565    -1.954442908382     0.860357627368
    H           -1.648814829769    -2.041493743016    -0.535121925625

  Mulliken Charges: (a.u.)
   Center  Symbol    Alpha    Beta     Spin     Total
       1     H     0.38236  0.38236  0.00000  0.23528
       2     O     4.16048  4.16048  0.00000 -0.32095
       3     C     2.80463  2.80463  0.00000  0.39075
       4     C     3.11591  3.11591  0.00000 -0.23183
       5     O     4.19087  4.19087  0.00000 -0.38174
       6     C     3.08969  3.08969  0.00000 -0.17938
       7     H     0.43539  0.43539  0.00000  0.12922
       8     H     0.43619  0.43619  0.00000  0.12762
       9     C     3.10655  3.10655  0.00000 -0.21310
      10     H     0.44693  0.44693  0.00000  0.10614
      11     H     0.43836  0.43836  0.00000  0.12327
      12     C     3.08829  3.08829  0.00000 -0.17657
      13     H     0.44207  0.44207  0.00000  0.11586
      14     H     0.45389  0.45389  0.00000  0.09223
      15     C     3.15514  3.15514  0.00000 -0.31028
      16     H     0.44763  0.44763  0.00000  0.10475
      17     H     0.45318  0.45318  0.00000  0.09363
      18     H     0.44429  0.44429  0.00000  0.11142
      19     H     0.45275  0.45275  0.00000  0.09450
      20     H     0.45541  0.45541  0.00000  0.08918

   Total alpha = 32.00000, Total beta = 32.00000, Total charge = -0.00000
