  ==> Input File <==

--------------------------------------------------------------------------
set {
	reference rhf
	basis 6-31G*
}

set_num_threads( 4 )
memory 2 gb

molecule MOL {
0 1

O	 3.225979	 0.970355	 -0.599647
C	 2.701189	 0.057885	 -0.047330
C	 1.245376	 -0.013843	 0.345420
O	 3.347903	 -1.046386	 0.304773
C	 0.537706	 1.337574	 0.274773
H	 0.778108	 -0.751874	 -0.298135
H	 1.201827	 -0.426151	 1.350309
C	 -0.911986	 1.301742	 0.770358
H	 0.568347	 1.705479	 -0.746415
H	 1.098063	 2.052631	 0.867324
C	 -1.868156	 0.471750	 -0.091013
H	 -1.279579	 2.324480	 0.810450
H	 -0.935965	 0.932569	 1.794636
C	 -3.320844	 0.557019	 0.381665
H	 -1.805617	 0.811511	 -1.123714
H	 -1.560465	 -0.571463	 -0.093473
C	 -4.284593	 -0.272680	 -0.468581
H	 -3.641072	 1.597516	 0.374295
H	 -3.382346	 0.227546	 1.417698
C	 -5.733746	 -0.179044	 0.007747
H	 -4.223669	 0.054575	 -1.504358
H	 -3.968657	 -1.313772	 -0.458901
H	 -6.392166	 -0.777452	 -0.614344
H	 -6.091136	 0.846383	 -0.023371
H	 -5.833940	 -0.531946	 1.030339
C	 4.728119	 -1.109107	 -0.004993
H	 4.882018	 -1.033965	 -1.071845
H	 5.068212	 -2.067527	 0.355250
H	 5.265056	 -0.311663	 0.488280

	symmetry c1
}
set optking {
	frozen_dihedral = ("
		6 3 2 1
	")
}

ee = optimize('scf')
oeprop('DIPOLE', 'QUADRUPOLE', 'MULLIKEN_CHARGES')
f=open( 'psi4out.xyz', 'w' )
f.write( "29  " )
f.write( str(ee) + "\n" )
f.write( MOL.save_string_xyz() )
f.close()
--------------------------------------------------------------------------

    Molecular point group: c1
  Charge       = 0
  Multiplicity = 1
  Basis Set: 6-31G*
  Basis Set:
  @DF-RHF Final Energy:  -501.04388900686411
    Total Energy =                       -501.0438890068639921
    Molecular point group: c1
  Basis Set: 6-31G*
  Basis Set:
  Basis Set: 6-31G*
  Basis Set:
  @DF-RHF Final Energy:  -501.04325781565069
    Total Energy =                       -501.0432578156514865
  Basis Set: 6-31G*
  Basis Set:
  Basis Set: 6-31G*
  Basis Set:
  @DF-RHF Final Energy:  -501.04395492473270
    Total Energy =                       -501.0439549247330433
  Basis Set: 6-31G*
  Basis Set:
  Basis Set: 6-31G*
  Basis Set:
  @DF-RHF Final Energy:  -501.04397700058189
    Total Energy =                       -501.0439770005823448
  Basis Set: 6-31G*
  Basis Set:
  Basis Set: 6-31G*
  Basis Set:
  @DF-RHF Final Energy:  -501.04396971242443
    Total Energy =                       -501.0439697124245413
  Basis Set: 6-31G*
  Basis Set:
  Basis Set: 6-31G*
  Basis Set:
  @DF-RHF Final Energy:  -501.04397777967506
    Total Energy =                       -501.0439777796755152
  Basis Set: 6-31G*
  Basis Set:
  Charge       = 0
  Multiplicity = 1
  Basis Set: 6-31G*
  Basis Set:

    Orbital Energies (a.u.)
    -----------------------

    Doubly Occupied:

       1A    -20.603587     2A    -20.544820     3A    -11.371926
       4A    -11.280640     5A    -11.234655     6A    -11.219445
       7A    -11.217746     8A    -11.216024     9A    -11.215834
      10A    -11.214469    11A    -11.209041    12A     -1.469077
      13A     -1.362346    14A     -1.098115    15A     -1.066790
      16A     -1.019438    17A     -0.977203    18A     -0.928668
      19A     -0.861668    20A     -0.799222    21A     -0.790522
      22A     -0.763923    23A     -0.700630    24A     -0.682300
      25A     -0.672071    26A     -0.650946    27A     -0.629025
      28A     -0.604427    29A     -0.594681    30A     -0.580646
      31A     -0.568570    32A     -0.547062    33A     -0.533725
      34A     -0.530209    35A     -0.516412    36A     -0.511098
      37A     -0.496615    38A     -0.477615    39A     -0.470115
      40A     -0.462288    41A     -0.458412    42A     -0.456336
      43A     -0.442314    44A     -0.434061

  @DF-RHF Final Energy:  -501.04397782375918

   => Energetics <=

    Nuclear Repulsion Energy =            610.1785215963709561
    One-Electron Energy =               -1891.4755694471748484
    Two-Electron Energy =                 780.2530700270442594
    DFT Exchange-Correlation Energy =       0.0000000000000000
    Empirical Dispersion Energy =           0.0000000000000000
    PCM Polarization Energy =               0.0000000000000000
    EFP Energy =                            0.0000000000000000
    Total Energy =                       -501.0439778237596329
    Molecular point group: c1
  Basis Set: 6-31G*
  Basis Set:

  -Total Gradient:
     Atom            X                  Y                   Z
    ------   -----------------  -----------------  -----------------
       1       -0.000131017680    -0.000245795295    -0.000501548030
       2        0.000159245361     0.000436456143     0.000652175008
       3        0.000085390230    -0.000564793197     0.000214243463
       4        0.000002483848    -0.000003455341    -0.000005145913
       5       -0.000001867668    -0.000007554581    -0.000007414058
       6       -0.000120477479     0.000390109915    -0.000357403951
       7       -0.000000844155    -0.000007001809     0.000007151894
       8        0.000002694988    -0.000002510886     0.000003003125
       9       -0.000003282906     0.000005679781    -0.000003822632
      10        0.000000187246    -0.000008215505     0.000000803318
      11       -0.000001794709     0.000007844612    -0.000010399529
      12        0.000006327441     0.000001563011    -0.000002746821
      13       -0.000001391031     0.000001840328     0.000001411551
      14        0.000000915226    -0.000004145052     0.000003728403
      15       -0.000003840681     0.000002388715    -0.000004445877
      16        0.000003858058     0.000000921179    -0.000000178347
      17        0.000001918580    -0.000005623517     0.000003644563
      18        0.000000202547    -0.000001823179    -0.000000989981
      19        0.000000574910     0.000000347977     0.000002186405
      20       -0.000000187482     0.000002772762    -0.000001543692
      21        0.000001349216    -0.000000875330     0.000000523781
      22       -0.000001082949    -0.000001103327     0.000000851606
      23        0.000000004148     0.000001101304    -0.000000924847
      24       -0.000000570485     0.000000579089     0.000001106888
      25        0.000000539885    -0.000000818383    -0.000000923514
      26       -0.000000843135     0.000004387045     0.000012067346
      27       -0.000003789021     0.000000035716    -0.000001229436
      28        0.000001139113    -0.000001010367    -0.000002047282
      29        0.000004158564    -0.000001301808    -0.000002133437

  **** Optimization is complete! (in 7 steps) ****
    Final optimized geometry and variables:
    Molecular point group: c1

    Geometry (in Angstrom), charge = 0, multiplicity = 1:

    O            3.207775127290     0.803906903750    -0.654448787511
    C            2.689325579020    -0.107534712723    -0.094231545243
    C            1.237458408858    -0.175190191797     0.313160744194
    O            3.333931373652    -1.221170446208     0.230321419768
    C            0.526279560291     1.173388708928     0.214309694555
    H            0.772268180794    -0.916844979080    -0.329797027185
    H            1.188879405366    -0.576403111238     1.320632213205
    C           -0.928036634028     1.140779585425     0.696420650690
    H            0.568067703003     1.525532472507    -0.811203690083
    H            1.077208941805     1.899818216783     0.803351217961
    C           -1.873410764878     0.296573216695    -0.163089372047
    H           -1.298357153933     2.163093226070     0.718234704156
    H           -0.961779857909     0.785959128600     1.725438790296
    C           -3.331037571226     0.385094381263     0.293592353475
    H           -1.800943600010     0.621880386736    -1.199736689835
    H           -1.563642210475    -0.745922596800    -0.147528676015
    C           -4.284020615156    -0.459787389629    -0.553821231253
    H           -3.653732499169     1.424512277995     0.267310142705
    H           -3.402233400638     0.071043573377     1.333783830429
    C           -5.738226839315    -0.362497594190    -0.093897770937
    H           -4.213150964955    -0.148140987950    -1.593758763947
    H           -3.965807752560    -1.499833352464    -0.525054386458
    H           -6.388795635653    -0.971881911266    -0.713590130939
    H           -6.097632495215     0.661455874082    -0.144261336348
    H           -5.848169239052    -0.700108536721     0.932848816545
    C            4.700867298681    -1.300568498920    -0.130550110490
    H            4.816474488326    -1.221113651036    -1.201957477722
    H            5.040870535402    -2.265577175711     0.211711241684
    H            5.266191220330    -0.513288626310     0.346964017554

  Mulliken Charges: (a.u.)
   Center  Symbol    Alpha    Beta     Spin     Total
       1     O     4.28613  4.28613  0.00000 -0.57227
       2     C     2.60465  2.60465  0.00000  0.79069
       3     C     3.20951  3.20951  0.00000 -0.41903
       4     O     4.30737  4.30737  0.00000 -0.61475
       5     C     3.15431  3.15431  0.00000 -0.30862
       6     H     0.39851  0.39851  0.00000  0.20298
       7     H     0.40150  0.40150  0.00000  0.19700
       8     C     3.15636  3.15636  0.00000 -0.31273
       9     H     0.40997  0.40997  0.00000  0.18006
      10     H     0.41198  0.41198  0.00000  0.17603
      11     C     3.15519  3.15519  0.00000 -0.31039
      12     H     0.41825  0.41825  0.00000  0.16349
      13     H     0.42385  0.42385  0.00000  0.15231
      14     C     3.15030  3.15030  0.00000 -0.30059
      15     H     0.42224  0.42224  0.00000  0.15552
      16     H     0.42378  0.42378  0.00000  0.15244
      17     C     3.15148  3.15148  0.00000 -0.30295
      18     H     0.42331  0.42331  0.00000  0.15339
      19     H     0.42399  0.42399  0.00000  0.15203
      20     C     3.23936  3.23936  0.00000 -0.47871
      21     H     0.42272  0.42272  0.00000  0.15457
      22     H     0.42345  0.42345  0.00000  0.15309
      23     H     0.41921  0.41921  0.00000  0.16157
      24     H     0.42154  0.42154  0.00000  0.15692
      25     H     0.42185  0.42185  0.00000  0.15630
      26     C     3.09255  3.09255  0.00000 -0.18510
      27     H     0.40925  0.40925  0.00000  0.18150
      28     H     0.40851  0.40851  0.00000  0.18298
      29     H     0.40886  0.40886  0.00000  0.18227

   Total alpha = 44.00000, Total beta = 44.00000, Total charge =  0.00000
