  ==> Input File <==

--------------------------------------------------------------------------
set {
	reference rhf
	basis 6-31G*
}

set_num_threads( 4 )
memory 2 gb

molecule MOL {
0 1

H	 1.872595	 1.736261	 -1.802393
C	 1.146824	 1.538349	 -1.021999
C	 1.322923	 0.120767	 -0.479465
H	 1.287195	 2.280963	 -0.242772
H	 0.157494	 1.678877	 -1.446347
C	 0.306652	 -0.176050	 0.621399
H	 2.322829	 -0.002868	 -0.076562
H	 1.199093	 -0.604762	 -1.274785
N	 -1.068537	 -0.011044	 0.085269
H	 0.372515	 -1.192590	 0.973735
H	 0.391664	 0.520566	 1.441230
O	 -1.656956	 -0.997225	 -0.235017
O	 -1.478635	 1.104830	 -0.018026

	symmetry c1
}
set optking {
	frozen_dihedral = ("
		7 3 6 9
	")
}

ee = optimize('scf')
oeprop('DIPOLE', 'QUADRUPOLE', 'MULLIKEN_CHARGES')
f=open( 'psi4out.xyz', 'w' )
f.write( "13  " )
f.write( str(ee) + "\n" )
f.write( MOL.save_string_xyz() )
f.close()
--------------------------------------------------------------------------

    Molecular point group: c1
  Charge       = 0
  Multiplicity = 1
  Basis Set: 6-31G*
  Basis Set:
  @DF-RHF Final Energy:  -321.73097406711986
    Total Energy =                       -321.7309740671200871
    Molecular point group: c1
  Basis Set: 6-31G*
  Basis Set:
  Basis Set: 6-31G*
  Basis Set:
  @DF-RHF Final Energy:  -321.73390477065573
    Total Energy =                       -321.7339047706554993
  Basis Set: 6-31G*
  Basis Set:
  Basis Set: 6-31G*
  Basis Set:
  @DF-RHF Final Energy:  -321.72167222413714
    Total Energy =                       -321.7216722241370803
  Basis Set: 6-31G*
  Basis Set:
  Basis Set: 6-31G*
  Basis Set:
  @DF-RHF Final Energy:  -321.73370780693477
    Total Energy =                       -321.7337078069348308
  Basis Set: 6-31G*
  Basis Set:
  @DF-RHF Final Energy:  -321.73501144686452
    Total Energy =                       -321.7350114468646893
  @DF-RHF Final Energy:  -321.73531703187973
    Total Energy =                       -321.7353170318796174
  @DF-RHF Final Energy:  -321.73548706334037
    Total Energy =                       -321.7354870633401447
  @DF-RHF Final Energy:  -321.73557058610584
    Total Energy =                       -321.7355705861058937
  @DF-RHF Final Energy:  -321.73558085412458
    Total Energy =                       -321.7355808541246347
  @DF-RHF Final Energy:  -321.73559137741415
    Total Energy =                       -321.7355913774140959
  @DF-RHF Final Energy:  -321.73559507023231
    Total Energy =                       -321.7355950702324208
  Basis Set: 6-31G*
  Basis Set:
  @DF-RHF Final Energy:  -321.73559760382193
    Total Energy =                       -321.7355976038218159
  Basis Set: 6-31G*
  Basis Set:
  Basis Set: 6-31G*
  Basis Set:
  @DF-RHF Final Energy:  -321.73560374539807
    Total Energy =                       -321.7356037453981799
  Basis Set: 6-31G*
  Basis Set:
  Basis Set: 6-31G*
  Basis Set:
  @DF-RHF Final Energy:  -321.73561336738987
    Total Energy =                       -321.7356133673898739
  Basis Set: 6-31G*
  Basis Set:
  Charge       = 0
  Multiplicity = 1
  Basis Set: 6-31G*
  Basis Set:

    Orbital Energies (a.u.)
    -----------------------

    Doubly Occupied:

       1A    -20.603717     2A    -20.599051     3A    -15.847209
       4A    -11.299510     5A    -11.255219     6A    -11.231742
       7A     -1.631220     8A     -1.416601     9A     -1.134132
      10A     -1.021734    11A     -0.894653    12A     -0.821485
      13A     -0.757296    14A     -0.737969    15A     -0.724826
      16A     -0.653299    17A     -0.617038    18A     -0.594555
      19A     -0.532467    20A     -0.518802    21A     -0.513041
      22A     -0.484080    23A     -0.473992    24A     -0.449144

  @DF-RHF Final Energy:  -321.73561417085523

   => Energetics <=

    Nuclear Repulsion Energy =            253.2332113611638817
    One-Electron Energy =                -940.3120887652348756
    Two-Electron Energy =                 365.3432632332156231
    DFT Exchange-Correlation Energy =       0.0000000000000000
    Empirical Dispersion Energy =           0.0000000000000000
    PCM Polarization Energy =               0.0000000000000000
    EFP Energy =                            0.0000000000000000
    Total Energy =                       -321.7356141708553992
    Molecular point group: c1
  Basis Set: 6-31G*
  Basis Set:

  -Total Gradient:
     Atom            X                  Y                   Z
    ------   -----------------  -----------------  -----------------
       1       -0.000000923078     0.000001939526    -0.000000361769
       2       -0.000004675674    -0.000006747829     0.000014038484
       3        0.000000827378    -0.000807168806    -0.000192772461
       4       -0.000001572031    -0.000003596667    -0.000000090479
       5       -0.000003632093     0.000000588939    -0.000009183636
       6        0.000000688905    -0.000689973291    -0.000137800280
       7        0.000012050539     0.000849381624     0.000195247742
       8       -0.000002036244     0.000008780072    -0.000002453730
       9        0.000030247081     0.000670578478     0.000174282307
      10       -0.000001377274     0.000003515509    -0.000003704567
      11       -0.000000551652     0.000005333311     0.000004251870
      12       -0.000034896847     0.000003532223    -0.000006409026
      13        0.000005850992    -0.000036163088    -0.000035044458

  **** Optimization is complete! (in 15 steps) ****
    Final optimized geometry and variables:
    Molecular point group: c1

    Geometry (in Angstrom), charge = 0, multiplicity = 1:

    H            2.250686299812     1.376443870147    -1.695968770217
    C            1.471618231544     1.235276277428    -0.955258718876
    C            1.590604436992    -0.151547001302    -0.322824851637
    H            1.571485417162     2.019235043310    -0.211130321915
    H            0.517655514941     1.365722046218    -1.454496303524
    C            0.583912050551    -0.400948578799     0.796566658795
    H            2.575769105143    -0.267218580039     0.118862906124
    H            1.480749587611    -0.922597981945    -1.074977007749
    N           -0.809458512414    -0.265597381774     0.292486949726
    H            0.655309928258    -1.410586922262     1.174623760550
    H            0.675489148615     0.309009657668     1.602085405824
    O           -1.150165943600    -1.026824590877    -0.561754594919
    O           -1.489546140103     0.591465993521     0.764040466587

  Mulliken Charges: (a.u.)
   Center  Symbol    Alpha    Beta     Spin     Total
       1     H     0.41010  0.41010  0.00000  0.17979
       2     C     3.24987  3.24987  0.00000 -0.49973
       3     C     3.17184  3.17184  0.00000 -0.34368
       4     H     0.41453  0.41453  0.00000  0.17094
       5     H     0.40540  0.40540  0.00000  0.18920
       6     C     3.09242  3.09242  0.00000 -0.18485
       7     H     0.40807  0.40807  0.00000  0.18386
       8     H     0.39588  0.39588  0.00000  0.20824
       9     N     3.22174  3.22174  0.00000  0.55651
      10     H     0.38617  0.38617  0.00000  0.22765
      11     H     0.38687  0.38687  0.00000  0.22626
      12     O     4.23049  4.23049  0.00000 -0.46097
      13     O     4.22661  4.22661  0.00000 -0.45322

   Total alpha = 24.00000, Total beta = 24.00000, Total charge = -0.00000
