  ==> Input File <==

--------------------------------------------------------------------------
set {
	reference rhf
	basis 6-31G*
}

set_num_threads( 4 )
memory 2 gb

molecule MOL {
0 1

H	 2.153693	 0.414330	 -0.910313
O	 2.064459	 -0.086912	 -0.111827
C	 0.745630	 0.005118	 0.354752
H	 0.739005	 0.037656	 1.444976
C	 -0.064159	 -1.194875	 -0.122754
C	 -0.046302	 1.193543	 -0.190431
H	 0.197384	 -1.376065	 -1.160690
H	 0.162855	 -2.097978	 0.431858
C	 -1.535782	 -0.752177	 0.006642
H	 0.154512	 1.271315	 -1.255561
H	 0.226209	 2.140461	 0.267302
C	 -1.509193	 0.801505	 0.065617
H	 -2.127797	 -1.112194	 -0.826847
H	 -1.986849	 -1.158408	 0.905561
H	 -2.183670	 1.254107	 -0.651985
H	 -1.821727	 1.144320	 1.047089

	symmetry c1
}
set optking {
	frozen_dihedral = ("
		1 2 3 6
	")
}

ee = optimize('scf')
oeprop('DIPOLE', 'QUADRUPOLE', 'MULLIKEN_CHARGES')
f=open( 'psi4out.xyz', 'w' )
f.write( "16  " )
f.write( str(ee) + "\n" )
f.write( MOL.save_string_xyz() )
f.close()
--------------------------------------------------------------------------

    Molecular point group: c1
  Charge       = 0
  Multiplicity = 1
  Basis Set: 6-31G*
  Basis Set:
  @DF-RHF Final Energy:  -270.01130799809300
    Total Energy =                       -270.0113079980929456
    Molecular point group: c1
  Basis Set: 6-31G*
  Basis Set:
  Basis Set: 6-31G*
  Basis Set:
  @DF-RHF Final Energy:  -270.01235650999627
    Total Energy =                       -270.0123565099965504
  Basis Set: 6-31G*
  Basis Set:
  Basis Set: 6-31G*
  Basis Set:
  @DF-RHF Final Energy:  -270.01257307891177
    Total Energy =                       -270.0125730789116005
  Basis Set: 6-31G*
  Basis Set:
  Basis Set: 6-31G*
  Basis Set:
  @DF-RHF Final Energy:  -270.01258168875512
    Total Energy =                       -270.0125816887552901
  Basis Set: 6-31G*
  Basis Set:
  Basis Set: 6-31G*
  Basis Set:
  @DF-RHF Final Energy:  -270.01258569009036
    Total Energy =                       -270.0125856900903045
  Basis Set: 6-31G*
  Basis Set:
  Charge       = 0
  Multiplicity = 1
  Basis Set: 6-31G*
  Basis Set:

    Orbital Energies (a.u.)
    -----------------------

    Doubly Occupied:

       1A    -20.550249     2A    -11.268733     3A    -11.220814
       4A    -11.219977     5A    -11.217242     6A    -11.208733
       7A     -1.359841     8A     -1.115637     9A     -0.969080
      10A     -0.948941    11A     -0.802784    12A     -0.781249
      13A     -0.680255    14A     -0.664662    15A     -0.606403
      16A     -0.595043    17A     -0.577067    18A     -0.538900
      19A     -0.503154    20A     -0.485110    21A     -0.473200
      22A     -0.460683    23A     -0.451104    24A     -0.413556

  @DF-RHF Final Energy:  -270.01258656266180

   => Energetics <=

    Nuclear Repulsion Energy =            255.0286362016383066
    One-Electron Energy =                -871.8576110646890811
    Two-Electron Energy =                 346.8163883003890646
    DFT Exchange-Correlation Energy =       0.0000000000000000
    Empirical Dispersion Energy =           0.0000000000000000
    PCM Polarization Energy =               0.0000000000000000
    EFP Energy =                            0.0000000000000000
    Total Energy =                       -270.0125865626617383
    Molecular point group: c1
  Basis Set: 6-31G*
  Basis Set:

  -Total Gradient:
     Atom            X                  Y                   Z
    ------   -----------------  -----------------  -----------------
       1        0.000363675880     0.001444799850     0.001055425507
       2       -0.000661870830    -0.002082783310    -0.001774361582
       3        0.000560408691     0.001266803504     0.001607252525
       4       -0.000011528796    -0.000005105676     0.000026551093
       5        0.000063677370     0.000023481093     0.000014133399
       6       -0.000314714012    -0.000631720931    -0.000961918734
       7       -0.000002994823    -0.000034457609     0.000009819777
       8        0.000001761464     0.000012787066     0.000028387484
       9       -0.000016166363     0.000007325665     0.000021411012
      10        0.000025215959    -0.000009650760     0.000008925587
      11       -0.000004509485     0.000011993618    -0.000004578093
      12        0.000007457504     0.000009850921    -0.000016501946
      13        0.000022187518     0.000015278841    -0.000037192508
      14       -0.000036146980    -0.000025888376    -0.000033430079
      15       -0.000022897576     0.000001637298     0.000037914286
      16        0.000026444476    -0.000004351191     0.000018162272

  **** Optimization is complete! (in 6 steps) ****
    Final optimized geometry and variables:
    Molecular point group: c1

    Geometry (in Angstrom), charge = 0, multiplicity = 1:

    H            2.224635898438     0.472780745674    -0.825422207097
    O            2.094711556944    -0.057879321366    -0.052861948489
    C            0.749810261451    -0.004132112756     0.343191924646
    H            0.750648117715     0.026402080743     1.428611885218
    C           -0.076346250701    -1.200828153793    -0.132060354391
    C           -0.043365997214     1.186818373762    -0.193658245293
    H            0.158440585252    -1.379030396925    -1.178345475218
    H            0.158886836742    -2.110064423257     0.409247506362
    C           -1.541900075841    -0.753003718789     0.031853455048
    H            0.135512712736     1.269880622473    -1.265887671024
    H            0.242471607227     2.129858349518     0.260198158584
    C           -1.506470429066     0.801773227932     0.071537798883
    H           -2.161033606227    -1.120414729857    -0.778460030400
    H           -1.967696388000    -1.144640534795     0.949296829115
    H           -2.181153948207     1.249304469541    -0.648894446677
    H           -1.811348053844     1.159832868001     1.049499099824

  Mulliken Charges: (a.u.)
   Center  Symbol    Alpha    Beta     Spin     Total
       1     H     0.28115  0.28115  0.00000  0.43769
       2     O     4.38086  4.38086  0.00000 -0.76173
       3     C     2.89985  2.89985  0.00000  0.20030
       4     H     0.42002  0.42002  0.00000  0.15996
       5     C     3.16611  3.16611  0.00000 -0.33222
       6     C     3.18303  3.18303  0.00000 -0.36605
       7     H     0.42147  0.42147  0.00000  0.15706
       8     H     0.41192  0.41192  0.00000  0.17616
       9     C     3.17009  3.17009  0.00000 -0.34019
      10     H     0.42664  0.42664  0.00000  0.14672
      11     H     0.41123  0.41123  0.00000  0.17754
      12     C     3.16770  3.16770  0.00000 -0.33540
      13     H     0.41478  0.41478  0.00000  0.17044
      14     H     0.41574  0.41574  0.00000  0.16853
      15     H     0.41390  0.41390  0.00000  0.17219
      16     H     0.41550  0.41550  0.00000  0.16899

   Total alpha = 24.00000, Total beta = 24.00000, Total charge = -0.00000
