  ==> Input File <==

--------------------------------------------------------------------------
set {
	reference rhf
	basis 6-31G*
}

set_num_threads( 1 )
memory 2 gb

molecule MOL {
0 1

H	 -2.147241	 -0.234329	 1.027916
O	 -2.035884	 -0.060112	 0.102722
C	 -0.955155	 0.788182	 -0.092531
C	 0.353668	 0.040312	 -0.004810
H	 -0.985057	 1.290372	 -1.054184
H	 -0.974469	 1.533190	 0.688632
F	 0.394464	 -0.937475	 -0.903053
F	 1.368604	 0.853376	 -0.249821
F	 0.546173	 -0.502608	 1.179981

	symmetry c1
}
set optking {
	frozen_dihedral = ("
		7 4 3 5
	")
}

ee = energy('scf')
oeprop('DIPOLE', 'QUADRUPOLE', 'MULLIKEN_CHARGES')
f=open( 'psi4out.xyz', 'w' )
f.write( "9  " )
f.write( str(ee) + "\n" )
f.write( MOL.save_string_xyz() )
f.close()
--------------------------------------------------------------------------

    Molecular point group: c1

    Geometry (in Angstrom), charge = 0, multiplicity = 1:

       Center              X                  Y                   Z               Mass
    ------------   -----------------  -----------------  -----------------  -----------------
           H         -2.146754609352    -0.238762790665     1.011343510204     1.007825032070
           O         -2.035397609352    -0.064545790665     0.086149510204    15.994914619560
           C         -0.954668609352     0.783748209335    -0.109103489796    12.000000000000
           C          0.354154390648     0.035878209335    -0.021382489796    12.000000000000
           H         -0.984570609352     1.285938209335    -1.070756489796     1.007825032070
           H         -0.973982609352     1.528756209335     0.672059510204     1.007825032070
           F          0.394950390648    -0.941908790665    -0.919625489796    18.998403224000
           F          1.369090390648     0.848942209335    -0.266393489796    18.998403224000
           F          0.546659390648    -0.507041790665     1.163408510204    18.998403224000

  Charge       = 0
  Multiplicity = 1
  Basis Set: 6-31G*
  Basis Set:

    Orbital Energies (a.u.)
    -----------------------

    Doubly Occupied:

       1A    -26.345052     2A    -26.341896     3A    -26.331755
       4A    -20.589658     5A    -11.497978     6A    -11.310524
       7A     -1.738143     8A     -1.640199     9A     -1.629983
      10A     -1.402618    11A     -1.047415    12A     -0.921914
      13A     -0.828326    14A     -0.826286    15A     -0.800212
      16A     -0.730471    17A     -0.710407    18A     -0.696319
      19A     -0.665745    20A     -0.654331    21A     -0.639513
      22A     -0.633445    23A     -0.609259    24A     -0.528696
      25A     -0.479423

  @DF-RHF Final Energy:  -450.66035544077874

   => Energetics <=

    Nuclear Repulsion Energy =            276.8841254780172676
    One-Electron Energy =               -1175.8898302866678023
    Two-Electron Energy =                 448.3453493678715631
    DFT Exchange-Correlation Energy =       0.0000000000000000
    Empirical Dispersion Energy =           0.0000000000000000
    PCM Polarization Energy =               0.0000000000000000
    EFP Energy =                            0.0000000000000000
    Total Energy =                       -450.6603554407789716

  Mulliken Charges: (a.u.)
   Center  Symbol    Alpha    Beta     Spin     Total
       1     H     0.27161  0.27161  0.00000  0.45677
       2     O     4.36108  4.36108  0.00000 -0.72216
       3     C     3.05653  3.05653  0.00000 -0.11306
       4     C     2.46154  2.46154  0.00000  1.07692
       5     H     0.39495  0.39495  0.00000  0.21009
       6     H     0.41129  0.41129  0.00000  0.17743
       7     F     4.68058  4.68058  0.00000 -0.36116
       8     F     4.68209  4.68209  0.00000 -0.36418
       9     F     4.68032  4.68032  0.00000 -0.36064

   Total alpha = 25.00000, Total beta = 25.00000, Total charge =  0.00000
