  ==> Input File <==

--------------------------------------------------------------------------
set {
	reference rhf
	basis 6-31G*
}

set_num_threads( 1 )
memory 2 gb

molecule MOL {
0 1

H	 -3.261111	 -0.295142	 1.469456
C	 -3.306842	 -0.277400	 0.373456
C	 -2.660244	 0.921717	 -0.272021
O	 -3.838538	 -1.161155	 -0.216482
C	 -1.220012	 1.144545	 0.209990
H	 -2.705793	 0.797307	 -1.347733
H	 -3.263782	 1.790044	 -0.010477
C	 -0.252658	 0.041456	 -0.226725
H	 -0.873521	 2.100229	 -0.171974
H	 -1.211708	 1.231594	 1.295398
C	 1.180775	 0.282413	 0.250794
H	 -0.266029	 -0.034465	 -1.312038
H	 -0.597733	 -0.921000	 0.146291
C	 2.148627	 -0.814315	 -0.201312
H	 1.516199	 1.249228	 -0.115937
H	 1.192670	 0.346017	 1.338083
C	 3.580890	 -0.659131	 0.322722
H	 2.166869	 -0.852443	 -1.289387
H	 1.762857	 -1.776509	 0.128956
C	 3.726592	 -0.832717	 1.835421
H	 3.940652	 0.329832	 0.049827
H	 4.229728	 -1.368560	 -0.186827
H	 3.076312	 -0.146297	 2.371360
H	 3.479778	 -1.839754	 2.154692
H	 4.746756	 -0.633336	 2.149280

	symmetry c1
}
set optking {
	frozen_dihedral = ("
		6 3 5 8,
		6 3 2 4,
		3 5 8 12,
		12 8 11 14,
		8 11 14 18
	")
}

ee = energy('scf')
oeprop('DIPOLE', 'QUADRUPOLE', 'MULLIKEN_CHARGES')
f=open( 'psi4out.xyz', 'w' )
f.write( "25  " )
f.write( str(ee) + "\n" )
f.write( MOL.save_string_xyz() )
f.close()
--------------------------------------------------------------------------

    Molecular point group: c1

    Geometry (in Angstrom), charge = 0, multiplicity = 1:

       Center              X                  Y                   Z               Mass
    ------------   -----------------  -----------------  -----------------  -----------------
           H         -3.190939441919    -0.131879611151     1.229318502734     1.007825032070
           C         -3.236670441919    -0.114137611151     0.133318502734    12.000000000000
           C         -2.590072441919     1.084979388849    -0.512158497266    12.000000000000
           O         -3.768366441919    -0.997892611151    -0.456619497266    15.994914619560
           C         -1.149840441919     1.307807388849    -0.030147497266    12.000000000000
           H         -2.635621441919     0.960569388849    -1.587870497266     1.007825032070
           H         -3.193610441919     1.953306388849    -0.250614497266     1.007825032070
           C         -0.182486441919     0.204718388849    -0.466862497266    12.000000000000
           H         -0.803349441919     2.263491388849    -0.412111497266     1.007825032070
           H         -1.141536441919     1.394856388849     1.055260502734     1.007825032070
           C          1.250946558081     0.445675388849     0.010656502734    12.000000000000
           H         -0.195857441919     0.128797388849    -1.552175497266     1.007825032070
           H         -0.527561441919    -0.757737611151    -0.093846497266     1.007825032070
           C          2.218798558081    -0.651052611151    -0.441449497266    12.000000000000
           H          1.586370558081     1.412490388849    -0.356074497266     1.007825032070
           H          1.262841558081     0.509279388849     1.097945502734     1.007825032070
           C          3.651061558081    -0.495868611151     0.082584502734    12.000000000000
           H          2.237040558081    -0.689180611151    -1.529524497266     1.007825032070
           H          1.833028558081    -1.613246611151    -0.111181497266     1.007825032070
           C          3.796763558081    -0.669454611151     1.595283502734    12.000000000000
           H          4.010823558081     0.493094388849    -0.190310497266     1.007825032070
           H          4.299899558081    -1.205297611151    -0.426964497266     1.007825032070
           H          3.146483558081     0.016965388849     2.131222502734     1.007825032070
           H          3.549949558081    -1.676491611151     1.914554502734     1.007825032070
           H          4.816927558081    -0.470073611151     1.909142502734     1.007825032070

  Charge       = 0
  Multiplicity = 1
  Basis Set: 6-31G*
  Basis Set:

    Orbital Energies (a.u.)
    -----------------------

    Doubly Occupied:

       1A    -20.562043     2A    -11.326170     3A    -11.235424
       4A    -11.234706     5A    -11.224079     6A    -11.220055
       7A    -11.217994     8A    -11.216963     9A    -11.210755
      10A     -1.402017    11A     -1.104183    12A     -1.069908
      13A     -1.013381    14A     -0.942474    15A     -0.875294
      16A     -0.820560    17A     -0.788173    18A     -0.781896
      19A     -0.664170    20A     -0.662608    21A     -0.630894
      22A     -0.626454    23A     -0.608536    24A     -0.590412
      25A     -0.566663    26A     -0.563392    27A     -0.524300
      28A     -0.521792    29A     -0.519427    30A     -0.497108
      31A     -0.487051    32A     -0.481131    33A     -0.463560
      34A     -0.458076    35A     -0.442278    36A     -0.409589

  @DF-RHF Final Energy:  -387.12141606659134

   => Energetics <=

    Nuclear Repulsion Energy =            439.9030438046947893
    One-Electron Energy =               -1396.1220917493656088
    Two-Electron Energy =                 569.0976318780797101
    DFT Exchange-Correlation Energy =       0.0000000000000000
    Empirical Dispersion Energy =           0.0000000000000000
    PCM Polarization Energy =               0.0000000000000000
    EFP Energy =                            0.0000000000000000
    Total Energy =                       -387.1214160665911095

  Mulliken Charges: (a.u.)
   Center  Symbol    Alpha    Beta     Spin     Total
       1     H     0.43259  0.43259  0.00000  0.13482
       2     C     2.83086  2.83086  0.00000  0.33828
       3     C     3.20813  3.20813  0.00000 -0.41626
       4     O     4.23773  4.23773  0.00000 -0.47547
       5     C     3.16658  3.16658  0.00000 -0.33317
       6     H     0.39967  0.39967  0.00000  0.20066
       7     H     0.40667  0.40667  0.00000  0.18665
       8     C     3.15463  3.15463  0.00000 -0.30926
       9     H     0.41282  0.41282  0.00000  0.17435
      10     H     0.41964  0.41964  0.00000  0.16073
      11     C     3.15450  3.15450  0.00000 -0.30900
      12     H     0.41807  0.41807  0.00000  0.16386
      13     H     0.41819  0.41819  0.00000  0.16361
      14     C     3.15314  3.15314  0.00000 -0.30628
      15     H     0.42276  0.42276  0.00000  0.15449
      16     H     0.42184  0.42184  0.00000  0.15632
      17     C     3.15294  3.15294  0.00000 -0.30588
      18     H     0.42057  0.42057  0.00000  0.15886
      19     H     0.42307  0.42307  0.00000  0.15386
      20     C     3.24154  3.24154  0.00000 -0.48307
      21     H     0.42384  0.42384  0.00000  0.15232
      22     H     0.41953  0.41953  0.00000  0.16094
      23     H     0.42134  0.42134  0.00000  0.15731
      24     H     0.42080  0.42080  0.00000  0.15840
      25     H     0.41853  0.41853  0.00000  0.16293

   Total alpha = 36.00000, Total beta = 36.00000, Total charge = -0.00000
