  ==> Input File <==

--------------------------------------------------------------------------
set {
	reference rhf
	basis 6-31G*
}

set_num_threads( 1 )
memory 2 gb

molecule MOL {
0 1

H	 -1.763319	 0.479509	 -2.655570
O	 -1.986710	 0.224302	 -1.771628
C	 -1.021737	 0.715707	 -0.880372
C	 0.266191	 -0.083965	 -0.966582
H	 -0.811684	 1.767058	 -1.056145
H	 -1.436995	 0.624911	 0.113493
O	 1.171513	 0.459272	 -0.058250
H	 0.667427	 -0.039689	 -1.980993
H	 0.062863	 -1.129330	 -0.741963
C	 2.397842	 -0.198080	 -0.002151
H	 2.508049	 -0.905315	 -0.822092
H	 3.173794	 0.550865	 -0.078850
H	 2.517602	 -0.735921	 0.936026

	symmetry c1
}
set optking {
	frozen_dihedral = ("
		8 4 3 5,
		1 2 3 5,
		10 7 4 8
	")
}

ee = energy('scf')
oeprop('DIPOLE', 'QUADRUPOLE', 'MULLIKEN_CHARGES')
f=open( 'psi4out.xyz', 'w' )
f.write( "13  " )
f.write( str(ee) + "\n" )
f.write( MOL.save_string_xyz() )
f.close()
--------------------------------------------------------------------------

    Molecular point group: c1

    Geometry (in Angstrom), charge = 0, multiplicity = 1:

       Center              X                  Y                   Z               Mass
    ------------   -----------------  -----------------  -----------------  -----------------
           H         -1.916170974798     0.259206644303    -1.895656271476     1.007825032070
           O         -2.139561974798     0.003999644303    -1.011714271476    15.994914619560
           C         -1.174588974798     0.495404644303    -0.120458271476    12.000000000000
           C          0.113339025202    -0.304267355697    -0.206668271476    12.000000000000
           H         -0.964535974798     1.546755644303    -0.296231271476     1.007825032070
           H         -1.589846974798     0.404608644303     0.873406728524     1.007825032070
           O          1.018661025202     0.238969644303     0.701663728524    15.994914619560
           H          0.514575025202    -0.259991355697    -1.221079271476     1.007825032070
           H         -0.089988974798    -1.349632355697     0.017950728524     1.007825032070
           C          2.244990025202    -0.418382355697     0.757762728524    12.000000000000
           H          2.355197025202    -1.125617355697    -0.062178271476     1.007825032070
           H          3.020942025202     0.330562644303     0.681063728524     1.007825032070
           H          2.364750025202    -0.956223355697     1.695939728524     1.007825032070

  Charge       = 0
  Multiplicity = 1
  Basis Set: 6-31G*
  Basis Set:

    Orbital Energies (a.u.)
    -----------------------

    Doubly Occupied:

       1A    -20.559971     2A    -20.559568     3A    -11.271381
       4A    -11.269315     5A    -11.268590     6A     -1.387863
       7A     -1.364962     8A     -1.018006     9A     -0.913044
      10A     -0.842871    11A     -0.708927    12A     -0.672838
      13A     -0.659390    14A     -0.636580    15A     -0.597584
      16A     -0.566879    17A     -0.548284    18A     -0.489477
      19A     -0.483453    20A     -0.438208    21A     -0.416913

  @DF-RHF Final Energy:  -267.94668806114692

   => Energetics <=

    Nuclear Repulsion Energy =            190.2778153895957018
    One-Electron Energy =                -743.1008135970761259
    Two-Electron Energy =                 284.8763101463332532
    DFT Exchange-Correlation Energy =       0.0000000000000000
    Empirical Dispersion Energy =           0.0000000000000000
    PCM Polarization Energy =               0.0000000000000000
    EFP Energy =                            0.0000000000000000
    Total Energy =                       -267.9466880611471424

  Mulliken Charges: (a.u.)
   Center  Symbol    Alpha    Beta     Spin     Total
       1     H     0.28134  0.28134  0.00000  0.43732
       2     O     4.37082  4.37082  0.00000 -0.74164
       3     C     3.00503  3.00503  0.00000 -0.01006
       4     C     2.99834  2.99834  0.00000  0.00332
       5     H     0.42238  0.42238  0.00000  0.15525
       6     H     0.40843  0.40843  0.00000  0.18315
       7     O     4.30913  4.30913  0.00000 -0.61826
       8     H     0.43702  0.43702  0.00000  0.12596
       9     H     0.42300  0.42300  0.00000  0.15400
      10     C     3.07769  3.07769  0.00000 -0.15537
      11     H     0.42858  0.42858  0.00000  0.14285
      12     H     0.41713  0.41713  0.00000  0.16573
      13     H     0.42112  0.42112  0.00000  0.15776

   Total alpha = 21.00000, Total beta = 21.00000, Total charge = -0.00000
