  ==> Input File <==

--------------------------------------------------------------------------
set {
	reference rhf
	basis 6-31G*
}

set_num_threads( 1 )
memory 2 gb

molecule MOL {
0 1

O	 3.225979	 0.970355	 -0.599647
C	 2.701189	 0.057885	 -0.047330
C	 1.245376	 -0.013843	 0.345420
O	 3.347903	 -1.046386	 0.304773
C	 0.455112	 1.231400	 -0.050772
H	 0.838542	 -0.913825	 -0.103701
H	 1.208210	 -0.175333	 1.419774
C	 -0.998893	 1.219485	 0.433193
H	 0.482531	 1.345121	 -1.130325
H	 0.957290	 2.103070	 0.354729
C	 -1.971054	 2.035221	 -0.423889
H	 -1.019226	 1.609581	 1.448148
H	 -1.350817	 0.190951	 0.498598
C	 -3.384289	 2.081955	 0.160561
H	 -1.591170	 3.050484	 -0.527569
H	 -2.020431	 1.623359	 -1.429326
C	 -4.365658	 2.890087	 -0.690302
H	 -3.345344	 2.505695	 1.162641
H	 -3.760605	 1.066523	 0.274503
C	 -5.773696	 2.935009	 -0.097756
H	 -3.990641	 3.904788	 -0.806002
H	 -4.409238	 2.465403	 -1.691064
H	 -6.445764	 3.514578	 -0.723081
H	 -5.769036	 3.386950	 0.890132
H	 -6.190517	 1.936402	 -0.001220
C	 4.728119	 -1.109107	 -0.004993
H	 4.882018	 -1.033965	 -1.071845
H	 5.068212	 -2.067527	 0.355250
H	 5.265056	 -0.311663	 0.488280

	symmetry c1
}
set optking {
	frozen_dihedral = ("
		21 17 14 11,
		17 14 11 15,
		15 11 8 5,
		6 3 5 9,
		2 4 26 27,
		1 2 4 26,
		6 3 2 1
	")
}

ee = energy('scf')
oeprop('DIPOLE', 'QUADRUPOLE', 'MULLIKEN_CHARGES')
f=open( 'psi4out.xyz', 'w' )
f.write( "29  " )
f.write( str(ee) + "\n" )
f.write( MOL.save_string_xyz() )
f.close()
--------------------------------------------------------------------------

    Molecular point group: c1

    Geometry (in Angstrom), charge = 0, multiplicity = 1:

       Center              X                  Y                   Z               Mass
    ------------   -----------------  -----------------  -----------------  -----------------
           O          3.254901890884    -0.035844159074    -0.537523625243    15.994914619560
           C          2.730111890884    -0.948314159074     0.014793374757    12.000000000000
           C          1.274298890884    -1.020042159074     0.407543374757    12.000000000000
           O          3.376825890884    -2.052585159074     0.366896374757    15.994914619560
           C          0.484034890884     0.225200840926     0.011351374757    12.000000000000
           H          0.867464890884    -1.920024159074    -0.041577625243     1.007825032070
           H          1.237132890884    -1.181532159074     1.481897374757     1.007825032070
           C         -0.969970109116     0.213285840926     0.495316374757    12.000000000000
           H          0.511453890884     0.338921840926    -1.068201625243     1.007825032070
           H          0.986212890884     1.096870840926     0.416852374757     1.007825032070
           C         -1.942131109116     1.029021840926    -0.361765625243    12.000000000000
           H         -0.990303109116     0.603381840926     1.510271374757     1.007825032070
           H         -1.321894109116    -0.815248159074     0.560721374757     1.007825032070
           C         -3.355366109116     1.075755840926     0.222684374757    12.000000000000
           H         -1.562247109116     2.044284840926    -0.465445625243     1.007825032070
           H         -1.991508109116     0.617159840926    -1.367202625243     1.007825032070
           C         -4.336735109116     1.883887840926    -0.628178625243    12.000000000000
           H         -3.316421109116     1.499495840926     1.224764374757     1.007825032070
           H         -3.731682109116     0.060323840926     0.336626374757     1.007825032070
           C         -5.744773109116     1.928809840926    -0.035632625243    12.000000000000
           H         -3.961718109116     2.898588840926    -0.743878625243     1.007825032070
           H         -4.380315109116     1.459203840926    -1.628940625243     1.007825032070
           H         -6.416841109116     2.508378840926    -0.660957625243     1.007825032070
           H         -5.740113109116     2.380750840926     0.952255374757     1.007825032070
           H         -6.161594109116     0.930202840926     0.060903374757     1.007825032070
           C          4.757041890884    -2.115306159074     0.057130374757    12.000000000000
           H          4.910940890884    -2.040164159074    -1.009721625243     1.007825032070
           H          5.097134890884    -3.073726159074     0.417373374757     1.007825032070
           H          5.293978890884    -1.317862159074     0.550403374757     1.007825032070

  Charge       = 0
  Multiplicity = 1
  Basis Set: 6-31G*
  Basis Set:

    Orbital Energies (a.u.)
    -----------------------

    Doubly Occupied:

       1A    -20.603547     2A    -20.545382     3A    -11.372176
       4A    -11.280804     5A    -11.235983     6A    -11.218374
       7A    -11.216940     8A    -11.214984     9A    -11.214728
      10A    -11.213261    11A    -11.208234    12A     -1.469257
      13A     -1.362680    14A     -1.096171    15A     -1.067161
      16A     -1.020221    17A     -0.977568    18A     -0.927211
      19A     -0.856488    20A     -0.800578    21A     -0.790008
      22A     -0.766728    23A     -0.697701    24A     -0.683115
      25A     -0.671850    26A     -0.654727    27A     -0.629851
      28A     -0.597932    29A     -0.594158    30A     -0.583374
      31A     -0.565995    32A     -0.549709    33A     -0.530133
      34A     -0.526787    35A     -0.514979    36A     -0.512963
      37A     -0.493879    38A     -0.477557    39A     -0.467334
      40A     -0.461324    41A     -0.460159    42A     -0.455236
      43A     -0.446085    44A     -0.432078

  @DF-RHF Final Energy:  -501.04280252139131

   => Energetics <=

    Nuclear Repulsion Energy =            601.5435379661061006
    One-Electron Energy =               -1874.2415661770614861
    Two-Electron Energy =                 771.6552256895664641
    DFT Exchange-Correlation Energy =       0.0000000000000000
    Empirical Dispersion Energy =           0.0000000000000000
    PCM Polarization Energy =               0.0000000000000000
    EFP Energy =                            0.0000000000000000
    Total Energy =                       -501.0428025213888077

  Mulliken Charges: (a.u.)
   Center  Symbol    Alpha    Beta     Spin     Total
       1     O     4.28583  4.28583  0.00000 -0.57165
       2     C     2.60516  2.60516  0.00000  0.78968
       3     C     3.20935  3.20935  0.00000 -0.41870
       4     O     4.30763  4.30763  0.00000 -0.61526
       5     C     3.15361  3.15361  0.00000 -0.30721
       6     H     0.40016  0.40016  0.00000  0.19968
       7     H     0.40059  0.40059  0.00000  0.19882
       8     C     3.15523  3.15523  0.00000 -0.31045
       9     H     0.41232  0.41232  0.00000  0.17537
      10     H     0.40958  0.40958  0.00000  0.18083
      11     C     3.15296  3.15296  0.00000 -0.30592
      12     H     0.42160  0.42160  0.00000  0.15680
      13     H     0.42405  0.42405  0.00000  0.15190
      14     C     3.15137  3.15137  0.00000 -0.30274
      15     H     0.42151  0.42151  0.00000  0.15698
      16     H     0.42247  0.42247  0.00000  0.15507
      17     C     3.15151  3.15151  0.00000 -0.30302
      18     H     0.42389  0.42389  0.00000  0.15221
      19     H     0.42424  0.42424  0.00000  0.15152
      20     C     3.23926  3.23926  0.00000 -0.47852
      21     H     0.42254  0.42254  0.00000  0.15492
      22     H     0.42306  0.42306  0.00000  0.15389
      23     H     0.41923  0.41923  0.00000  0.16154
      24     H     0.42181  0.42181  0.00000  0.15637
      25     H     0.42201  0.42201  0.00000  0.15598
      26     C     3.09243  3.09243  0.00000 -0.18486
      27     H     0.40905  0.40905  0.00000  0.18190
      28     H     0.40847  0.40847  0.00000  0.18307
      29     H     0.40910  0.40910  0.00000  0.18179

   Total alpha = 44.00000, Total beta = 44.00000, Total charge = -0.00000
