  ==> Input File <==

--------------------------------------------------------------------------
set {
	reference rhf
	basis 6-31G*
}

set_num_threads( 4 )
memory 2 gb

molecule MOL {
0 1

H	 1.507301	 1.287391	 0.230975
C	 0.850167	 0.441173	 0.000644
C	 -0.623425	 0.760064	 0.000248
O	 1.312261	 -0.629263	 -0.228227
C	 -1.518387	 -0.473136	 -0.000101
H	 -0.818289	 1.390622	 -0.866171
H	 -0.818694	 1.390413	 0.866696
H	 -1.333417	 -1.085530	 -0.874338
H	 -2.563510	 -0.183466	 -0.000351
H	 -1.333864	 -1.085676	 0.874123

	symmetry c1
}
set optking {
	frozen_dihedral = ("
		4 2 3 6
	")
}

ee = optimize('scf')
oeprop('DIPOLE', 'QUADRUPOLE', 'MULLIKEN_CHARGES')
f=open( 'psi4out.xyz', 'w' )
f.write( "10  " )
f.write( str(ee) + "\n" )
f.write( MOL.save_string_xyz() )
f.close()
--------------------------------------------------------------------------

    Molecular point group: c1
  Charge       = 0
  Multiplicity = 1
  Basis Set: 6-31G*
  Basis Set:
  @DF-RHF Final Energy:  -191.95163537073722
    Total Energy =                       -191.9516353707372218
    Molecular point group: c1
  Basis Set: 6-31G*
  Basis Set:
  Basis Set: 6-31G*
  Basis Set:
  @DF-RHF Final Energy:  -191.95091008444388
    Total Energy =                       -191.9509100844439047
  Basis Set: 6-31G*
  Basis Set:
  Basis Set: 6-31G*
  Basis Set:
  @DF-RHF Final Energy:  -191.95170675074996
    Total Energy =                       -191.9517067507500201
  Basis Set: 6-31G*
  Basis Set:
  Charge       = 0
  Multiplicity = 1
  Basis Set: 6-31G*
  Basis Set:

    Orbital Energies (a.u.)
    -----------------------

    Doubly Occupied:

       1A    -20.564888     2A    -11.329184     3A    -11.240593
       4A    -11.219400     5A     -1.405169     6A     -1.060029
       7A     -0.909752     8A     -0.774146     9A     -0.683098
      10A     -0.636068    11A     -0.628791    12A     -0.542315
      13A     -0.532120    14A     -0.518017    15A     -0.492975
      16A     -0.414710

  @DF-RHF Final Energy:  -191.95173348165844

   => Energetics <=

    Nuclear Repulsion Energy =            119.1643209320142063
    One-Electron Energy =                -496.3295971138998084
    Two-Electron Energy =                 185.2135427002271513
    DFT Exchange-Correlation Energy =       0.0000000000000000
    Empirical Dispersion Energy =           0.0000000000000000
    PCM Polarization Energy =               0.0000000000000000
    EFP Energy =                            0.0000000000000000
    Total Energy =                       -191.9517334816584366
    Molecular point group: c1
  Basis Set: 6-31G*
  Basis Set:

  -Total Gradient:
     Atom            X                  Y                   Z
    ------   -----------------  -----------------  -----------------
       1        0.000031530276     0.000000967298    -0.000008301704
       2       -0.000114405216    -0.000612442359     0.001779913484
       3        0.000300424896     0.001405122066     0.000184697486
       4        0.000047942474     0.000300841046    -0.001320937289
       5       -0.000021506502     0.000008026397     0.000068669420
       6       -0.000194329104    -0.000993646541    -0.000709226060
       7       -0.000017394075    -0.000055406212    -0.000029741092
       8        0.000008531631     0.000041790745     0.000015943211
       9       -0.000002775704    -0.000021811522    -0.000000009932
      10       -0.000038018677    -0.000073440916     0.000018992475

  **** Optimization is complete! (in 4 steps) ****
    Final optimized geometry and variables:
    Molecular point group: c1

    Geometry (in Angstrom), charge = 0, multiplicity = 1:

    H            1.514097452693     1.285830561611     0.247723713414
    C            0.850300295037     0.434939385492     0.057375328756
    C           -0.623656559239     0.755789020133     0.069083189733
    O            1.306171790454    -0.639394642496    -0.165821522986
    C           -1.517805262894    -0.479199093471     0.051258108058
    H           -0.813411347035     1.377589364958    -0.805749053989
    H           -0.828209489899     1.385331942681     0.932076691357
    H           -1.321383954880    -1.084936482034    -0.824336771965
    H           -2.563205196646    -0.190554073820     0.041547353992
    H           -1.344142538135    -1.097661962980     0.924404544159

  Mulliken Charges: (a.u.)
   Center  Symbol    Alpha    Beta     Spin     Total
       1     H     0.42794  0.42794  0.00000  0.14411
       2     C     2.83602  2.83602  0.00000  0.32796
       3     C     3.21092  3.21092  0.00000 -0.42184
       4     O     4.23649  4.23649  0.00000 -0.47298
       5     C     3.23744  3.23744  0.00000 -0.47488
       6     H     0.40505  0.40505  0.00000  0.18991
       7     H     0.40939  0.40939  0.00000  0.18123
       8     H     0.40692  0.40692  0.00000  0.18616
       9     H     0.41774  0.41774  0.00000  0.16452
      10     H     0.41210  0.41210  0.00000  0.17581

   Total alpha = 16.00000, Total beta = 16.00000, Total charge =  0.00000
