  ==> Input File <==

--------------------------------------------------------------------------
set {
	reference rhf
	basis 6-31G*
}

set_num_threads( 1 )
memory 2 gb

molecule MOL {
0 1

H	 -4.031818	 -0.453427	 -0.000094
C	 -2.967712	 -0.297022	 -0.000064
C	 -2.458620	 0.992929	 0.000032
C	 -2.109895	 -1.385637	 -0.000122
H	 -3.124998	 1.836319	 0.000077
C	 -1.090278	 1.193236	 0.000070
H	 -2.506361	 -2.384847	 -0.000198
C	 -0.739812	 -1.187531	 -0.000085
H	 -0.678594	 2.184290	 0.000146
C	 -0.226438	 0.104061	 0.000012
H	 -0.072310	 -2.027032	 -0.000131
C	 1.239129	 0.373821	 0.000060
O	 1.891461	 -0.302662	 0.933568
O	 1.778751	 1.118861	 -0.756632
C	 3.292477	 -0.105891	 1.005033
H	 3.763264	 -0.397642	 0.077652
H	 3.636162	 -0.732055	 1.813521
H	 3.519062	 0.930280	 1.209798

	symmetry c1
}
set optking {
	frozen_dihedral = ("
		12 13 15 16,
		10 12 13 15
	")
}

ee = energy('scf')
oeprop('DIPOLE', 'QUADRUPOLE', 'MULLIKEN_CHARGES')
f=open( 'psi4out.xyz', 'w' )
f.write( "18  " )
f.write( str(ee) + "\n" )
f.write( MOL.save_string_xyz() )
f.close()
--------------------------------------------------------------------------

    Molecular point group: c1

    Geometry (in Angstrom), charge = 0, multiplicity = 1:

       Center              X                  Y                   Z               Mass
    ------------   -----------------  -----------------  -----------------  -----------------
           H         -4.020640644116    -0.514126695865    -0.132501358784     1.007825032070
           C         -2.956534644116    -0.357721695865    -0.132471358784    12.000000000000
           C         -2.447442644116     0.932229304135    -0.132375358784    12.000000000000
           C         -2.098717644116    -1.446336695865    -0.132529358784    12.000000000000
           H         -3.113820644116     1.775619304135    -0.132330358784     1.007825032070
           C         -1.079100644116     1.132536304135    -0.132337358784    12.000000000000
           H         -2.495183644116    -2.445546695865    -0.132605358784     1.007825032070
           C         -0.728634644116    -1.248230695865    -0.132492358784    12.000000000000
           H         -0.667416644116     2.123590304135    -0.132261358784     1.007825032070
           C         -0.215260644116     0.043361304135    -0.132395358784    12.000000000000
           H         -0.061132644116    -2.087731695865    -0.132538358784     1.007825032070
           C          1.250306355884     0.313121304135    -0.132347358784    12.000000000000
           O          1.902638355884    -0.363361695865     0.801160641216    15.994914619560
           O          1.789928355884     1.058161304135    -0.889039358784    15.994914619560
           C          3.303654355884    -0.166590695865     0.872625641216    12.000000000000
           H          3.774441355884    -0.458341695865    -0.054755358784     1.007825032070
           H          3.647339355884    -0.792754695865     1.681113641216     1.007825032070
           H          3.530239355884     0.869580304135     1.077390641216     1.007825032070

  Charge       = 0
  Multiplicity = 1
  Basis Set: 6-31G*
  Basis Set:

    Orbital Energies (a.u.)
    -----------------------

    Doubly Occupied:

       1A    -20.609017     2A    -20.547611     3A    -11.379218
       4A    -11.283057     5A    -11.249612     6A    -11.245377
       7A    -11.243380     8A    -11.242770     9A    -11.239424
      10A    -11.238739    11A     -1.473819    12A     -1.364926
      13A     -1.166315    14A     -1.048859    15A     -1.026153
      16A     -0.979045    17A     -0.860940    18A     -0.837430
      19A     -0.779237    20A     -0.738314    21A     -0.684665
      22A     -0.678774    23A     -0.674980    24A     -0.630446
      25A     -0.628645    26A     -0.597848    27A     -0.589585
      28A     -0.551996    29A     -0.533696    30A     -0.516259
      31A     -0.507113    32A     -0.501556    33A     -0.458156
      34A     -0.445298    35A     -0.343200    36A     -0.342415

  @DF-RHF Final Energy:  -457.34385477406090

   => Energetics <=

    Nuclear Repulsion Energy =            492.0748799783170853
    One-Electron Energy =               -1598.3620965393843107
    Two-Electron Energy =                 648.9433617870059834
    DFT Exchange-Correlation Energy =       0.0000000000000000
    Empirical Dispersion Energy =           0.0000000000000000
    PCM Polarization Energy =               0.0000000000000000
    EFP Energy =                            0.0000000000000000
    Total Energy =                       -457.3438547740612421

  Mulliken Charges: (a.u.)
   Center  Symbol    Alpha    Beta     Spin     Total
       1     H     0.39603  0.39603  0.00000  0.20793
       2     C     3.09424  3.09424  0.00000 -0.18847
       3     C     3.10285  3.10285  0.00000 -0.20570
       4     C     3.10338  3.10338  0.00000 -0.20675
       5     H     0.39527  0.39527  0.00000  0.20945
       6     C     3.09484  3.09484  0.00000 -0.18968
       7     H     0.39575  0.39575  0.00000  0.20849
       8     C     3.09157  3.09157  0.00000 -0.18315
       9     H     0.38455  0.38455  0.00000  0.23091
      10     C     3.02755  3.02755  0.00000 -0.05510
      11     H     0.38852  0.38852  0.00000  0.22295
      12     C     2.62559  2.62559  0.00000  0.74882
      13     O     4.30048  4.30048  0.00000 -0.60096
      14     O     4.28271  4.28271  0.00000 -0.56542
      15     C     3.09379  3.09379  0.00000 -0.18758
      16     H     0.40811  0.40811  0.00000  0.18378
      17     H     0.40709  0.40709  0.00000  0.18581
      18     H     0.40767  0.40767  0.00000  0.18466

   Total alpha = 36.00000, Total beta = 36.00000, Total charge = -0.00000
