                              Psi4 1.0.54 Driver

  ==> Input File <==

--------------------------------------------------------------------------
set {
	reference rhf
	basis cc-pvtz
}

set_num_threads( 4 )
memory 2 gb

molecule MOL {
0 1

H	 -2.816458	 -0.841657	 -0.064679
N	 -1.878861	 -0.711874	 0.250184
C	 -1.341419	 0.551458	 -0.220231
H	 -1.333674	 -1.468530	 -0.105118
C	 0.082190	 0.731516	 0.254705
H	 -1.357065	 0.652078	 -1.304747
H	 -1.939897	 1.357530	 0.189797
O	 0.880862	 -0.249454	 -0.334810
H	 0.441383	 1.721955	 -0.021310
H	 0.119676	 0.644999	 1.338235
C	 2.207672	 -0.235589	 0.075801
H	 2.724841	 -1.029141	 -0.444006
H	 2.688438	 0.710384	 -0.164394
H	 2.294488	 -0.403205	 1.146749

	symmetry c1
}
set optking {
	frozen_dihedral = ("
		8 5 3 6
	")
}

ee,wfn = optimize('scf', return_wfn=True)
oeprop( wfn, 'DIPOLE', 'QUADRUPOLE', 'MULLIKEN_CHARGES')
f=open( 'psi4out.xyz', 'w' )
f.write( "14  " )
f.write( str(ee) + "\n" )
f.write( MOL.save_string_xyz() )
f.close()
--------------------------------------------------------------------------

    Molecular point group: c1
  Charge       = 0
  Multiplicity = 1
  Basis Set: CC-PVTZ
  Basis Set:

    Orbital Energies (a.u.)
    -----------------------

    Doubly Occupied:

       1A    -20.550812     2A    -15.523564     3A    -11.263967
       4A    -11.263666     5A    -11.239930     6A     -1.384667
       7A     -1.176044     8A     -1.000619     9A     -0.907684
      10A     -0.815794    11A     -0.685518    12A     -0.676185
      13A     -0.647398    14A     -0.612234    15A     -0.607646
      16A     -0.542199    17A     -0.530350    18A     -0.498039
      19A     -0.474567    20A     -0.420265    21A     -0.383925

  @DF-RHF Final Energy:  -248.22619657300280

   => Energetics <=

    Nuclear Repulsion Energy =            194.7034322824291905
    One-Electron Energy =                -723.4491037473027291
    Two-Electron Energy =                 280.5194748918708001
    DFT Exchange-Correlation Energy =       0.0000000000000000
    Empirical Dispersion Energy =           0.0000000000000000
    PCM Polarization Energy =               0.0000000000000000
    EFP Energy =                            0.0000000000000000
    Total Energy =                       -248.2261965730027669
    Molecular point group: c1
  Basis Set: CC-PVTZ
  Basis Set:

  -Total Gradient:
     Atom            X                  Y                   Z
    ------   -----------------  -----------------  -----------------
       1       -0.000020001167     0.000021427834    -0.000003435124
       2       -0.000024381132    -0.000008848483     0.000027998610
       3        0.000065658170     0.000044053685    -0.000066962161
       4        0.000034285816    -0.000001874062    -0.000005008146
       5       -0.000043915295    -0.000003389143     0.000038538576
       6       -0.000017541564     0.000001436671     0.000000249791
       7        0.000000564219    -0.000036962795     0.000024743069
       8       -0.000001310258    -0.000023638341    -0.000029279392
       9       -0.000012875481    -0.000012119555    -0.000015439872
      10        0.000004649012     0.000015718550     0.000019617209
      11        0.000003380458     0.000015717602     0.000009455298
      12        0.000007040220    -0.000005319963    -0.000001782304
      13        0.000001127903    -0.000002708334    -0.000001263539
      14        0.000003319098    -0.000003493667     0.000002567983

  **** Optimization is complete! (in 1 steps) ****
    Final optimized geometry and variables:
    Molecular point group: c1

    Geometry (in Angstrom), charge = 0, multiplicity = 1:

    H           -2.816310946582    -0.841192534868    -0.065296824364
    N           -1.878713946582    -0.711409534868     0.249566175636
    C           -1.341271946582     0.551922465132    -0.220848824364
    H           -1.333526946582    -1.468065534868    -0.105735824364
    C            0.082337053418     0.731980465132     0.254087175636
    H           -1.356917946582     0.652542465132    -1.305364824364
    H           -1.939749946582     1.357994465132     0.189179175636
    O            0.881009053418    -0.248989534868    -0.335427824364
    H            0.441530053418     1.722419465132    -0.021927824364
    H            0.119823053418     0.645463465132     1.337617175636
    C            2.207819053418    -0.235124534868     0.075183175636
    H            2.724988053418    -1.028676534868    -0.444623824364
    H            2.688585053418     0.710848465132    -0.165011824364
    H            2.294635053418    -0.402740534868     1.146131175636

  Mulliken Charges: (a.u.)
   Center  Symbol    Alpha    Beta     Spin     Total
       1     H     0.43022  0.43022  0.00000  0.13955
       2     N     3.69419  3.69419  0.00000 -0.38837
       3     C     3.02194  3.02194  0.00000 -0.04389
       4     H     0.42247  0.42247  0.00000  0.15505
       5     C     2.96934  2.96934  0.00000  0.06131
       6     H     0.46454  0.46454  0.00000  0.07092
       7     H     0.45869  0.45869  0.00000  0.08262
       8     O     4.17997  4.17997  0.00000 -0.35994
       9     H     0.46968  0.46968  0.00000  0.06063
      10     H     0.46861  0.46861  0.00000  0.06277
      11     C     3.03185  3.03185  0.00000 -0.06370
      12     H     0.44758  0.44758  0.00000  0.10485
      13     H     0.47117  0.47117  0.00000  0.05767
      14     H     0.46974  0.46974  0.00000  0.06052

   Total alpha = 21.00000, Total beta = 21.00000, Total charge = -0.00000

*** Psi4 exiting successfully. Buy a developer a beer!
