  ==> Input File <==

--------------------------------------------------------------------------
set {
	reference rhf
	basis 6-31G*
}

set_num_threads( 4 )
memory 2 gb

molecule MOL {
0 1

H	 -2.499100	 -0.730091	 -0.745082
O	 -2.347518	 -0.290803	 0.079804
C	 -1.184022	 0.487508	 -0.006784
C	 0.062599	 -0.378592	 0.031606
H	 -1.176523	 1.099369	 -0.904519
H	 -1.187323	 1.153111	 0.844927
O	 1.171513	 0.459272	 -0.058250
H	 0.050699	 -1.089204	 -0.797170
H	 0.078739	 -0.954914	 0.954740
C	 1.786342	 0.735896	 1.160194
H	 2.152975	 -0.171760	 1.635979
H	 2.623736	 1.390536	 0.962406
H	 1.103428	 1.233305	 1.845763

	symmetry c1
}
set optking {
	frozen_dihedral = ("
		10 7 4 8
	")
}

ee = optimize('scf')
oeprop('DIPOLE', 'QUADRUPOLE', 'MULLIKEN_CHARGES')
f=open( 'psi4out.xyz', 'w' )
f.write( "13  " )
f.write( str(ee) + "\n" )
f.write( MOL.save_string_xyz() )
f.close()
--------------------------------------------------------------------------

    Molecular point group: c1
  Charge       = 0
  Multiplicity = 1
  Basis Set: 6-31G*
  Basis Set:
  @DF-RHF Final Energy:  -267.94689843361664
    Total Energy =                       -267.9468984336167523
    Molecular point group: c1
  Basis Set: 6-31G*
  Basis Set:
  Basis Set: 6-31G*
  Basis Set:
  @DF-RHF Final Energy:  -267.94762631911601
    Total Energy =                       -267.9476263191161252
  Basis Set: 6-31G*
  Basis Set:
  Basis Set: 6-31G*
  Basis Set:
  @DF-RHF Final Energy:  -267.94777259391253
    Total Energy =                       -267.9477725939122479
  Basis Set: 6-31G*
  Basis Set:
  Basis Set: 6-31G*
  Basis Set:
  @DF-RHF Final Energy:  -267.94777576873764
    Total Energy =                       -267.9477757687375288
  Basis Set: 6-31G*
  Basis Set:
  Charge       = 0
  Multiplicity = 1
  Basis Set: 6-31G*
  Basis Set:

    Orbital Energies (a.u.)
    -----------------------

    Doubly Occupied:

       1A    -20.561137     2A    -20.560248     3A    -11.270680
       4A    -11.270324     5A    -11.269508     6A     -1.384772
       7A     -1.365490     8A     -1.014896     9A     -0.922496
      10A     -0.838206    11A     -0.708908    12A     -0.673706
      13A     -0.655856    14A     -0.639163    15A     -0.595823
      16A     -0.575165    17A     -0.529958    18A     -0.507371
      19A     -0.471899    20A     -0.459352    21A     -0.405649

  @DF-RHF Final Energy:  -267.94777605251153

   => Energetics <=

    Nuclear Repulsion Energy =            191.2953806112478787
    One-Electron Energy =                -745.1251055954047615
    Two-Electron Energy =                 285.8819489316456384
    DFT Exchange-Correlation Energy =       0.0000000000000000
    Empirical Dispersion Energy =           0.0000000000000000
    PCM Polarization Energy =               0.0000000000000000
    EFP Energy =                            0.0000000000000000
    Total Energy =                       -267.9477760525112444
    Molecular point group: c1
  Basis Set: 6-31G*
  Basis Set:

  -Total Gradient:
     Atom            X                  Y                   Z
    ------   -----------------  -----------------  -----------------
       1       -0.000006465165    -0.000004492929     0.000001086971
       2        0.000019556020     0.000028270690    -0.000012720883
       3       -0.000020753936    -0.000032488465     0.000022220076
       4       -0.000370279325     0.000446614925    -0.000649245331
       5        0.000000036091    -0.000000924231    -0.000000894391
       6       -0.000001066795     0.000003569625    -0.000004306689
       7       -0.000462390547     0.000728806235     0.000219219901
       8        0.000428546521    -0.000583769327     0.000484525270
       9        0.000005676553     0.000005028922     0.000005735587
      10        0.000400631895    -0.000593100788    -0.000086840376
      11        0.000003686360     0.000002322556     0.000007474141
      12       -0.000000431083    -0.000000847660     0.000007044959
      13        0.000003253406     0.000001010448     0.000006700766

  **** Optimization is complete! (in 5 steps) ****
    Final optimized geometry and variables:
    Molecular point group: c1

    Geometry (in Angstrom), charge = 0, multiplicity = 1:

    H           -2.365203589442    -0.954577096534    -0.998134034945
    O           -2.239295184437    -0.494961160098    -0.179843397757
    C           -1.085592771332     0.299392482951    -0.258262456081
    C            0.176889256418    -0.549016014794    -0.199959583952
    H           -1.075656487905     0.903688191107    -1.161229803281
    H           -1.119228737738     0.975655142677     0.585792823811
    O            1.319309083182     0.253568563985    -0.286237264593
    H            0.198276385137    -1.242438641803    -1.035388613735
    H            0.174487013596    -1.141890829254     0.710682803035
    C            1.949682153728     0.537423690732     0.925608861232
    H            2.324313703779    -0.367783720413     1.397464278073
    H            2.784170621318     1.190177724673     0.709483270898
    H            1.284933819879     1.041457717108     1.623272805011

  Mulliken Charges: (a.u.)
   Center  Symbol    Alpha    Beta     Spin     Total
       1     H     0.28088  0.28088  0.00000  0.43825
       2     O     4.37041  4.37041  0.00000 -0.74081
       3     C     3.00497  3.00497  0.00000 -0.00994
       4     C     3.00517  3.00517  0.00000 -0.01034
       5     H     0.42210  0.42210  0.00000  0.15580
       6     H     0.41501  0.41501  0.00000  0.16998
       7     O     4.30864  4.30864  0.00000 -0.61727
       8     H     0.42269  0.42269  0.00000  0.15463
       9     H     0.42215  0.42215  0.00000  0.15571
      10     C     3.08137  3.08137  0.00000 -0.16275
      11     H     0.42644  0.42644  0.00000  0.14711
      12     H     0.41109  0.41109  0.00000  0.17783
      13     H     0.42910  0.42910  0.00000  0.14180

   Total alpha = 21.00000, Total beta = 21.00000, Total charge = -0.00000
