  ==> Input File <==

--------------------------------------------------------------------------
set {
	reference rhf
	basis 6-31G*
}

set_num_threads( 4 )
memory 2 gb

molecule MOL {
0 1

H	 0.927983	 -2.684496	 0.234909
C	 0.612605	 -2.241714	 1.187423
C	 -0.652474	 -1.425069	 1.127369
O	 1.255292	 -2.421148	 2.170726
C	 -0.558097	 -0.297372	 0.091132
H	 -0.852772	 -1.035386	 2.118584
H	 -1.467836	 -2.095343	 0.857649
C	 -1.850991	 0.512573	 -0.019058
H	 0.261930	 0.365792	 0.356731
H	 -0.312630	 -0.717050	 -0.882765
C	 -3.096943	 -0.368295	 -0.099594
H	 -1.800724	 1.150330	 -0.898172
H	 -1.931651	 1.177355	 0.838044
H	 -3.060452	 -1.020287	 -0.967456
H	 -3.996858	 0.233488	 -0.175704
H	 -3.191959	 -0.995686	 0.782074

	symmetry c1
}
set optking {
	frozen_dihedral = ("
		9 5 8 12
	")
}

ee = optimize('scf')
oeprop('DIPOLE', 'QUADRUPOLE', 'MULLIKEN_CHARGES')
f=open( 'psi4out.xyz', 'w' )
f.write( "16  " )
f.write( str(ee) + "\n" )
f.write( MOL.save_string_xyz() )
f.close()
--------------------------------------------------------------------------

    Molecular point group: c1
  Charge       = 0
  Multiplicity = 1
  Basis Set: 6-31G*
  Basis Set:
  @DF-RHF Final Energy:  -270.01536972910748
    Total Energy =                       -270.0153697291074195
    Molecular point group: c1
  Basis Set: 6-31G*
  Basis Set:
  Basis Set: 6-31G*
  Basis Set:
  @DF-RHF Final Energy:  -270.01598715222013
    Total Energy =                       -270.0159871522200774
  Basis Set: 6-31G*
  Basis Set:
  Basis Set: 6-31G*
  Basis Set:
  @DF-RHF Final Energy:  -270.01703660758477
    Total Energy =                       -270.0170366075847710
  Basis Set: 6-31G*
  Basis Set:
  Basis Set: 6-31G*
  Basis Set:
  @DF-RHF Final Energy:  -270.01655390905967
    Total Energy =                       -270.0165539090598372
  Basis Set: 6-31G*
  Basis Set:
  @DF-RHF Final Energy:  -270.01712374617887
    Total Energy =                       -270.0171237461789246
  Basis Set: 6-31G*
  Basis Set:
  @DF-RHF Final Energy:  -270.01713201823782
    Total Energy =                       -270.0171320182378167
  Basis Set: 6-31G*
  Basis Set:
  Basis Set: 6-31G*
  Basis Set:
  @DF-RHF Final Energy:  -270.01717348940815
    Total Energy =                       -270.0171734894081510
  Basis Set: 6-31G*
  Basis Set:
  Basis Set: 6-31G*
  Basis Set:
  @DF-RHF Final Energy:  -270.01718294113050
    Total Energy =                       -270.0171829411304998
  Basis Set: 6-31G*
  Basis Set:
  Charge       = 0
  Multiplicity = 1
  Basis Set: 6-31G*
  Basis Set:

    Orbital Energies (a.u.)
    -----------------------

    Doubly Occupied:

       1A    -20.561929     2A    -11.326147     3A    -11.237198
       4A    -11.234385     5A    -11.229822     6A    -11.219397
       7A     -1.401765     8A     -1.096101     9A     -1.014988
      10A     -0.914799    11A     -0.808906    12A     -0.788952
      13A     -0.675391    14A     -0.649984    15A     -0.637075
      16A     -0.591318    17A     -0.576668    18A     -0.568157
      19A     -0.524119    20A     -0.517170    21A     -0.487325
      22A     -0.479474    23A     -0.470249    24A     -0.409243

  @DF-RHF Final Energy:  -270.01718357309721

   => Energetics <=

    Nuclear Repulsion Energy =            232.1269347091472355
    One-Electron Energy =                -825.4471101497749714
    Two-Electron Energy =                 323.3029918675304657
    DFT Exchange-Correlation Energy =       0.0000000000000000
    Empirical Dispersion Energy =           0.0000000000000000
    PCM Polarization Energy =               0.0000000000000000
    EFP Energy =                            0.0000000000000000
    Total Energy =                       -270.0171835730972703
    Molecular point group: c1
  Basis Set: 6-31G*
  Basis Set:

  -Total Gradient:
     Atom            X                  Y                   Z
    ------   -----------------  -----------------  -----------------
       1        0.000009108134     0.000013441629    -0.000003193184
       2       -0.000019784988    -0.000023037128    -0.000012748920
       3        0.000004471239     0.000024865127     0.000009278474
       4       -0.000007283582     0.000002556102     0.000005064962
       5        0.000450178997     0.000234705623    -0.005126957429
       6        0.000006431246    -0.000008712496     0.000010919476
       7       -0.000005869595    -0.000007778000     0.000021918915
       8        0.001930488931     0.003224806948     0.003495542815
       9       -0.000680127351    -0.000653681794     0.003778356596
      10       -0.000009220553    -0.000002076887     0.000002261091
      11       -0.000005260141    -0.000025267581    -0.000003286843
      12       -0.001672905976    -0.002752320210    -0.002167505357
      13        0.000013364928    -0.000008296469     0.000002082103
      14       -0.000021052457    -0.000003577530    -0.000014280957
      15        0.000015138462     0.000000442075     0.000003906008
      16       -0.000007677296    -0.000016069407    -0.000001357753

  **** Optimization is complete! (in 9 steps) ****
    Final optimized geometry and variables:
    Molecular point group: c1

    Geometry (in Angstrom), charge = 0, multiplicity = 1:

    H            1.748554128007    -1.600646601087    -0.495316493923
    C            1.393481952776    -1.171467106603     0.449398565085
    C            0.076499202000    -0.444524045297     0.368325842378
    O            2.038869932917    -1.293879011263     1.439819491311
    C            0.125124659279     0.683998647164    -0.674724736417
    H           -0.160251459171    -0.060993034384     1.354434139837
    H           -0.683266365455    -1.174037746752     0.097465712793
    C           -1.152670253541     1.531941705217    -0.744535200696
    H            0.953822564651     1.336494079992    -0.411588319622
    H            0.340132151844     0.262791396375    -1.653921842489
    C           -2.450297029073     0.729597475287    -0.870652653583
    H           -1.078106708616     2.174808982025    -1.617396074286
    H           -1.208841262672     2.177369539957     0.127401973565
    H           -2.409265138775     0.044215029710    -1.713358267540
    H           -3.292353075133     1.395233235676    -1.030473578027
    H           -2.661507714802     0.148879476737     0.020865059225

  Mulliken Charges: (a.u.)
   Center  Symbol    Alpha    Beta     Spin     Total
       1     H     0.43231  0.43231  0.00000  0.13538
       2     C     2.82932  2.82932  0.00000  0.34137
       3     C     3.21077  3.21077  0.00000 -0.42154
       4     O     4.23761  4.23761  0.00000 -0.47522
       5     C     3.16590  3.16590  0.00000 -0.33180
       6     H     0.40023  0.40023  0.00000  0.19954
       7     H     0.40745  0.40745  0.00000  0.18509
       8     C     3.15162  3.15162  0.00000 -0.30324
       9     H     0.41151  0.41151  0.00000  0.17698
      10     H     0.41859  0.41859  0.00000  0.16281
      11     C     3.24537  3.24537  0.00000 -0.49074
      12     H     0.41696  0.41696  0.00000  0.16607
      13     H     0.41725  0.41725  0.00000  0.16550
      14     H     0.42155  0.42155  0.00000  0.15690
      15     H     0.41538  0.41538  0.00000  0.16924
      16     H     0.41817  0.41817  0.00000  0.16365

   Total alpha = 24.00000, Total beta = 24.00000, Total charge =  0.00000
