  ==> Input File <==

--------------------------------------------------------------------------
set {
	reference rhf
	basis cc-pvtz
}

set_num_threads( 4 )
memory 2 gb

molecule MOL {
0 1

H	 -3.294565	 0.569785	 0.000000
C	 -2.246225	 0.343737	 0.000000
C	 -1.809462	 -0.973484	 0.000000
C	 -1.312577	 1.353775	 0.000000
H	 -2.523539	 -1.775124	 0.000000
C	 -0.467257	 -1.267606	 0.000000
H	 -1.631287	 2.379013	 0.000000
C	 0.046966	 1.074396	 0.000000
H	 -0.119372	 -2.281828	 0.000000
C	 0.471772	 -0.241514	 0.000000
H	 0.748162	 1.882966	 0.000000
O	 1.760432	 -0.625184	 0.000000
C	 2.104260	 -1.913162	 -0.413586
H	 1.647746	 -2.668389	 0.216443
H	 3.177002	 -1.984692	 -0.327125
H	 1.820323	 -2.088740	 -1.445216

	symmetry c1
}
set optking {
	frozen_dihedral = ("
		13 12 10 8
	")
}

ee = optimize('scf')
oeprop('DIPOLE', 'QUADRUPOLE', 'MULLIKEN_CHARGES')
f=open( 'psi4out.xyz', 'w' )
f.write( "16  " )
f.write( str(ee) + "\n" )
f.write( MOL.save_string_xyz() )
f.close()
--------------------------------------------------------------------------

    Molecular point group: c1
  Charge       = 0
  Multiplicity = 1
  Basis Set: CC-PVTZ
  Basis Set:
  @DF-RHF Final Energy:  -344.69455178771102
    Total Energy =                       -344.6945517877106795
    Molecular point group: c1
  Basis Set: CC-PVTZ
  Basis Set:
  Basis Set: CC-PVTZ
  Basis Set:
  @DF-RHF Final Energy:  -344.69854164970639
    Total Energy =                       -344.6985416497066126
  Basis Set: CC-PVTZ
  Basis Set:
  Basis Set: CC-PVTZ
  Basis Set:
  @DF-RHF Final Energy:  -344.70263755231662
    Total Energy =                       -344.7026375523164461
  Basis Set: CC-PVTZ
  Basis Set:
  Basis Set: CC-PVTZ
  Basis Set:
  @DF-RHF Final Energy:  -344.70303859263009
    Total Energy =                       -344.7030385926298095
  Basis Set: CC-PVTZ
  Basis Set:
  Basis Set: CC-PVTZ
  Basis Set:
  @DF-RHF Final Energy:  -344.70309910701008
    Total Energy =                       -344.7030991070098480
  Basis Set: CC-PVTZ
  Basis Set:
  Basis Set: CC-PVTZ
  Basis Set:
  @DF-RHF Final Energy:  -344.70310339615162
    Total Energy =                       -344.7031033961512776
  Basis Set: CC-PVTZ
  Basis Set:
  Charge       = 0
  Multiplicity = 1
  Basis Set: CC-PVTZ
  Basis Set:

    Orbital Energies (a.u.)
    -----------------------

    Doubly Occupied:

       1A    -20.578565     2A    -11.292775     3A    -11.278098
       4A    -11.231422     5A    -11.230128     6A    -11.222296
       7A    -11.218390     8A    -11.217677     9A     -1.417840
      10A     -1.151186    11A     -1.025192    12A     -1.016893
      13A     -0.943372    14A     -0.835032    15A     -0.808548
      16A     -0.725178    17A     -0.667728    18A     -0.666973
      19A     -0.658689    20A     -0.618911    21A     -0.591016
      22A     -0.580761    23A     -0.529374    24A     -0.521505
      25A     -0.511596    26A     -0.481565    27A     -0.463207
      28A     -0.339794    29A     -0.311485

  @DF-RHF Final Energy:  -344.70310407873978

   => Energetics <=

    Nuclear Repulsion Energy =            348.8562929639318781
    One-Electron Energy =               -1158.8483980491114380
    Two-Electron Energy =                 465.2890010064400030
    DFT Exchange-Correlation Energy =       0.0000000000000000
    Empirical Dispersion Energy =           0.0000000000000000
    PCM Polarization Energy =               0.0000000000000000
    EFP Energy =                            0.0000000000000000
    Total Energy =                       -344.7031040787395568
    Molecular point group: c1
  Basis Set: CC-PVTZ
  Basis Set:

  -Total Gradient:
     Atom            X                  Y                   Z
    ------   -----------------  -----------------  -----------------
       1       -0.000005033728    -0.000005796035     0.000000101395
       2        0.000010807441     0.000038027536    -0.000023905420
       3        0.000034190111    -0.000030704556     0.000022490805
       4       -0.000030891556    -0.000020552907     0.000027445415
       5       -0.000006475792     0.000005460902     0.000000959064
       6       -0.000052916457    -0.000026550207     0.000024135022
       7        0.000005729126    -0.000003825791    -0.000006365119
       8        0.000079664651    -0.000047766636    -0.001454951349
       9       -0.000003967377     0.000009266062    -0.000004324240
      10       -0.000029437852     0.000332450877     0.001344989381
      11        0.000005927005     0.000007952947    -0.000003164308
      12       -0.000149244518    -0.000778860660     0.001469703775
      13        0.000153065709     0.000455676930    -0.001394961188
      14        0.000006368742     0.000025474200    -0.000020920484
      15       -0.000003293435     0.000014297864     0.000025553802
      16       -0.000014492068     0.000025449470    -0.000006786550

  **** Optimization is complete! (in 7 steps) ****
    Final optimized geometry and variables:
    Molecular point group: c1

    Geometry (in Angstrom), charge = 0, multiplicity = 1:

    H           -3.188834209435     0.997686126358     0.055542265578
    C           -2.153536001570     0.717681018109     0.056226144856
    C           -1.787909116793    -0.609441510610     0.043988178772
    C           -1.162404103377     1.687341991768     0.067110434414
    H           -2.541978738267    -1.373599753145     0.034600582037
    C           -0.452562279031    -0.983389463627     0.044878249776
    H           -1.429442209035     2.727134674775     0.072063005939
    C            0.166446094245     1.332511432924     0.063761851047
    H           -0.196679154394    -2.023043088965     0.038135868889
    C            0.528605233602    -0.008730203166     0.059283520802
    H            0.940855779760     2.074102470341     0.068269908324
    O            1.849786746435    -0.267938137991     0.074459786860
    C            2.315446943816    -1.517400821631    -0.343138978369
    H            2.069892451459    -2.296319084496     0.369752033890
    H            3.389040432622    -1.436412172273    -0.411643489111
    H            1.913440286729    -1.782412601146    -1.314499020191

  Mulliken Charges: (a.u.)
   Center  Symbol    Alpha    Beta     Spin     Total
       1     H     0.42432  0.42432  0.00000  0.15136
       2     C     3.09946  3.09946  0.00000 -0.19892
       3     C     3.06150  3.06150  0.00000 -0.12301
       4     C     3.05916  3.05916  0.00000 -0.11831
       5     H     0.42336  0.42336  0.00000  0.15329
       6     C     3.13828  3.13828  0.00000 -0.27655
       7     H     0.42288  0.42288  0.00000  0.15425
       8     C     3.11074  3.11074  0.00000 -0.22148
       9     H     0.42256  0.42256  0.00000  0.15489
      10     C     2.85447  2.85447  0.00000  0.29106
      11     H     0.42031  0.42031  0.00000  0.15937
      12     O     4.15448  4.15448  0.00000 -0.30896
      13     C     3.04525  3.04525  0.00000 -0.09051
      14     H     0.46209  0.46209  0.00000  0.07581
      15     H     0.43969  0.43969  0.00000  0.12062
      16     H     0.46145  0.46145  0.00000  0.07709

   Total alpha = 29.00000, Total beta = 29.00000, Total charge =  0.00000
