  ==> Input File <==

--------------------------------------------------------------------------
set {
	reference rhf
	basis 6-31G*
}

set_num_threads( 4 )
memory 2 gb

molecule MOL {
0 1

H	 2.138466	 0.206203	 -0.856967
O	 1.370744	 -0.355429	 -0.900585
C	 0.489431	 0.077273	 0.000046
C	 -0.764129	 -0.759190	 0.000191
O	 0.705204	 1.013119	 0.698758
C	 -2.038368	 0.075731	 -0.000248
H	 -0.717284	 -1.412404	 -0.866059
H	 -0.717458	 -1.411724	 0.866967
H	 -2.086483	 0.712501	 -0.875098
H	 -2.908485	 -0.571682	 -0.000042
H	 -2.086576	 0.713280	 0.874068

	symmetry c1
}
set optking {
	frozen_dihedral = ("
		2 3 4 7
	")
}

ee = optimize('scf')
oeprop('DIPOLE', 'QUADRUPOLE', 'MULLIKEN_CHARGES')
f=open( 'psi4out.xyz', 'w' )
f.write( "11  " )
f.write( str(ee) + "\n" )
f.write( MOL.save_string_xyz() )
f.close()
--------------------------------------------------------------------------

    Molecular point group: c1
  Charge       = 0
  Multiplicity = 1
  Basis Set: 6-31G*
  Basis Set:
  @DF-RHF Final Energy:  -266.84417533404252
    Total Energy =                       -266.8441753340428022
    Molecular point group: c1
  Basis Set: 6-31G*
  Basis Set:
  Basis Set: 6-31G*
  Basis Set:
  @DF-RHF Final Energy:  -266.84461068774260
    Total Energy =                       -266.8446106877423745
  Basis Set: 6-31G*
  Basis Set:
  Basis Set: 6-31G*
  Basis Set:
  @DF-RHF Final Energy:  -266.84454976074699
    Total Energy =                       -266.8445497607467018
  Basis Set: 6-31G*
  Basis Set:
  Basis Set: 6-31G*
  Basis Set:
  @DF-RHF Final Energy:  -266.84463163986186
    Total Energy =                       -266.8446316398618592
  Basis Set: 6-31G*
  Basis Set:
  Basis Set: 6-31G*
  Basis Set:
  @DF-RHF Final Energy:  -266.84464208649069
    Total Energy =                       -266.8446420864906372
  Basis Set: 6-31G*
  Basis Set:
  Charge       = 0
  Multiplicity = 1
  Basis Set: 6-31G*
  Basis Set:

    Orbital Energies (a.u.)
    -----------------------

    Doubly Occupied:

       1A    -20.615954     2A    -20.550232     3A    -11.382153
       4A    -11.243314     5A    -11.224997     6A     -1.476414
       7A     -1.366190     8A     -1.065423     9A     -0.915747
      10A     -0.807495    11A     -0.703008    12A     -0.689516
      13A     -0.651954    14A     -0.605653    15A     -0.593454
      16A     -0.535033    17A     -0.526444    18A     -0.508984
      19A     -0.475426    20A     -0.443855

  @DF-RHF Final Energy:  -266.84464220398002

   => Energetics <=

    Nuclear Repulsion Energy =            179.6950097836800637
    One-Electron Energy =                -720.3168060719010555
    Two-Electron Energy =                 273.7771540842408058
    DFT Exchange-Correlation Energy =       0.0000000000000000
    Empirical Dispersion Energy =           0.0000000000000000
    PCM Polarization Energy =               0.0000000000000000
    EFP Energy =                            0.0000000000000000
    Total Energy =                       -266.8446422039802428
    Molecular point group: c1
  Basis Set: 6-31G*
  Basis Set:

  -Total Gradient:
     Atom            X                  Y                   Z
    ------   -----------------  -----------------  -----------------
       1       -0.000019504714     0.000009441241    -0.000000456023
       2       -0.000398664630     0.000578674456    -0.000729661073
       3        0.000671002242    -0.000994995245     0.001177275280
       4       -0.000863444092     0.001282149128    -0.001134575261
       5        0.000001007810    -0.000003113151    -0.000002648908
       6        0.000028595856    -0.000001268746     0.000018384317
       7        0.000574387150    -0.000885874928     0.000668164610
       8        0.000000728021     0.000012186126    -0.000009119093
       9        0.000008293369    -0.000008964291     0.000005935970
      10        0.000009811241    -0.000005749537     0.000001224396
      11       -0.000012212251     0.000017514948     0.000005475785

  **** Optimization is complete! (in 6 steps) ****
    Final optimized geometry and variables:
    Molecular point group: c1

    Geometry (in Angstrom), charge = 0, multiplicity = 1:

    H            2.171806986252     0.211257703611    -0.756828684501
    O            1.408590300127    -0.352880332680    -0.838815996847
    C            0.500920840375     0.050901884611     0.045909901184
    C           -0.750104501059    -0.792613487261     0.030339072352
    O            0.686775753300     0.979022153639     0.764927389358
    C           -2.017104380934     0.061843229797     0.060883861230
    H           -0.727772081157    -1.455114251007    -0.824800481118
    H           -0.707693249227    -1.417554347538     0.918475421256
    H           -2.098680232863     0.673634080662    -0.831326029533
    H           -2.894567519616    -0.572841409046     0.113112399418
    H           -2.013770281497     0.718369387787     0.921216024500

  Mulliken Charges: (a.u.)
   Center  Symbol    Alpha    Beta     Spin     Total
       1     H     0.26816  0.26816  0.00000  0.46368
       2     O     4.34840  4.34840  0.00000 -0.69680
       3     C     2.62433  2.62433  0.00000  0.75134
       4     C     3.20825  3.20825  0.00000 -0.41649
       5     O     4.27967  4.27967  0.00000 -0.55934
       6     C     3.24603  3.24603  0.00000 -0.49206
       7     H     0.39821  0.39821  0.00000  0.20357
       8     H     0.39788  0.39788  0.00000  0.20424
       9     H     0.41393  0.41393  0.00000  0.17215
      10     H     0.41390  0.41390  0.00000  0.17220
      11     H     0.40125  0.40125  0.00000  0.19751

   Total alpha = 20.00000, Total beta = 20.00000, Total charge = -0.00000
