  ==> Input File <==

--------------------------------------------------------------------------
set {
	reference rhf
	basis 6-31G*
}

set_num_threads( 1 )
memory 2 gb

molecule MOL {
0 1

O	 -2.475387	 -1.064607	 0.421391
C	 -1.939863	 -0.003883	 0.402679
C	 -2.642298	 1.319972	 0.538093
O	 -0.632575	 0.154573	 0.251549
H	 -2.458011	 1.924140	 -0.342797
H	 -3.702719	 1.156978	 0.659651
H	 -2.248668	 1.857517	 1.392995
C	 0.160891	 -1.019931	 0.106212
C	 1.589627	 -0.672828	 0.480843
H	 0.089836	 -1.367806	 -0.916050
H	 -0.238459	 -1.792301	 0.749618
C	 2.246377	 0.346236	 -0.452210
H	 2.163194	 -1.597435	 0.473358
H	 1.604769	 -0.303424	 1.502885
C	 3.691736	 0.652107	 -0.061850
H	 2.219579	 -0.032311	 -1.472055
H	 1.666466	 1.263317	 -0.447249
H	 4.134505	 1.377213	 -0.737283
H	 4.305508	 -0.243868	 -0.089969
H	 3.748266	 1.059562	 0.943567

	symmetry c1
}
set optking {
	frozen_dihedral = ("
		16 12 9 8,
		12 9 8 10,
		1 2 4 8
	")
}

ee = energy('scf')
oeprop('DIPOLE', 'QUADRUPOLE', 'MULLIKEN_CHARGES')
f=open( 'psi4out.xyz', 'w' )
f.write( "20  " )
f.write( str(ee) + "\n" )
f.write( MOL.save_string_xyz() )
f.close()
--------------------------------------------------------------------------

    Molecular point group: c1

    Geometry (in Angstrom), charge = 0, multiplicity = 1:

       Center              X                  Y                   Z               Mass
    ------------   -----------------  -----------------  -----------------  -----------------
           O         -2.466243762692    -1.032144025576     0.208967381896    15.994914619560
           C         -1.930719762692     0.028579974424     0.190255381896    12.000000000000
           C         -2.633154762692     1.352434974424     0.325669381896    12.000000000000
           O         -0.623431762692     0.187035974424     0.039125381896    15.994914619560
           H         -2.448867762692     1.956602974424    -0.555220618104     1.007825032070
           H         -3.693575762692     1.189440974424     0.447227381896     1.007825032070
           H         -2.239524762692     1.889979974424     1.180571381896     1.007825032070
           C          0.170034237308    -0.987468025576    -0.106211618104    12.000000000000
           C          1.598770237308    -0.640365025576     0.268419381896    12.000000000000
           H          0.098979237308    -1.335343025576    -1.128473618104     1.007825032070
           H         -0.229315762692    -1.759838025576     0.537194381896     1.007825032070
           C          2.255520237308     0.378698974424    -0.664633618104    12.000000000000
           H          2.172337237308    -1.564972025576     0.260934381896     1.007825032070
           H          1.613912237308    -0.270961025576     1.290461381896     1.007825032070
           C          3.700879237308     0.684569974424    -0.274273618104    12.000000000000
           H          2.228722237308     0.000151974424    -1.684478618104     1.007825032070
           H          1.675609237308     1.295779974424    -0.659672618104     1.007825032070
           H          4.143648237308     1.409675974424    -0.949706618104     1.007825032070
           H          4.314651237308    -0.211405025576    -0.302392618104     1.007825032070
           H          3.757409237308     1.092024974424     0.731143381896     1.007825032070

  Charge       = 0
  Multiplicity = 1
  Basis Set: 6-31G*
  Basis Set:

    Orbital Energies (a.u.)
    -----------------------

    Doubly Occupied:

       1A    -20.601840     2A    -20.543963     3A    -11.375024
       4A    -11.281131     5A    -11.233677     6A    -11.224981
       7A    -11.220055     8A    -11.213078     9A     -1.468205
      10A     -1.362399    11A     -1.085674    12A     -1.028302
      13A     -0.981088    14A     -0.880079    15A     -0.812979
      16A     -0.772596    17A     -0.692293    18A     -0.684502
      19A     -0.664746    20A     -0.630686    21A     -0.599899
      22A     -0.592125    23A     -0.571347    24A     -0.554943
      25A     -0.544288    26A     -0.528395    27A     -0.514856
      28A     -0.485633    29A     -0.474843    30A     -0.466137
      31A     -0.450392    32A     -0.438104

  @DF-RHF Final Energy:  -383.94486397055078

   => Energetics <=

    Nuclear Repulsion Energy =            384.8456115752251776
    One-Electron Energy =               -1285.6245379967140252
    Two-Electron Energy =                 516.8340624509381769
    DFT Exchange-Correlation Energy =       0.0000000000000000
    Empirical Dispersion Energy =           0.0000000000000000
    PCM Polarization Energy =               0.0000000000000000
    EFP Energy =                            0.0000000000000000
    Total Energy =                       -383.9448639705507276

  Mulliken Charges: (a.u.)
   Center  Symbol    Alpha    Beta     Spin     Total
       1     O     4.28337  4.28337  0.00000 -0.56674
       2     C     2.61938  2.61938  0.00000  0.76124
       3     C     3.28204  3.28204  0.00000 -0.56408
       4     O     4.30830  4.30830  0.00000 -0.61660
       5     H     0.40035  0.40035  0.00000  0.19930
       6     H     0.39679  0.39679  0.00000  0.20641
       7     H     0.40079  0.40079  0.00000  0.19843
       8     C     3.00639  3.00639  0.00000 -0.01277
       9     C     3.16362  3.16362  0.00000 -0.32724
      10     H     0.41479  0.41479  0.00000  0.17042
      11     H     0.40015  0.40015  0.00000  0.19971
      12     C     3.15507  3.15507  0.00000 -0.31013
      13     H     0.41875  0.41875  0.00000  0.16251
      14     H     0.41515  0.41515  0.00000  0.16970
      15     C     3.24033  3.24033  0.00000 -0.48066
      16     H     0.42316  0.42316  0.00000  0.15367
      17     H     0.41141  0.41141  0.00000  0.17718
      18     H     0.41770  0.41770  0.00000  0.16461
      19     H     0.42175  0.42175  0.00000  0.15650
      20     H     0.42072  0.42072  0.00000  0.15856

   Total alpha = 32.00000, Total beta = 32.00000, Total charge = -0.00000
