                              Psi4 1.0.54 Driver

  ==> Input File <==

--------------------------------------------------------------------------
set {
	reference rhf
	basis cc-pvtz
}

set_num_threads( 4 )
memory 2 gb

molecule MOL {
0 1

O	 1.134195	 1.434708	 -0.356216
C	 0.885178	 0.500164	 -1.038623
C	 -0.401350	 -0.284469	 -1.012957
O	 1.727574	 0.012776	 -1.934837
C	 -1.413045	 0.229353	 0.001137
H	 -0.808576	 -0.265644	 -2.018588
H	 -0.141652	 -1.320036	 -0.819002
C	 -2.702562	 -0.586401	 0.000228
H	 -1.636045	 1.269036	 -0.210688
H	 -0.968837	 0.213073	 0.990055
C	 -3.953810	 0.284959	 -0.000782
H	 -2.717793	 -1.238567	 -0.869075
H	 -2.719108	 -1.238472	 0.869576
H	 -3.983727	 0.924403	 -0.876454
H	 -4.852989	 -0.320147	 -0.001515
H	 -3.985140	 0.924399	 0.874841
C	 2.979341	 0.655624	 -2.065769
H	 2.849483	 1.687895	 -2.355221
H	 3.511178	 0.117887	 -2.833790
H	 3.527148	 0.616668	 -1.135924

	symmetry c1
}
set optking {
	frozen_dihedral = ("
		9 5 8 12
	")
}

ee,wfn = optimize('scf', return_wfn=True)
oeprop( wfn, 'DIPOLE', 'QUADRUPOLE', 'MULLIKEN_CHARGES')
f=open( 'psi4out.xyz', 'w' )
f.write( "20  " )
f.write( str(ee) + "\n" )
f.write( MOL.save_string_xyz() )
f.close()
--------------------------------------------------------------------------

    Molecular point group: c1
  Charge       = 0
  Multiplicity = 1
  Basis Set: CC-PVTZ
  Basis Set:
  @DF-RHF Final Energy:  -384.07796975306195
    Total Energy =                       -384.0779697530623480
    Molecular point group: c1
  Basis Set: CC-PVTZ
  Basis Set:
  Basis Set: CC-PVTZ
  Basis Set:
  @DF-RHF Final Energy:  -384.07826318015901
    Total Energy =                       -384.0782631801589559
  Basis Set: CC-PVTZ
  Basis Set:
  Basis Set: CC-PVTZ
  Basis Set:
  @DF-RHF Final Energy:  -384.07821793186116
    Total Energy =                       -384.0782179318611043
  Basis Set: CC-PVTZ
  Basis Set:
  Basis Set: CC-PVTZ
  Basis Set:
  @DF-RHF Final Energy:  -384.07833406319486
    Total Energy =                       -384.0783340631950296
  Basis Set: CC-PVTZ
  Basis Set:
  Basis Set: CC-PVTZ
  Basis Set:
  @DF-RHF Final Energy:  -384.07834205635623
    Total Energy =                       -384.0783420563560639
  Basis Set: CC-PVTZ
  Basis Set:
  Charge       = 0
  Multiplicity = 1
  Basis Set: CC-PVTZ
  Basis Set:

    Orbital Energies (a.u.)
    -----------------------

    Doubly Occupied:

       1A    -20.596456     2A    -20.534355     3A    -11.364645
       4A    -11.278594     5A    -11.234610     6A    -11.218080
       7A    -11.216936     8A    -11.209643     9A     -1.472362
      10A     -1.365968    11A     -1.087892    12A     -1.025013
      13A     -0.970099    14A     -0.886811    15A     -0.805434
      16A     -0.769721    17A     -0.701169    18A     -0.686037
      19A     -0.676348    20A     -0.638386    21A     -0.600481
      22A     -0.598205    23A     -0.578113    24A     -0.544313
      25A     -0.531834    26A     -0.524113    27A     -0.509244
      28A     -0.478242    29A     -0.474516    30A     -0.465843
      31A     -0.457658    32A     -0.439588

  @DF-RHF Final Energy:  -384.07834255114130

   => Energetics <=

    Nuclear Repulsion Energy =            381.8028398057163031
    One-Electron Energy =               -1279.8809460785150804
    Two-Electron Energy =                 513.9997637216573594
    DFT Exchange-Correlation Energy =       0.0000000000000000
    Empirical Dispersion Energy =           0.0000000000000000
    PCM Polarization Energy =               0.0000000000000000
    EFP Energy =                            0.0000000000000000
    Total Energy =                       -384.0783425511414180
    Molecular point group: c1
  Basis Set: CC-PVTZ
  Basis Set:

  -Total Gradient:
     Atom            X                  Y                   Z
    ------   -----------------  -----------------  -----------------
       1       -0.000012878282     0.000009615689     0.000007169860
       2        0.000018237094    -0.000001476865     0.000010794539
       3        0.000014501191     0.000000377564    -0.000005099774
       4        0.000000787354    -0.000013705562    -0.000017193810
       5        0.000803625495    -0.001318000827    -0.003712688363
       6       -0.000003305453     0.000006271630     0.000002047632
       7        0.000000729453     0.000000009305    -0.000000553248
       8       -0.002027029712     0.003126263377    -0.001412556968
       9       -0.000323728415     0.000614118292     0.003326519743
      10        0.000009537193    -0.000000689334    -0.000000595173
      11       -0.000008567488    -0.000001374127     0.000007965404
      12        0.001563475261    -0.002416529830     0.001789011081
      13       -0.000012428747    -0.000003180846     0.000001248391
      14        0.000003434819     0.000003221446    -0.000011909140
      15       -0.000014033434    -0.000007053485     0.000001785284
      16        0.000002362592     0.000003175448     0.000006032444
      17       -0.000006845493     0.000001334866     0.000007647789
      18       -0.000002790225     0.000001394111    -0.000000556450
      19       -0.000004696102    -0.000003239338    -0.000001129252
      20       -0.000000387101    -0.000000531515     0.000002060009

  **** Optimization is complete! (in 6 steps) ****
    Final optimized geometry and variables:
    Molecular point group: c1

    Geometry (in Angstrom), charge = 0, multiplicity = 1:

    O            1.324991532402     1.142633390814     0.453499137657
    C            1.079270829732     0.206677016540    -0.228175236458
    C           -0.214101358577    -0.567258251738    -0.219760330616
    O            1.931530942357    -0.291936941776    -1.108799104932
    C           -1.238566782277    -0.041254421442     0.774325897135
    H           -0.605225174765    -0.550962736346    -1.231717876108
    H            0.033051351282    -1.604070594148    -0.015577564225
    C           -2.536728572660    -0.869890044363     0.796610592618
    H           -1.459802489852     0.997457588593     0.560071934572
    H           -0.793779103305    -0.030522039985     1.761925287452
    C           -3.800623130568    -0.019509223000     0.850235485535
    H           -2.572805703516    -1.531389617869    -0.063896618575
    H           -2.520932536278    -1.531970055722     1.656708569032
    H           -3.882648684261     0.613461405123    -0.027004840646
    H           -4.689321326275    -0.638297464820     0.898950535159
    H           -3.797673498371     0.626187222370     1.721968498696
    C            3.190102822604     0.340506074866    -1.223671506161
    H            3.072766959429     1.372261377784    -1.520243294925
    H            3.729456523620    -0.205252723584    -1.980717717831
    H            3.723269868764     0.302093188504    -0.285321768539

  Mulliken Charges: (a.u.)
   Center  Symbol    Alpha    Beta     Spin     Total
       1     O     4.19661  4.19661  0.00000 -0.39323
       2     C     2.80785  2.80785  0.00000  0.38429
       3     C     3.09988  3.09988  0.00000 -0.19977
       4     O     4.14687  4.14687  0.00000 -0.29374
       5     C     3.08719  3.08719  0.00000 -0.17438
       6     H     0.43968  0.43968  0.00000  0.12063
       7     H     0.43877  0.43877  0.00000  0.12246
       8     C     3.08888  3.08888  0.00000 -0.17776
       9     H     0.44657  0.44657  0.00000  0.10686
      10     H     0.44452  0.44452  0.00000  0.11095
      11     C     3.14682  3.14682  0.00000 -0.29364
      12     H     0.45617  0.45617  0.00000  0.08767
      13     H     0.45134  0.45134  0.00000  0.09731
      14     H     0.45530  0.45530  0.00000  0.08941
      15     H     0.44946  0.44946  0.00000  0.10107
      16     H     0.45243  0.45243  0.00000  0.09513
      17     C     3.03767  3.03767  0.00000 -0.07533
      18     H     0.45434  0.45434  0.00000  0.09132
      19     H     0.44530  0.44530  0.00000  0.10939
      20     H     0.45433  0.45433  0.00000  0.09134

   Total alpha = 32.00000, Total beta = 32.00000, Total charge = -0.00000

*** Psi4 exiting successfully. Buy a developer a beer!
