  ==> Input File <==

--------------------------------------------------------------------------
set {
	reference rhf
	basis cc-pvtz
}

set_num_threads( 4 )
memory 2 gb

molecule MOL {
0 1

O	 0.837178	 1.135566	 0.571674
C	 0.576499	 0.134701	 -0.003900
C	 -0.765656	 -0.550508	 -0.002152
O	 1.455389	 -0.532143	 -0.733861
C	 -1.945526	 0.411052	 0.000603
H	 -0.794329	 -1.203792	 -0.868145
H	 -0.791555	 -1.205429	 0.862701
C	 -3.282915	 -0.321280	 0.002596
H	 -1.880300	 1.059126	 -0.864925
H	 -1.877207	 1.057892	 0.866807
H	 -3.388495	 -0.952755	 -0.873419
H	 -4.107811	 0.380864	 0.004116
H	 -3.385717	 -0.953283	 0.878571
C	 2.762984	 -0.002196	 -0.819664
H	 2.746145	 0.984735	 -1.257545
H	 3.317181	 -0.679395	 -1.448914
H	 3.216546	 0.053706	 0.158702

	symmetry c1
}
set optking {
	frozen_dihedral = ("
		1 2 3 6
	")
}

ee = optimize('scf')
oeprop('DIPOLE', 'QUADRUPOLE', 'MULLIKEN_CHARGES')
f=open( 'psi4out.xyz', 'w' )
f.write( "17  " )
f.write( str(ee) + "\n" )
f.write( MOL.save_string_xyz() )
f.close()
--------------------------------------------------------------------------

    Molecular point group: c1
  Charge       = 0
  Multiplicity = 1
  Basis Set: CC-PVTZ
  Basis Set:
  @DF-RHF Final Energy:  -345.03425096117877
    Total Energy =                       -345.0342509611788273
    Molecular point group: c1
  Basis Set: CC-PVTZ
  Basis Set:
  Basis Set: CC-PVTZ
  Basis Set:
  @DF-RHF Final Energy:  -345.03398426360502
    Total Energy =                       -345.0339842636054186
  Basis Set: CC-PVTZ
  Basis Set:
  Basis Set: CC-PVTZ
  Basis Set:
  @DF-RHF Final Energy:  -345.03427344599055
    Total Energy =                       -345.0342734459903227
  Basis Set: CC-PVTZ
  Basis Set:
  Basis Set: CC-PVTZ
  Basis Set:
  @DF-RHF Final Energy:  -345.03461187485163
    Total Energy =                       -345.0346118748513504
  Basis Set: CC-PVTZ
  Basis Set:
  Basis Set: CC-PVTZ
  Basis Set:
  @DF-RHF Final Energy:  -345.03461306711137
    Total Energy =                       -345.0346130671115361
  Basis Set: CC-PVTZ
  Basis Set:
  Charge       = 0
  Multiplicity = 1
  Basis Set: CC-PVTZ
  Basis Set:

    Orbital Energies (a.u.)
    -----------------------

    Doubly Occupied:

       1A    -20.598319     2A    -20.532786     3A    -11.364909
       4A    -11.278850     5A    -11.233756     6A    -11.222604
       7A    -11.213549     8A     -1.473000     9A     -1.365574
      10A     -1.082018    11A     -1.002257    12A     -0.941240
      13A     -0.828443    14A     -0.771443    15A     -0.701938
      16A     -0.685509    17A     -0.676058    18A     -0.637798
      19A     -0.596354    20A     -0.580211    21A     -0.565295
      22A     -0.531841    23A     -0.524687    24A     -0.501812
      25A     -0.486850    26A     -0.479563    27A     -0.460501
      28A     -0.439622

  @DF-RHF Final Energy:  -345.03461317987973

   => Energetics <=

    Nuclear Repulsion Energy =            313.0299782291962742
    One-Electron Energy =               -1090.5756146512987925
    Two-Electron Energy =                 432.5110232422231320
    DFT Exchange-Correlation Energy =       0.0000000000000000
    Empirical Dispersion Energy =           0.0000000000000000
    PCM Polarization Energy =               0.0000000000000000
    EFP Energy =                            0.0000000000000000
    Total Energy =                       -345.0346131798793294
    Molecular point group: c1
  Basis Set: CC-PVTZ
  Basis Set:

  -Total Gradient:
     Atom            X                  Y                   Z
    ------   -----------------  -----------------  -----------------
       1        0.000294052282    -0.000635888543     0.000846462512
       2       -0.000372285237     0.000726323517    -0.001058593521
       3       -0.000360099324     0.000717668195    -0.000339311122
       4        0.000029177401    -0.000021149085    -0.000019697389
       5        0.000000620655     0.000004464697    -0.000016817899
       6        0.000409092310    -0.000781264893     0.000579720075
       7        0.000010354079    -0.000006424094     0.000009627692
       8       -0.000001518834    -0.000001540378     0.000012738488
       9        0.000002329515     0.000003239335    -0.000002379076
      10       -0.000002848809    -0.000007256768    -0.000003790276
      11        0.000003045750     0.000006077826    -0.000000250915
      12        0.000000393903     0.000000719126     0.000001804792
      13       -0.000002095953    -0.000005378498    -0.000000521524
      14       -0.000028221385    -0.000002483715    -0.000010285614
      15        0.000008992380     0.000002487816    -0.000000604390
      16        0.000007328421     0.000000753719     0.000000375473
      17        0.000001682848    -0.000000348257     0.000001522695

  **** Optimization is complete! (in 6 steps) ****
    Final optimized geometry and variables:
    Molecular point group: c1

    Geometry (in Angstrom), charge = 0, multiplicity = 1:

    O            0.829969799380     1.092283361734     0.691742390483
    C            0.590761509083     0.093930852656     0.101358418558
    C           -0.748317006713    -0.599656555652     0.093459094443
    O            1.496144966743    -0.565504758238    -0.600571463471
    C           -1.927000184891     0.366457593132     0.148391546426
    H           -0.802777743273    -1.253482956168    -0.766492898132
    H           -0.755240491268    -1.242910083150     0.969859776236
    C           -3.265086999536    -0.361163115654     0.211056887469
    H           -1.902767344937     1.010077743004    -0.725091875897
    H           -1.813502755446     1.013241201962     1.008209680064
    H           -3.410308191137    -0.998178097600    -0.655094680409
    H           -4.086933884520     0.343902620863     0.243839738738
    H           -3.330447435996    -0.986314250561     1.095430012233
    C            2.809860602979    -0.043504007845    -0.615945039375
    H            2.819568346251     0.950826230818    -1.036782001707
    H            3.388994953468    -0.713836746585    -1.230022702339
    H            3.217035298099    -0.007140735216     0.383598565921

  Mulliken Charges: (a.u.)
   Center  Symbol    Alpha    Beta     Spin     Total
       1     O     4.20060  4.20060  0.00000 -0.40121
       2     C     2.81305  2.81305  0.00000  0.37391
       3     C     3.08710  3.08710  0.00000 -0.17419
       4     O     4.14408  4.14408  0.00000 -0.28816
       5     C     3.08262  3.08262  0.00000 -0.16523
       6     H     0.43842  0.43842  0.00000  0.12315
       7     H     0.44597  0.44597  0.00000  0.10806
       8     C     3.15113  3.15113  0.00000 -0.30226
       9     H     0.45171  0.45171  0.00000  0.09658
      10     H     0.44025  0.44025  0.00000  0.11950
      11     H     0.45572  0.45572  0.00000  0.08856
      12     H     0.44582  0.44582  0.00000  0.10837
      13     H     0.45471  0.45471  0.00000  0.09058
      14     C     3.03522  3.03522  0.00000 -0.07045
      15     H     0.45418  0.45418  0.00000  0.09164
      16     H     0.44504  0.44504  0.00000  0.10992
      17     H     0.45438  0.45438  0.00000  0.09123

   Total alpha = 28.00000, Total beta = 28.00000, Total charge = -0.00000
