  ==> Input File <==

--------------------------------------------------------------------------
set {
	reference rhf
	basis cc-pvtz
}

set_num_threads( 4 )
memory 2 gb

molecule MOL {
0 1

H	 -3.401682	 -1.036167	 0.000000
O	 -3.113760	 -0.140926	 0.000000
C	 -1.775087	 -0.058754	 0.000000
C	 -1.106219	 1.090572	 -0.402619
C	 -1.065513	 -1.171510	 0.420073
H	 -1.663667	 1.949829	 -0.727206
C	 0.267962	 1.121201	 -0.383102
H	 -1.600716	 -2.047702	 0.726446
C	 0.310219	 -1.124578	 0.433701
H	 0.795793	 2.001849	 -0.691259
C	 0.993354	 0.014270	 0.035207
H	 0.861727	 -1.987289	 0.759411
C	 2.467669	 0.041117	 0.058330
O	 3.136072	 0.966425	 -0.262916
H	 2.937415	 -0.885519	 0.405440

	symmetry c1
}
set optking {
	frozen_dihedral = ("
		5 3 2 1
	")
}

ee = optimize('scf')
oeprop('DIPOLE', 'QUADRUPOLE', 'MULLIKEN_CHARGES')
f=open( 'psi4out.xyz', 'w' )
f.write( "15  " )
f.write( str(ee) + "\n" )
f.write( MOL.save_string_xyz() )
f.close()
--------------------------------------------------------------------------

    Molecular point group: c1
  Charge       = 0
  Multiplicity = 1
  Basis Set: CC-PVTZ
  Basis Set:
  @DF-RHF Final Energy:  -418.43987271922737
    Total Energy =                       -418.4398727192276510
    Molecular point group: c1
  Basis Set: CC-PVTZ
  Basis Set:
  Basis Set: CC-PVTZ
  Basis Set:
  @DF-RHF Final Energy:  -418.44169046898355
    Total Energy =                       -418.4416904689833245
  Basis Set: CC-PVTZ
  Basis Set:
  Basis Set: CC-PVTZ
  Basis Set:
  @DF-RHF Final Energy:  -418.44183578622693
    Total Energy =                       -418.4418357862272160
  Basis Set: CC-PVTZ
  Basis Set:
  Basis Set: CC-PVTZ
  Basis Set:
  @DF-RHF Final Energy:  -418.44118759178053
    Total Energy =                       -418.4411875917804764
  Basis Set: CC-PVTZ
  Basis Set:
  Basis Set: CC-PVTZ
  Basis Set:
  @DF-RHF Final Energy:  -418.44186142510887
    Total Energy =                       -418.4418614251088684
  Basis Set: CC-PVTZ
  Basis Set:
  Basis Set: CC-PVTZ
  Basis Set:
  @DF-RHF Final Energy:  -418.44186490184751
    Total Energy =                       -418.4418649018474525
  Basis Set: CC-PVTZ
  Basis Set:
  Charge       = 0
  Multiplicity = 1
  Basis Set: CC-PVTZ
  Basis Set:

    Orbital Energies (a.u.)
    -----------------------

    Doubly Occupied:

       1A    -20.603246     2A    -20.545973     3A    -11.322981
       4A    -11.321766     5A    -11.260450     6A    -11.251908
       7A    -11.242433     8A    -11.237656     9A    -11.236599
      10A     -1.435972    11A     -1.402254    12A     -1.175314
      13A     -1.046607    14A     -1.040403    15A     -0.896788
      16A     -0.861460    17A     -0.805712    18A     -0.761290
      19A     -0.699807    20A     -0.690252    21A     -0.643324
      22A     -0.629430    23A     -0.619813    24A     -0.610760
      25A     -0.581156    26A     -0.560993    27A     -0.555294
      28A     -0.508967    29A     -0.490240    30A     -0.421782
      31A     -0.361768    32A     -0.333400

  @DF-RHF Final Energy:  -418.44186542159173

   => Energetics <=

    Nuclear Repulsion Energy =            402.2287311041603743
    One-Electron Energy =               -1367.0295983284477188
    Two-Electron Energy =                 546.3590018026956159
    DFT Exchange-Correlation Energy =       0.0000000000000000
    Empirical Dispersion Energy =           0.0000000000000000
    PCM Polarization Energy =               0.0000000000000000
    EFP Energy =                            0.0000000000000000
    Total Energy =                       -418.4418654215917286
    Molecular point group: c1
  Basis Set: CC-PVTZ
  Basis Set:

  -Total Gradient:
     Atom            X                  Y                   Z
    ------   -----------------  -----------------  -----------------
       1        0.000013392601    -0.000034153233    -0.002305176567
       2       -0.000074497365     0.000364340028     0.003807999345
       3        0.000040447328    -0.000984037004    -0.003154706503
       4        0.000085641710     0.000030159779     0.000020900376
       5       -0.000074920755     0.000609265485     0.001626278482
       6       -0.000016381954    -0.000008733038     0.000000612167
       7       -0.000019690886     0.000012514967     0.000007682942
       8        0.000007501730     0.000007500097    -0.000003042289
       9        0.000032566357     0.000014827248     0.000024274016
      10       -0.000000384014    -0.000002624039    -0.000005153667
      11       -0.000007298376    -0.000016726418    -0.000012329266
      12        0.000011060558     0.000003779580    -0.000006040533
      13        0.000018946207    -0.000003268241     0.000001494759
      14        0.000002534651     0.000002458807     0.000000103718
      15       -0.000018917796     0.000004695987    -0.000002896980

  **** Optimization is complete! (in 7 steps) ****
    Final optimized geometry and variables:
    Molecular point group: c1

    Geometry (in Angstrom), charge = 0, multiplicity = 1:

    H           -3.463567948279    -1.029903967596     0.009043736489
    O           -3.110071089248    -0.158351414397    -0.003550591916
    C           -1.766917238297    -0.175605272350     0.009752165093
    C           -1.109464142423     0.984538002919    -0.386943491863
    C           -1.047827142398    -1.276525006890     0.437046733687
    H           -1.691207785765     1.825769737175    -0.707055745731
    C            0.260289187958     1.028249523920    -0.362885505526
    H           -1.559746215513    -2.164275721840     0.758488199587
    C            0.332438923220    -1.219401607583     0.448925893835
    H            0.780928726214     1.914247018381    -0.668033254980
    C            0.999832865655    -0.076441674214     0.053302472397
    H            0.891071238267    -2.076488981491     0.777256042708
    C            2.474338297663    -0.036636506420     0.077837356670
    O            3.134811350880     0.894348566163    -0.241743695856
    H            2.950881748001    -0.960198217790     0.424683656808

  Mulliken Charges: (a.u.)
   Center  Symbol    Alpha    Beta     Spin     Total
       1     H     0.38498  0.38498  0.00000  0.23004
       2     O     4.16849  4.16849  0.00000 -0.33699
       3     C     2.84724  2.84724  0.00000  0.30552
       4     C     3.10730  3.10730  0.00000 -0.21461
       5     C     3.13194  3.13194  0.00000 -0.26389
       6     H     0.41495  0.41495  0.00000  0.17010
       7     C     3.06040  3.06040  0.00000 -0.12080
       8     H     0.43008  0.43008  0.00000  0.13983
       9     C     3.07429  3.07429  0.00000 -0.14858
      10     H     0.40726  0.40726  0.00000  0.18549
      11     C     3.00174  3.00174  0.00000 -0.00348
      12     H     0.42124  0.42124  0.00000  0.15753
      13     C     2.91123  2.91123  0.00000  0.17754
      14     O     4.17796  4.17796  0.00000 -0.35593
      15     H     0.46089  0.46089  0.00000  0.07822

   Total alpha = 32.00000, Total beta = 32.00000, Total charge = -0.00000
