  ==> Input File <==

--------------------------------------------------------------------------
set {
	reference rhf
	basis cc-pvtz
}

set_num_threads( 4 )
memory 2 gb

molecule MOL {
0 1

H	 -2.035000	 -0.702000	 -0.607000
O	 -1.972000	 -0.087000	 0.113000
C	 -0.892000	 0.761000	 -0.083000
C	 0.417000	 0.013000	 0.005000
H	 -0.921000	 1.263000	 -1.044000
H	 -0.911000	 1.506000	 0.699000
F	 0.458000	 -0.965000	 -0.893000
F	 1.432000	 0.826000	 -0.240000
F	 0.610000	 -0.530000	 1.190000

	symmetry c1
}
ee = optimize('scf')
oeprop('DIPOLE', 'QUADRUPOLE', 'MULLIKEN_CHARGES')
f=open( 'psi4out.xyz', 'w' )
f.write( "9  " )
f.write( str(ee) + "\n" )
f.write( MOL.save_string_xyz() )
f.close()
--------------------------------------------------------------------------

    Molecular point group: c1
  Charge       = 0
  Multiplicity = 1
  Basis Set: CC-PVTZ
  Basis Set:
  @DF-RHF Final Energy:  -450.84701379614791
    Total Energy =                       -450.8470137961477917
    Molecular point group: c1
  Basis Set: CC-PVTZ
  Basis Set:
  Basis Set: CC-PVTZ
  Basis Set:
  @DF-RHF Final Energy:  -450.84725069189375
    Total Energy =                       -450.8472506918938620
  Basis Set: CC-PVTZ
  Basis Set:
  Basis Set: CC-PVTZ
  Basis Set:
  @DF-RHF Final Energy:  -450.84726937840628
    Total Energy =                       -450.8472693784062812
  Basis Set: CC-PVTZ
  Basis Set:
  Basis Set: CC-PVTZ
  Basis Set:
  @DF-RHF Final Energy:  -450.84727389811070
    Total Energy =                       -450.8472738981108705
  Basis Set: CC-PVTZ
  Basis Set:
  Charge       = 0
  Multiplicity = 1
  Basis Set: CC-PVTZ
  Basis Set:

    Orbital Energies (a.u.)
    -----------------------

    Doubly Occupied:

       1A    -26.339713     2A    -26.339507     3A    -26.335635
       4A    -20.583807     5A    -11.493678     6A    -11.310070
       7A     -1.747801     8A     -1.644943     9A     -1.642836
      10A     -1.407295    11A     -1.050574    12A     -0.929811
      13A     -0.837919    14A     -0.836265    15A     -0.811509
      16A     -0.732164    17A     -0.718851    18A     -0.703759
      19A     -0.671811    20A     -0.665855    21A     -0.649313
      22A     -0.632987    23A     -0.619231    24A     -0.534270
      25A     -0.484736

  @DF-RHF Final Energy:  -450.84727401671898

   => Energetics <=

    Nuclear Repulsion Energy =            277.7138608764146284
    One-Electron Energy =               -1177.6735945446782807
    Two-Electron Energy =                 449.1124596515445546
    DFT Exchange-Correlation Energy =       0.0000000000000000
    Empirical Dispersion Energy =           0.0000000000000000
    PCM Polarization Energy =               0.0000000000000000
    EFP Energy =                            0.0000000000000000
    Total Energy =                       -450.8472740167190977
    Molecular point group: c1
  Basis Set: CC-PVTZ
  Basis Set:

  -Total Gradient:
     Atom            X                  Y                   Z
    ------   -----------------  -----------------  -----------------
       1       -0.000006152989    -0.000031069564    -0.000016707713
       2       -0.000023600640    -0.000003650130     0.000006651340
       3        0.000006657903     0.000024323592     0.000009600096
       4        0.000048811557     0.000032374990     0.000050208992
       5        0.000006892473    -0.000003378393    -0.000000926986
       6        0.000016269469     0.000002914154     0.000003391032
       7       -0.000013561602    -0.000028804995    -0.000038432448
       8       -0.000021759449    -0.000008777322     0.000001229148
       9       -0.000013556712     0.000016067667    -0.000015013460

  **** Optimization is complete! (in 5 steps) ****
    Final optimized geometry and variables:
    Molecular point group: c1

    Geometry (in Angstrom), charge = 0, multiplicity = 1:

    H           -2.123894643532    -0.667237385801    -0.609809584782
    O           -2.041679667668    -0.058866164501     0.103463331193
    C           -0.959304747086     0.780994750387    -0.094939106893
    C            0.354904160447     0.037902362347    -0.006214819602
    H           -0.985899142076     1.279578139238    -1.057596485857
    H           -0.969808919852     1.529522585272     0.682888643707
    F            0.412059983368    -0.931027853232    -0.902708331400
    F            1.359640867183     0.856111408705    -0.239961563761
    F            0.545379391033    -0.506386596336     1.171681874227

  Mulliken Charges: (a.u.)
   Center  Symbol    Alpha    Beta     Spin     Total
       1     H     0.38648  0.38648  0.00000  0.22704
       2     O     4.19245  4.19245  0.00000 -0.38491
       3     C     2.99056  2.99056  0.00000  0.01887
       4     C     2.68409  2.68409  0.00000  0.63182
       5     H     0.46191  0.46191  0.00000  0.07619
       6     H     0.44741  0.44741  0.00000  0.10518
       7     F     4.61750  4.61750  0.00000 -0.23500
       8     F     4.61216  4.61216  0.00000 -0.22432
       9     F     4.60743  4.60743  0.00000 -0.21487

   Total alpha = 25.00000, Total beta = 25.00000, Total charge = -0.00000
