                              Psi4 1.0.54 Driver

  ==> Input File <==

--------------------------------------------------------------------------
set {
	reference rhf
	basis cc-pvtz
}

set_num_threads( 4 )
memory 2 gb

molecule MOL {
0 1

H	 3.698218	 0.674897	 -1.253532
N	 2.914263	 0.057872	 -1.235839
C	 1.774315	 0.677855	 -0.578876
H	 3.199719	 -0.767126	 -0.750823
C	 0.557507	 -0.234133	 -0.627680
H	 1.550954	 1.600627	 -1.103765
H	 1.978043	 0.949089	 0.457889
C	 -0.678115	 0.376691	 0.025731
H	 0.349557	 -0.477049	 -1.664577
H	 0.798445	 -1.173652	 -0.133984
C	 -1.900706	 -0.535531	 -0.022488
H	 -0.916294	 1.317635	 -0.465033
H	 -0.457542	 0.622391	 1.061999
C	 -3.220513	 0.226854	 0.028039
H	 -1.865036	 -1.134397	 -0.928236
H	 -1.857948	 -1.236381	 0.806820
H	 -3.309098	 0.911849	 -0.808725
H	 -4.066838	 -0.449485	 -0.008086
H	 -3.301685	 0.809374	 0.939860

	symmetry c1
}
set optking {
	frozen_dihedral = ("
		12 8 11 15
	")
}

ee,wfn = optimize('scf', return_wfn=True)
oeprop( wfn, 'DIPOLE', 'QUADRUPOLE', 'MULLIKEN_CHARGES')
f=open( 'psi4out.xyz', 'w' )
f.write( "19  " )
f.write( str(ee) + "\n" )
f.write( MOL.save_string_xyz() )
f.close()
--------------------------------------------------------------------------

    Molecular point group: c1
  Charge       = 0
  Multiplicity = 1
  Basis Set: CC-PVTZ
  Basis Set:
  @DF-RHF Final Energy:  -251.44589087572891
    Total Energy =                       -251.4458908757287645
    Molecular point group: c1
  Basis Set: CC-PVTZ
  Basis Set:
  Basis Set: CC-PVTZ
  Basis Set:
  @DF-RHF Final Energy:  -251.44610298271459
    Total Energy =                       -251.4461029827142511
  Basis Set: CC-PVTZ
  Basis Set:
  Basis Set: CC-PVTZ
  Basis Set:
  @DF-RHF Final Energy:  -251.44618077157205
    Total Energy =                       -251.4461807715722443
  Basis Set: CC-PVTZ
  Basis Set:
  Charge       = 0
  Multiplicity = 1
  Basis Set: CC-PVTZ
  Basis Set:

    Orbital Energies (a.u.)
    -----------------------

    Doubly Occupied:

       1A    -15.526483     2A    -11.237970     3A    -11.211725
       4A    -11.210282     5A    -11.208147     6A    -11.205812
       7A     -1.178212     8A     -1.073339     9A     -0.999825
      10A     -0.901070    11A     -0.814156    12A     -0.790178
      13A     -0.666157    14A     -0.639950    15A     -0.617056
      16A     -0.591147    17A     -0.569385    18A     -0.543719
      19A     -0.534161    20A     -0.497059    21A     -0.484159
      22A     -0.466021    23A     -0.456734    24A     -0.450972
      25A     -0.383857

  @DF-RHF Final Energy:  -251.44618173180709

   => Energetics <=

    Nuclear Repulsion Energy =            245.9964905989130557
    One-Electron Energy =                -826.3701919202632098
    Two-Electron Energy =                 328.9275195895430102
    DFT Exchange-Correlation Energy =       0.0000000000000000
    Empirical Dispersion Energy =           0.0000000000000000
    PCM Polarization Energy =               0.0000000000000000
    EFP Energy =                            0.0000000000000000
    Total Energy =                       -251.4461817318071439
    Molecular point group: c1
  Basis Set: CC-PVTZ
  Basis Set:

  -Total Gradient:
     Atom            X                  Y                   Z
    ------   -----------------  -----------------  -----------------
       1        0.000039346316    -0.000013295932    -0.000012010348
       2        0.000049744898     0.000056745271    -0.000011265297
       3       -0.000017002574    -0.000039088218    -0.000014844790
       4       -0.000003014191     0.000004068421     0.000006484164
       5        0.000007882250     0.000005170406     0.000004797610
       6        0.000017288591    -0.000005102610     0.000004205327
       7        0.000002259336    -0.000000724164    -0.000013163648
       8        0.002040472527    -0.002622660599    -0.003896923742
       9       -0.000008220412     0.000005919231     0.000021120656
      10       -0.000020614327     0.000018884101     0.000007520766
      11       -0.002933002615     0.003893519213    -0.001640004010
      12       -0.001224319531     0.001541032297     0.003554339170
      13       -0.000003209416     0.000001759967    -0.000016320124
      14       -0.000091336509     0.000016228215    -0.000002276168
      15        0.002102934062    -0.002831374825     0.002029763862
      16       -0.000001941405     0.000013516977    -0.000020805920
      17        0.000020407172    -0.000024136327     0.000031728382
      18       -0.000000021199     0.000009601062    -0.000003002871
      19        0.000022347027    -0.000030062486    -0.000029343021

  **** Optimization is complete! (in 4 steps) ****
    Final optimized geometry and variables:
    Molecular point group: c1

    Geometry (in Angstrom), charge = 0, multiplicity = 1:

    H            3.784504998676     0.557821969328    -0.772780836683
    N            2.993493189706    -0.050337068310    -0.783787664579
    C            1.843285115306     0.573868292965    -0.149050879002
    H            3.257053021385    -0.884491242199    -0.301996634000
    C            0.618041425840    -0.323160826383    -0.242386566242
    H            1.643770449805     1.505857582582    -0.667334974275
    H            2.022222956312     0.829294132084     0.896180177007
    C           -0.631053918869     0.297141489392     0.372132638323
    H            0.440509848860    -0.559019583002    -1.286319180205
    H            0.830770909419    -1.268097867452     0.254612760183
    C           -1.851661905423    -0.627866390592     0.351996888901
    H           -0.873340661191     1.232228691143    -0.127098428849
    H           -0.424406196974     0.576447561114     1.403002509503
    C           -3.179669854862     0.111420390924     0.457066917382
    H           -1.830101559644    -1.243012252542    -0.542952850185
    H           -1.769600160231    -1.331023815090     1.176752801589
    H           -3.326503457942     0.772981920170    -0.389932091058
    H           -4.014237478474    -0.579657670046     0.487208097908
    H           -3.218822811018     0.716161811606     1.357353889919

  Mulliken Charges: (a.u.)
   Center  Symbol    Alpha    Beta     Spin     Total
       1     H     0.43022  0.43022  0.00000  0.13957
       2     N     3.68907  3.68907  0.00000 -0.37815
       3     C     3.02706  3.02706  0.00000 -0.05413
       4     H     0.43112  0.43112  0.00000  0.13776
       5     C     3.08169  3.08169  0.00000 -0.16339
       6     H     0.45690  0.45690  0.00000  0.08620
       7     H     0.46836  0.46836  0.00000  0.06329
       8     C     3.09454  3.09454  0.00000 -0.18909
       9     H     0.44878  0.44878  0.00000  0.10243
      10     H     0.45967  0.45967  0.00000  0.08067
      11     C     3.08412  3.08412  0.00000 -0.16825
      12     H     0.45539  0.45539  0.00000  0.08922
      13     H     0.45623  0.45623  0.00000  0.08754
      14     C     3.14866  3.14866  0.00000 -0.29732
      15     H     0.45436  0.45436  0.00000  0.09129
      16     H     0.45470  0.45470  0.00000  0.09060
      17     H     0.45501  0.45501  0.00000  0.08997
      18     H     0.44903  0.44903  0.00000  0.10195
      19     H     0.45508  0.45508  0.00000  0.08984

   Total alpha = 25.00000, Total beta = 25.00000, Total charge = -0.00000

*** Psi4 exiting successfully. Buy a developer a beer!
