  ==> Input File <==

--------------------------------------------------------------------------
set {
	reference rhf
	basis 6-31G*
}

set_num_threads( 1 )
memory 2 gb

molecule MOL {
0 1

O	 -1.277674	 2.407430	 0.783041
C	 -1.394685	 1.628723	 -0.113819
C	 -0.174186	 1.001215	 -0.764144
C	 -2.753519	 1.204207	 -0.624438
C	 0.379448	 -0.143569	 0.099626
H	 0.578986	 1.775043	 -0.865264
H	 -0.416740	 0.633364	 -1.757058
C	 1.631333	 -0.777471	 -0.511575
H	 0.594120	 0.250787	 1.086431
H	 -0.384314	 -0.909302	 0.226384
C	 2.915987	 -0.544314	 0.291766
H	 1.766672	 -0.399098	 -1.523130
H	 1.471257	 -1.849544	 -0.605828
C	 3.373361	 0.914346	 0.347591
H	 3.708709	 -1.142521	 -0.150311
H	 2.780642	 -0.921148	 1.303579
H	 3.506512	 1.320010	 -0.651625
H	 4.322697	 0.999599	 0.867103
H	 2.660624	 1.545032	 0.868198
H	 -2.887618	 1.557744	 -1.643404
H	 -3.530602	 1.616776	 0.003823
H	 -2.834159	 0.121277	 -0.648205

	symmetry c1
}
set optking {
	frozen_dihedral = ("
		6 3 2 1,
		6 3 5 8,
		12 8 11 15
	")
}

ee = energy('scf')
oeprop('DIPOLE', 'QUADRUPOLE', 'MULLIKEN_CHARGES')
f=open( 'psi4out.xyz', 'w' )
f.write( "22  " )
f.write( str(ee) + "\n" )
f.write( MOL.save_string_xyz() )
f.close()
--------------------------------------------------------------------------

    Molecular point group: c1

    Geometry (in Angstrom), charge = 0, multiplicity = 1:

       Center              X                  Y                   Z               Mass
    ------------   -----------------  -----------------  -----------------  -----------------
           O         -1.617030379692     1.684072856183     0.838182163817    15.994914619560
           C         -1.734041379692     0.905365856183    -0.058677836183    12.000000000000
           C         -0.513542379692     0.277857856183    -0.709002836183    12.000000000000
           C         -3.092875379692     0.480849856183    -0.569296836183    12.000000000000
           C          0.040091620308    -0.866926143817     0.154767163817    12.000000000000
           H          0.239629620308     1.051685856183    -0.810122836183     1.007825032070
           H         -0.756096379692    -0.089993143817    -1.701916836183     1.007825032070
           C          1.291976620308    -1.500828143817    -0.456433836183    12.000000000000
           H          0.254763620308    -0.472570143817     1.141572163817     1.007825032070
           H         -0.723670379692    -1.632659143817     0.281525163817     1.007825032070
           C          2.576630620308    -1.267671143817     0.346907163817    12.000000000000
           H          1.427315620308    -1.122455143817    -1.467988836183     1.007825032070
           H          1.131900620308    -2.572901143817    -0.550686836183     1.007825032070
           C          3.034004620308     0.190988856183     0.402732163817    12.000000000000
           H          3.369352620308    -1.865878143817    -0.095169836183     1.007825032070
           H          2.441285620308    -1.644505143817     1.358720163817     1.007825032070
           H          3.167155620308     0.596652856183    -0.596483836183     1.007825032070
           H          3.983340620308     0.276241856183     0.922244163817     1.007825032070
           H          2.321267620308     0.821674856183     0.923339163817     1.007825032070
           H         -3.226974379692     0.834386856183    -1.588262836183     1.007825032070
           H         -3.869958379692     0.893418856183     0.058964163817     1.007825032070
           H         -3.173515379692    -0.602080143817    -0.593063836183     1.007825032070

  Charge       = 0
  Multiplicity = 1
  Basis Set: 6-31G*
  Basis Set:

    Orbital Energies (a.u.)
    -----------------------

    Doubly Occupied:

       1A    -20.547091     2A    -11.323783     3A    -11.229031
       4A    -11.228009     5A    -11.227904     6A    -11.220564
       7A    -11.219342     8A    -11.210046     9A     -1.392828
      10A     -1.095935    11A     -1.042305    12A     -0.998453
      13A     -0.939291    14A     -0.855874    15A     -0.785745
      16A     -0.733879    17A     -0.658061    18A     -0.648921
      19A     -0.626743    20A     -0.615372    21A     -0.598469
      22A     -0.578008    23A     -0.561939    24A     -0.548668
      25A     -0.530772    26A     -0.514801    27A     -0.505526
      28A     -0.486472    29A     -0.467840    30A     -0.462531
      31A     -0.456124    32A     -0.395211

  @DF-RHF Final Energy:  -348.09292077541750

   => Energetics <=

    Nuclear Repulsion Energy =            378.2835804389897021
    One-Electron Energy =               -1221.3419718256930082
    Two-Electron Energy =                 494.9654706112855820
    DFT Exchange-Correlation Energy =       0.0000000000000000
    Empirical Dispersion Energy =           0.0000000000000000
    PCM Polarization Energy =               0.0000000000000000
    EFP Energy =                            0.0000000000000000
    Total Energy =                       -348.0929207754177241

  Mulliken Charges: (a.u.)
   Center  Symbol    Alpha    Beta     Spin     Total
       1     O     4.26292  4.26292  0.00000 -0.52584
       2     C     2.73729  2.73729  0.00000  0.52542
       3     C     3.20353  3.20353  0.00000 -0.40706
       4     C     3.28960  3.28960  0.00000 -0.57919
       5     C     3.16606  3.16606  0.00000 -0.33212
       6     H     0.39961  0.39961  0.00000  0.20078
       7     H     0.41630  0.41630  0.00000  0.16739
       8     C     3.15609  3.15609  0.00000 -0.31219
       9     H     0.40326  0.40326  0.00000  0.19349
      10     H     0.41786  0.41786  0.00000  0.16429
      11     C     3.15357  3.15357  0.00000 -0.30714
      12     H     0.42056  0.42056  0.00000  0.15888
      13     H     0.41800  0.41800  0.00000  0.16399
      14     C     3.24395  3.24395  0.00000 -0.48791
      15     H     0.42089  0.42089  0.00000  0.15821
      16     H     0.42118  0.42118  0.00000  0.15764
      17     H     0.42288  0.42288  0.00000  0.15424
      18     H     0.41763  0.41763  0.00000  0.16473
      19     H     0.41482  0.41482  0.00000  0.17037
      20     H     0.40704  0.40704  0.00000  0.18591
      21     H     0.39716  0.39716  0.00000  0.20567
      22     H     0.40978  0.40978  0.00000  0.18044

   Total alpha = 32.00000, Total beta = 32.00000, Total charge = -0.00000
