  ==> Input File <==

--------------------------------------------------------------------------
set {
	reference rhf
	basis cc-pvtz
}

set_num_threads( 4 )
memory 2 gb

molecule MOL {
0 1

H	 -2.516476	 -0.243356	 0.552994
N	 -1.851927	 0.161443	 -0.071573
C	 -0.561396	 -0.500007	 0.035200
H	 -1.777185	 1.128986	 0.164246
C	 0.575129	 0.507849	 -0.048832
H	 -0.478089	 -1.200753	 -0.788956
H	 -0.456191	 -1.081816	 0.952176
C	 1.951750	 -0.141983	 0.035101
H	 0.478254	 1.061643	 -0.975981
H	 0.467676	 1.231891	 0.755499
H	 2.101550	 -0.848142	 -0.774949
H	 2.738260	 0.600794	 -0.026526
H	 2.078939	 -0.679792	 0.968824

	symmetry c1
}
set optking {
	frozen_dihedral = ("
		1 2 3 6
	")
}

ee = optimize('scf')
oeprop('DIPOLE', 'QUADRUPOLE', 'MULLIKEN_CHARGES')
f=open( 'psi4out.xyz', 'w' )
f.write( "13  " )
f.write( str(ee) + "\n" )
f.write( MOL.save_string_xyz() )
f.close()
--------------------------------------------------------------------------

    Molecular point group: c1
  Charge       = 0
  Multiplicity = 1
  Basis Set: CC-PVTZ
  Basis Set:
  @DF-RHF Final Energy:  -173.34933913736731
    Total Energy =                       -173.3493391373671670
    Molecular point group: c1
  Basis Set: CC-PVTZ
  Basis Set:
  Basis Set: CC-PVTZ
  Basis Set:
  @DF-RHF Final Energy:  -173.34959073478939
    Total Energy =                       -173.3495907347895013
  Basis Set: CC-PVTZ
  Basis Set:
  Basis Set: CC-PVTZ
  Basis Set:
  @DF-RHF Final Energy:  -173.34963279267743
    Total Energy =                       -173.3496327926774825
  Basis Set: CC-PVTZ
  Basis Set:
  Basis Set: CC-PVTZ
  Basis Set:
  @DF-RHF Final Energy:  -173.34963398765586
    Total Energy =                       -173.3496339876558920
  Basis Set: CC-PVTZ
  Basis Set:
  Charge       = 0
  Multiplicity = 1
  Basis Set: CC-PVTZ
  Basis Set:

    Orbital Energies (a.u.)
    -----------------------

    Doubly Occupied:

       1A    -15.525116     2A    -11.238146     3A    -11.216101
       4A    -11.209895     5A     -1.177020     6A     -1.038874
       7A     -0.900489     8A     -0.806124     9A     -0.653695
      10A     -0.638096    11A     -0.604910    12A     -0.557096
      13A     -0.544890    14A     -0.496616    15A     -0.479894
      16A     -0.469949    17A     -0.383033

  @DF-RHF Final Energy:  -173.34963411850683

   => Energetics <=

    Nuclear Repulsion Energy =            132.0433514441344585
    One-Electron Energy =                -494.9060808771336610
    Two-Electron Energy =                 189.5130953144922614
    DFT Exchange-Correlation Energy =       0.0000000000000000
    Empirical Dispersion Energy =           0.0000000000000000
    PCM Polarization Energy =               0.0000000000000000
    EFP Energy =                            0.0000000000000000
    Total Energy =                       -173.3496341185069696
    Molecular point group: c1
  Basis Set: CC-PVTZ
  Basis Set:

  -Total Gradient:
     Atom            X                  Y                   Z
    ------   -----------------  -----------------  -----------------
       1        0.000713708315     0.001886851249     0.002004805496
       2       -0.000611098805    -0.001933231698    -0.002859549858
       3       -0.001190794035    -0.001776284313     0.002332665441
       4        0.000004442858     0.000000125126    -0.000010932635
       5       -0.000013351063     0.000004319890     0.000016543654
       6        0.001075061490     0.001826537092    -0.001467323753
       7        0.000012022772    -0.000003743720    -0.000005010027
       8        0.000006380701    -0.000006308233    -0.000012008141
       9        0.000001917999     0.000002400637     0.000000693340
      10       -0.000002236983    -0.000000837861    -0.000005145560
      11       -0.000002122632    -0.000002435348     0.000004450664
      12        0.000003827062     0.000000244372    -0.000000477432
      13        0.000002242320     0.000002362807     0.000001288815

  **** Optimization is complete! (in 5 steps) ****
    Final optimized geometry and variables:
    Molecular point group: c1

    Geometry (in Angstrom), charge = 0, multiplicity = 1:

    H           -2.544512009552    -0.252536354851     0.515117870968
    N           -1.865053046369     0.143521306195    -0.097798631182
    C           -0.565541335947    -0.504980641869     0.055329236538
    H           -1.804957538625     1.110796472521     0.140926217480
    C            0.574656900974     0.500825963874    -0.028533315938
    H           -0.437823297535    -1.225435704057    -0.746720627763
    H           -0.490428002102    -1.049440536344     0.993874411745
    C            1.950040747696    -0.154562202033     0.017549586941
    H            0.470495272957     1.068341282159    -0.948750740779
    H            0.483598664188     1.212249773329     0.788691313863
    H            2.082833457167    -0.844131490726    -0.808938433113
    H            2.737724544277     0.587144365878    -0.041593634373
    H            2.089430624327    -0.711308407450     0.938227698188

  Mulliken Charges: (a.u.)
   Center  Symbol    Alpha    Beta     Spin     Total
       1     H     0.43070  0.43070  0.00000  0.13860
       2     N     3.68895  3.68895  0.00000 -0.37791
       3     C     3.01388  3.01388  0.00000 -0.02775
       4     H     0.43190  0.43190  0.00000  0.13619
       5     C     3.08497  3.08497  0.00000 -0.16995
       6     H     0.46365  0.46365  0.00000  0.07270
       7     H     0.46721  0.46721  0.00000  0.06558
       8     C     3.15195  3.15195  0.00000 -0.30390
       9     H     0.44997  0.44997  0.00000  0.10006
      10     H     0.45933  0.45933  0.00000  0.08133
      11     H     0.45366  0.45366  0.00000  0.09268
      12     H     0.44783  0.44783  0.00000  0.10434
      13     H     0.45599  0.45599  0.00000  0.08803

   Total alpha = 17.00000, Total beta = 17.00000, Total charge =  0.00000
