                              Psi4 1.0.54 Driver

  ==> Input File <==

--------------------------------------------------------------------------
set {
	reference rhf
	basis cc-pvtz
}

set_num_threads( 4 )
memory 2 gb

molecule MOL {
0 1

H	 3.459904	 1.064976	 0.473238
O	 2.550281	 0.935651	 0.695855
C	 2.076458	 -0.067370	 -0.038225
C	 0.626018	 -0.337582	 0.258241
O	 2.749806	 -0.648140	 -0.817424
C	 -0.267326	 0.883135	 0.076490
H	 0.325620	 -1.161483	 -0.378003
H	 0.574537	 -0.713685	 1.275261
C	 -1.726822	 0.642622	 0.463839
H	 -0.210803	 1.217591	 -0.953497
H	 0.129920	 1.693110	 0.675679
C	 -2.480891	 -0.340606	 -0.429852
H	 -2.243098	 1.597649	 0.438609
H	 -1.776542	 0.301208	 1.495542
C	 -3.955933	 -0.460128	 -0.060472
H	 -2.393755	 -0.020485	 -1.464726
H	 -2.024244	 -1.323637	 -0.374360
H	 -4.467673	 -1.160944	 -0.709827
H	 -4.458917	 0.497287	 -0.144505
H	 -4.076458	 -0.806900	 0.960497

	symmetry c1
}
set optking {
	frozen_dihedral = ("
		5 3 4 7
	")
}

ee,wfn = optimize('scf', return_wfn=True)
oeprop( wfn, 'DIPOLE', 'QUADRUPOLE', 'MULLIKEN_CHARGES')
f=open( 'psi4out.xyz', 'w' )
f.write( "20  " )
f.write( str(ee) + "\n" )
f.write( MOL.save_string_xyz() )
f.close()
--------------------------------------------------------------------------

    Molecular point group: c1
  Charge       = 0
  Multiplicity = 1
  Basis Set: CC-PVTZ
  Basis Set:
  @DF-RHF Final Energy:  -384.09320535346006
    Total Energy =                       -384.0932053534603483
    Molecular point group: c1
  Basis Set: CC-PVTZ
  Basis Set:
  Basis Set: CC-PVTZ
  Basis Set:
  @DF-RHF Final Energy:  -384.09300231868286
    Total Energy =                       -384.0930023186828066
  Basis Set: CC-PVTZ
  Basis Set:
  Basis Set: CC-PVTZ
  Basis Set:
  @DF-RHF Final Energy:  -384.09327670450477
    Total Energy =                       -384.0932767045049445
  Basis Set: CC-PVTZ
  Basis Set:
  Basis Set: CC-PVTZ
  Basis Set:
  @DF-RHF Final Energy:  -384.09358784341180
    Total Energy =                       -384.0935878434115693
  Basis Set: CC-PVTZ
  Basis Set:
  Basis Set: CC-PVTZ
  Basis Set:
  @DF-RHF Final Energy:  -384.09358010401343
    Total Energy =                       -384.0935801040142792
  Basis Set: CC-PVTZ
  Basis Set:
  Basis Set: CC-PVTZ
  Basis Set:
  @DF-RHF Final Energy:  -384.09359274030851
    Total Energy =                       -384.0935927403085088
  Basis Set: CC-PVTZ
  Basis Set:
  Charge       = 0
  Multiplicity = 1
  Basis Set: CC-PVTZ
  Basis Set:

    Orbital Energies (a.u.)
    -----------------------

    Doubly Occupied:

       1A    -20.604320     2A    -20.538976     3A    -11.372346
       4A    -11.237401     5A    -11.229385     6A    -11.221975
       7A    -11.219598     8A    -11.211554     9A     -1.477107
      10A     -1.367630    11A     -1.100394    12A     -1.043272
      13A     -0.961639    14A     -0.864526    15A     -0.826381
      16A     -0.790964    17A     -0.704776    18A     -0.689109
      19A     -0.646723    20A     -0.639458    21A     -0.618286
      22A     -0.594165    23A     -0.580301    24A     -0.554343
      25A     -0.542218    26A     -0.521529    27A     -0.500658
      28A     -0.484255    29A     -0.480689    30A     -0.470520
      31A     -0.459882    32A     -0.437298

  @DF-RHF Final Energy:  -384.09359295201597

   => Energetics <=

    Nuclear Repulsion Energy =            377.1046335828046381
    One-Electron Energy =               -1270.4130926853808887
    Two-Electron Energy =                 509.2148661505601126
    DFT Exchange-Correlation Energy =       0.0000000000000000
    Empirical Dispersion Energy =           0.0000000000000000
    PCM Polarization Energy =               0.0000000000000000
    EFP Energy =                            0.0000000000000000
    Total Energy =                       -384.0935929520161949
    Molecular point group: c1
  Basis Set: CC-PVTZ
  Basis Set:

  -Total Gradient:
     Atom            X                  Y                   Z
    ------   -----------------  -----------------  -----------------
       1       -0.000009276792    -0.000010997808    -0.000004905258
       2       -0.000009600234     0.000035123606     0.000028002700
       3       -0.000287188116     0.000684339550    -0.000849311309
       4        0.000298723935    -0.000667182071     0.000792425132
       5        0.000171014350    -0.000439648105     0.000502714138
       6        0.000004654694    -0.000005038867    -0.000011197254
       7       -0.000177294645     0.000412133121    -0.000466750282
       8        0.000001920679    -0.000000222381    -0.000002893890
       9       -0.000003756736    -0.000012086140     0.000013808382
      10        0.000004078011     0.000003912796     0.000000287927
      11        0.000002071146    -0.000007934732     0.000000113899
      12        0.000003772604     0.000013220601    -0.000009100323
      13        0.000000514842    -0.000008805505    -0.000004470608
      14       -0.000003855226     0.000004157947     0.000005407919
      15       -0.000001984769    -0.000001893399     0.000006010681
      16        0.000000491160    -0.000001233227     0.000000409316
      17        0.000003302529     0.000002498783     0.000003161946
      18       -0.000000037354    -0.000000209687    -0.000000106719
      19        0.000001882597    -0.000001411361    -0.000001924135
      20        0.000000567329     0.000001276879    -0.000001682261

  **** Optimization is complete! (in 7 steps) ****
    Final optimized geometry and variables:
    Molecular point group: c1

    Geometry (in Angstrom), charge = 0, multiplicity = 1:

    H            3.510051695351     0.938339340105     0.412252904119
    O            2.602581891282     0.840328292073     0.658304425030
    C            2.082053781670    -0.158071093346    -0.049912983303
    C            0.634840918438    -0.411241471555     0.276186456358
    O            2.722903563097    -0.771394374375    -0.832484729801
    C           -0.256952346398     0.815748041274     0.056008262583
    H            0.322852357567    -1.242094929355    -0.336397102213
    H            0.585416049581    -0.715207701308     1.317123857628
    C           -1.722665190882     0.583862319589     0.425391155629
    H           -0.191254488235     1.121936116020    -0.984367319505
    H            0.128229516732     1.637214336508     0.646226322103
    C           -2.464309077082    -0.418268232077    -0.457355954355
    H           -2.237011019885     1.538912551303     0.371772068742
    H           -1.784951048038     0.265865456027     1.463594121604
    C           -3.943049614201    -0.532695670961    -0.101175086091
    H           -2.366339830138    -0.118688381912    -1.497348504637
    H           -2.006297207430    -1.398475825091    -0.377663128223
    H           -4.445505507037    -1.249574419667    -0.739980896654
    H           -4.447720510862     0.421077377257    -0.212644077524
    H           -4.074099396253    -0.856584552979     0.925993123506

  Mulliken Charges: (a.u.)
   Center  Symbol    Alpha    Beta     Spin     Total
       1     H     0.38057  0.38057  0.00000  0.23885
       2     O     4.16269  4.16269  0.00000 -0.32538
       3     C     2.80688  2.80688  0.00000  0.38623
       4     C     3.09166  3.09166  0.00000 -0.18332
       5     O     4.19313  4.19313  0.00000 -0.38626
       6     C     3.11033  3.11033  0.00000 -0.22066
       7     H     0.43509  0.43509  0.00000  0.12981
       8     H     0.44422  0.44422  0.00000  0.11156
       9     C     3.09822  3.09822  0.00000 -0.19644
      10     H     0.44718  0.44718  0.00000  0.10564
      11     H     0.43492  0.43492  0.00000  0.13015
      12     C     3.08644  3.08644  0.00000 -0.17288
      13     H     0.44604  0.44604  0.00000  0.10793
      14     H     0.45278  0.45278  0.00000  0.09443
      15     C     3.14973  3.14973  0.00000 -0.29946
      16     H     0.45221  0.45221  0.00000  0.09558
      17     H     0.45211  0.45211  0.00000  0.09579
      18     H     0.44706  0.44706  0.00000  0.10589
      19     H     0.45399  0.45399  0.00000  0.09201
      20     H     0.45473  0.45473  0.00000  0.09054

   Total alpha = 32.00000, Total beta = 32.00000, Total charge = -0.00000

*** Psi4 exiting successfully. Buy a developer a beer!
