                              Psi4 1.0.54 Driver

  ==> Input File <==

--------------------------------------------------------------------------
set {
	reference rhf
	basis cc-pvtz
}

set_num_threads( 4 )
memory 2 gb

molecule MOL {
0 1

H	 2.867672	 -0.456275	 0.875795
C	 2.403497	 -0.020426	 0.000000
N	 0.989899	 -0.304564	 0.000000
H	 2.867672	 -0.456275	 -0.875795
H	 2.620366	 1.051270	 0.000000
C	 0.277836	 0.429829	 1.025281
C	 0.710383	 -1.722110	 0.100014
H	 0.638705	 0.171398	 2.025647
H	 0.441214	 1.491652	 0.881873
C	 -1.207234	 0.133661	 0.941064
H	 1.191135	 -2.239235	 -0.722293
H	 1.103786	 -2.142398	 1.030786
C	 -0.785801	 -1.962986	 0.039571
H	 -1.734886	 0.604527	 1.758680
H	 -1.603130	 0.522942	 0.005208
O	 -1.454007	 -1.238367	 1.029305
H	 -1.008825	 -3.007656	 0.205553
H	 -1.159889	 -1.682200	 -0.942935

	symmetry c1
}
set optking {
	frozen_dihedral = ("
		6 3 2 5
	")
}

ee,wfn = optimize('scf', return_wfn=True)
oeprop( wfn, 'DIPOLE', 'QUADRUPOLE', 'MULLIKEN_CHARGES')
f=open( 'psi4out.xyz', 'w' )
f.write( "18  " )
f.write( str(ee) + "\n" )
f.write( MOL.save_string_xyz() )
f.close()
--------------------------------------------------------------------------

    Molecular point group: c1
  Charge       = 0
  Multiplicity = 1
  Basis Set: CC-PVTZ
  Basis Set:
  @DF-RHF Final Energy:  -325.14490247348294
    Total Energy =                       -325.1449024734829436
    Molecular point group: c1
  Basis Set: CC-PVTZ
  Basis Set:
  Basis Set: CC-PVTZ
  Basis Set:
  @DF-RHF Final Energy:  -325.14554101546332
    Total Energy =                       -325.1455410154631522
  Basis Set: CC-PVTZ
  Basis Set:
  Basis Set: CC-PVTZ
  Basis Set:
  @DF-RHF Final Energy:  -325.14562316676171
    Total Energy =                       -325.1456231667616521
  Basis Set: CC-PVTZ
  Basis Set:
  Charge       = 0
  Multiplicity = 1
  Basis Set: CC-PVTZ
  Basis Set:

    Orbital Energies (a.u.)
    -----------------------

    Doubly Occupied:

       1A    -20.547661     2A    -15.544018     3A    -11.264419
       4A    -11.264390     5A    -11.242684     6A    -11.242550
       7A    -11.239265     8A     -1.386552     9A     -1.234103
      10A     -1.039388    11A     -0.982195    12A     -0.884356
      13A     -0.869548    14A     -0.774353    15A     -0.685199
      16A     -0.646886    17A     -0.645567    18A     -0.635672
      19A     -0.630683    20A     -0.574192    21A     -0.557587
      22A     -0.540424    23A     -0.527720    24A     -0.501706
      25A     -0.486065    26A     -0.454156    27A     -0.410855
      28A     -0.354418

  @DF-RHF Final Energy:  -325.14562429617956

   => Energetics <=

    Nuclear Repulsion Energy =            341.9358342158836876
    One-Electron Energy =               -1119.8296955941873421
    Two-Electron Energy =                 452.7482370821240920
    DFT Exchange-Correlation Energy =       0.0000000000000000
    Empirical Dispersion Energy =           0.0000000000000000
    PCM Polarization Energy =               0.0000000000000000
    EFP Energy =                            0.0000000000000000
    Total Energy =                       -325.1456242961795624
    Molecular point group: c1
  Basis Set: CC-PVTZ
  Basis Set:

  -Total Gradient:
     Atom            X                  Y                   Z
    ------   -----------------  -----------------  -----------------
       1       -0.000034225038    -0.000006198107     0.000007567659
       2       -0.000023730609     0.000308371279    -0.002417436265
       3        0.000275525241    -0.001325417253     0.001505031652
       4       -0.000009925741    -0.000005215205    -0.000008899667
       5       -0.000027681310    -0.000010206686     0.001655751201
       6       -0.000264701573     0.000980573988    -0.000810950187
       7        0.000099054202    -0.000145494163     0.000046727164
       8       -0.000026710029    -0.000005405254    -0.000030805158
       9       -0.000012723250     0.000005197756     0.000008779157
      10       -0.000006931736     0.000030431854     0.000086280516
      11        0.000019121717     0.000002553157    -0.000013900391
      12        0.000004307095     0.000023263948    -0.000005083234
      13        0.000016935410     0.000170124993    -0.000037108331
      14       -0.000035142894     0.000000093533     0.000005984625
      15        0.000027360010    -0.000012555225     0.000009446567
      16       -0.000027248508    -0.000012721326     0.000025830738
      17        0.000047768321     0.000024893074     0.000003508350
      18       -0.000021051313    -0.000022290366    -0.000030724393

  **** Optimization is complete! (in 4 steps) ****
    Final optimized geometry and variables:
    Molecular point group: c1

    Geometry (in Angstrom), charge = 0, multiplicity = 1:

    H            2.787086461230     0.269000715455     0.406959437603
    C            2.262316192064     0.669427551029    -0.465221650975
    N            0.851416156093     0.374186882607    -0.448608019341
    H            2.720701614941     0.252381322758    -1.353276580578
    H            2.414199304035     1.741174173018    -0.472353278958
    C            0.135145422083     1.103019569277     0.576946697227
    C            0.582416985905    -1.045005582628    -0.361067127657
    H            0.497487648077     0.849379815720     1.578247664640
    H            0.288165202358     2.166059471189     0.432076029149
    C           -1.347495805486     0.793363677938     0.493396576693
    H            1.065624931902    -1.551647720064    -1.188851158872
    H            0.981352452516    -1.470378711958     0.565115406971
    C           -0.912255805946    -1.295577046769    -0.419624759258
    H           -1.878771341030     1.256731274149     1.313055197018
    H           -1.747159285130     1.182838217904    -0.440846223229
    O           -1.582452355900    -0.581046510556     0.576041546948
    H           -1.127531784936    -2.342747022647    -0.259019356152
    H           -1.290790939329    -1.011998591896    -1.399702501754

  Mulliken Charges: (a.u.)
   Center  Symbol    Alpha    Beta     Spin     Total
       1     H     0.46966  0.46966  0.00000  0.06067
       2     C     3.09470  3.09470  0.00000 -0.18940
       3     N     3.61685  3.61685  0.00000 -0.23369
       4     H     0.45070  0.45070  0.00000  0.09859
       5     H     0.45235  0.45235  0.00000  0.09530
       6     C     3.04019  3.04019  0.00000 -0.08037
       7     C     3.04110  3.04110  0.00000 -0.08221
       8     H     0.46952  0.46952  0.00000  0.06096
       9     H     0.45392  0.45392  0.00000  0.09215
      10     C     2.98368  2.98368  0.00000  0.03264
      11     H     0.45419  0.45419  0.00000  0.09161
      12     H     0.46851  0.46851  0.00000  0.06299
      13     C     2.98337  2.98337  0.00000  0.03327
      14     H     0.44973  0.44973  0.00000  0.10054
      15     H     0.46766  0.46766  0.00000  0.06468
      16     O     4.18648  4.18648  0.00000 -0.37295
      17     H     0.44981  0.44981  0.00000  0.10039
      18     H     0.46758  0.46758  0.00000  0.06483

   Total alpha = 28.00000, Total beta = 28.00000, Total charge = -0.00000

*** Psi4 exiting successfully. Buy a developer a beer!
