  ==> Input File <==

--------------------------------------------------------------------------
set {
	reference rhf
	basis 6-31G*
}

set_num_threads( 4 )
memory 2 gb

molecule MOL {
0 1

H	 2.372780	 -0.771305	 -0.519094
C	 1.640874	 0.013007	 -0.625028
O	 0.464886	 -0.454746	 -0.000158
H	 1.472281	 0.205573	 -1.677891
H	 2.006933	 0.911812	 -0.143143
C	 -0.590998	 0.343045	 0.000118
O	 -1.699443	 -0.054298	 0.000227
H	 -0.340329	 1.404368	 0.000207

	symmetry c1
}
set optking {
	frozen_dihedral = ("
		2 3 6 7
	")
}

ee = optimize('scf')
oeprop('DIPOLE', 'QUADRUPOLE', 'MULLIKEN_CHARGES')
f=open( 'psi4out.xyz', 'w' )
f.write( "8  " )
f.write( str(ee) + "\n" )
f.write( MOL.save_string_xyz() )
f.close()
--------------------------------------------------------------------------

    Molecular point group: c1
  Charge       = 0
  Multiplicity = 1
  Basis Set: 6-31G*
  Basis Set:
  @DF-RHF Final Energy:  -227.77657607390756
    Total Energy =                       -227.7765760739074210
    Molecular point group: c1
  Basis Set: 6-31G*
  Basis Set:
  Basis Set: 6-31G*
  Basis Set:
  @DF-RHF Final Energy:  -227.77654526734682
    Total Energy =                       -227.7765452673466484
  Basis Set: 6-31G*
  Basis Set:
  Basis Set: 6-31G*
  Basis Set:
  @DF-RHF Final Energy:  -227.77668469703559
    Total Energy =                       -227.7766846970354777
  Basis Set: 6-31G*
  Basis Set:
  Basis Set: 6-31G*
  Basis Set:
  @DF-RHF Final Energy:  -227.77679942262827
    Total Energy =                       -227.7767994226283577
  Basis Set: 6-31G*
  Basis Set:
  Basis Set: 6-31G*
  Basis Set:
  @DF-RHF Final Energy:  -227.77680100359797
    Total Energy =                       -227.7768010035981945
  Basis Set: 6-31G*
  Basis Set:
  Charge       = 0
  Multiplicity = 1
  Basis Set: 6-31G*
  Basis Set:

    Orbital Energies (a.u.)
    -----------------------

    Doubly Occupied:

       1A    -20.613451     2A    -20.561455     3A    -11.382760
       4A    -11.304394     5A     -1.475497     6A     -1.383803
       7A     -0.992516     8A     -0.847748     9A     -0.738378
      10A     -0.684737    11A     -0.681091    12A     -0.611075
      13A     -0.570285    14A     -0.533363    15A     -0.464611
      16A     -0.454245

  @DF-RHF Final Energy:  -227.77680118869324

   => Energetics <=

    Nuclear Repulsion Energy =            121.2366196150411071
    One-Electron Energy =                -551.4280225025945583
    Two-Electron Energy =                 202.4146016988601957
    DFT Exchange-Correlation Energy =       0.0000000000000000
    Empirical Dispersion Energy =           0.0000000000000000
    PCM Polarization Energy =               0.0000000000000000
    EFP Energy =                            0.0000000000000000
    Total Energy =                       -227.7768011886932698
    Molecular point group: c1
  Basis Set: 6-31G*
  Basis Set:

  -Total Gradient:
     Atom            X                  Y                   Z
    ------   -----------------  -----------------  -----------------
       1        0.000005249499     0.000005093154     0.000002843733
       2       -0.001105468462    -0.000989662250    -0.003320964059
       3        0.001737654961     0.001771226060     0.002692060700
       4       -0.000014016209     0.000000009574     0.000005198785
       5       -0.000007198308    -0.000009980305     0.000004663094
       6       -0.000659998520    -0.001369886926     0.005188455498
       7        0.000033059808     0.000615036391    -0.004579209954
       8        0.000010717237    -0.000021835698     0.000006952203

  **** Optimization is complete! (in 6 steps) ****
    Final optimized geometry and variables:
    Molecular point group: c1

    Geometry (in Angstrom), charge = 0, multiplicity = 1:

    H            2.440020929954    -0.683274943851    -0.240706310640
    C            1.669069992977     0.039002474265    -0.456022021439
    O            0.475864445485    -0.460669346998     0.106469469361
    H            1.564314314096     0.147939751042    -1.528099659637
    H            1.941519617293     0.993713380764    -0.018362075322
    C           -0.549563416688     0.374784950288     0.213649738447
    O           -1.674609515977     0.032158406616     0.166307215416
    H           -0.250673698905     1.415505423017     0.343889360293

  Mulliken Charges: (a.u.)
   Center  Symbol    Alpha    Beta     Spin     Total
       1     H     0.39796  0.39796  0.00000  0.20409
       2     C     3.09814  3.09814  0.00000 -0.19627
       3     O     4.27983  4.27983  0.00000 -0.55966
       4     H     0.40962  0.40962  0.00000  0.18077
       5     H     0.41755  0.41755  0.00000  0.16489
       6     C     2.72447  2.72447  0.00000  0.55105
       7     O     4.24098  4.24098  0.00000 -0.48196
       8     H     0.43145  0.43145  0.00000  0.13709

   Total alpha = 16.00000, Total beta = 16.00000, Total charge = -0.00000
