  ==> Input File <==

--------------------------------------------------------------------------
set {
	reference rhf
	basis 6-31G*
}

set_num_threads( 1 )
memory 2 gb

molecule MOL {
0 1

H	 -1.142640	 0.023414	 -0.948585
C	 -0.790252	 0.431209	 0.000000
N	 0.538815	 0.649616	 0.000000
O	 -1.533642	 0.645243	 0.911466
C	 1.521968	 -0.411503	 0.000000
H	 0.852804	 1.592852	 0.000000
H	 2.150599	 -0.357004	 -0.881901
H	 0.999455	 -1.354525	 0.000000
H	 2.150599	 -0.357004	 0.881901

	symmetry c1
}
set optking {
	frozen_dihedral = ("
		6 3 5 7
	")
}

ee = energy('scf')
oeprop('DIPOLE', 'QUADRUPOLE', 'MULLIKEN_CHARGES')
f=open( 'psi4out.xyz', 'w' )
f.write( "9  " )
f.write( str(ee) + "\n" )
f.write( MOL.save_string_xyz() )
f.close()
--------------------------------------------------------------------------

    Molecular point group: c1

    Geometry (in Angstrom), charge = 0, multiplicity = 1:

       Center              X                  Y                   Z               Mass
    ------------   -----------------  -----------------  -----------------  -----------------
           H         -1.089202636262    -0.301769471584    -1.179334985344     1.007825032070
           C         -0.736814636262     0.106025528416    -0.230749985344    12.000000000000
           N          0.592252363738     0.324432528416    -0.230749985344    14.003074004780
           O         -1.480204636262     0.320059528416     0.680716014656    15.994914619560
           C          1.575405363738    -0.736686471584    -0.230749985344    12.000000000000
           H          0.906241363738     1.267668528416    -0.230749985344     1.007825032070
           H          2.204036363738    -0.682187471584    -1.112650985344     1.007825032070
           H          1.052892363738    -1.679708471584    -0.230749985344     1.007825032070
           H          2.204036363738    -0.682187471584     0.651151014656     1.007825032070

  Charge       = 0
  Multiplicity = 1
  Basis Set: 6-31G*
  Basis Set:

    Orbital Energies (a.u.)
    -----------------------

    Doubly Occupied:

       1A    -20.556433     2A    -15.556146     3A    -11.348389
       4A    -11.268564     5A     -1.402715     6A     -1.227843
       7A     -0.958897     8A     -0.828796     9A     -0.708389
      10A     -0.670677    11A     -0.639697    12A     -0.598910
      13A     -0.566874    14A     -0.510809    15A     -0.437481
      16A     -0.379181

  @DF-RHF Final Energy:  -207.92246671169323

   => Energetics <=

    Nuclear Repulsion Energy =            120.7910513058670290
    One-Electron Energy =                -522.1074434533329622
    Two-Electron Energy =                 193.3939254357728430
    DFT Exchange-Correlation Energy =       0.0000000000000000
    Empirical Dispersion Energy =           0.0000000000000000
    PCM Polarization Energy =               0.0000000000000000
    EFP Energy =                            0.0000000000000000
    Total Energy =                       -207.9224667116930902

  Mulliken Charges: (a.u.)
   Center  Symbol    Alpha    Beta     Spin     Total
       1     H     0.43165  0.43165  0.00000  0.13671
       2     C     2.76343  2.76343  0.00000  0.47314
       3     N     3.89380  3.89380  0.00000 -0.78761
       4     O     4.23377  4.23377  0.00000 -0.46754
       5     C     3.13440  3.13440  0.00000 -0.26879
       6     H     0.30644  0.30644  0.00000  0.38712
       7     H     0.41704  0.41704  0.00000  0.16592
       8     H     0.41081  0.41081  0.00000  0.17838
       9     H     0.40867  0.40867  0.00000  0.18267

   Total alpha = 16.00000, Total beta = 16.00000, Total charge =  0.00000
