                              Psi4 1.0.54 Driver

  ==> Input File <==

--------------------------------------------------------------------------
set {
	reference rhf
	basis cc-pvtz
}

set_num_threads( 4 )
memory 2 gb

molecule MOL {
0 1

O	 2.868453	 1.353349	 -0.000734
C	 2.841259	 0.166180	 -0.000295
C	 1.542794	 -0.614730	 -0.000853
C	 4.113372	 -0.651103	 0.000743
C	 0.288398	 0.247429	 0.000314
H	 1.557171	 -1.273139	 -0.866508
H	 1.557484	 -1.274998	 0.863344
C	 -0.388920	 0.299515	 -1.366302
H	 0.546375	 1.249921	 0.322138
H	 -0.404924	 -0.134752	 0.740839
C	 -1.648151	 1.161206	 -1.378801
H	 0.313015	 0.681434	 -2.104340
H	 -0.642988	 -0.709481	 -1.683537
C	 -2.331175	 1.218679	 -2.742220
H	 -1.395155	 2.170059	 -1.062064
H	 -2.350748	 0.779757	 -0.641928
C	 -3.588591	 2.081623	 -2.746789
H	 -1.629981	 1.600971	 -3.479186
H	 -2.585573	 0.210798	 -3.059042
H	 -3.361678	 3.105098	 -2.467412
H	 -4.048391	 2.101248	 -3.728227
H	 -4.324419	 1.704513	 -2.044372
H	 4.145311	 -1.294584	 -0.871587
H	 4.970080	 0.004978	 -0.000091
H	 4.145223	 -1.291980	 0.874988

	symmetry c1
}
set optking {
	frozen_dihedral = ("
		9 5 3 6
	")
}

ee,wfn = optimize('scf', return_wfn=True)
oeprop( wfn, 'DIPOLE', 'QUADRUPOLE', 'MULLIKEN_CHARGES')
f=open( 'psi4out.xyz', 'w' )
f.write( "25  " )
f.write( str(ee) + "\n" )
f.write( MOL.save_string_xyz() )
f.close()
--------------------------------------------------------------------------

    Molecular point group: c1
  Charge       = 0
  Multiplicity = 1
  Basis Set: CC-PVTZ
  Basis Set:
  @DF-RHF Final Energy:  -387.27088868163111
    Total Energy =                       -387.2708886816311633
    Molecular point group: c1
  Basis Set: CC-PVTZ
  Basis Set:
  Basis Set: CC-PVTZ
  Basis Set:
  @DF-RHF Final Energy:  -387.27128959876438
    Total Energy =                       -387.2712895987639286
  Basis Set: CC-PVTZ
  Basis Set:
  Basis Set: CC-PVTZ
  Basis Set:
  @DF-RHF Final Energy:  -387.27114231370149
    Total Energy =                       -387.2711423137017164
  Basis Set: CC-PVTZ
  Basis Set:
  Basis Set: CC-PVTZ
  Basis Set:
  @DF-RHF Final Energy:  -387.27137379190123
    Total Energy =                       -387.2713737919010555
  Basis Set: CC-PVTZ
  Basis Set:
  @DF-RHF Final Energy:  -387.27138898140834
    Total Energy =                       -387.2713889814087906
  @DF-RHF Final Energy:  -387.27139537073896
    Total Energy =                       -387.2713953707383325
  @DF-RHF Final Energy:  -387.27140154884557
    Total Energy =                       -387.2714015488455743
  @DF-RHF Final Energy:  -387.27140539417667
    Total Energy =                       -387.2714053941766679
  Basis Set: CC-PVTZ
  Basis Set:
  @DF-RHF Final Energy:  -387.27141627297311
    Total Energy =                       -387.2714162729730560
  Basis Set: CC-PVTZ
  Basis Set:
  Basis Set: CC-PVTZ
  Basis Set:
  @DF-RHF Final Energy:  -387.27142479423560
    Total Energy =                       -387.2714247942361681
  Basis Set: CC-PVTZ
  Basis Set:
  Basis Set: CC-PVTZ
  Basis Set:
  @DF-RHF Final Energy:  -387.27142663980891
    Total Energy =                       -387.2714266398087375
  Basis Set: CC-PVTZ
  Basis Set:
  Charge       = 0
  Multiplicity = 1
  Basis Set: CC-PVTZ
  Basis Set:

    Orbital Energies (a.u.)
    -----------------------

    Doubly Occupied:

       1A    -20.539644     2A    -11.321699     3A    -11.230523
       4A    -11.227202     5A    -11.213919     6A    -11.211038
       7A    -11.210739     8A    -11.208454     9A    -11.204257
      10A     -1.400021    11A     -1.092273    12A     -1.055831
      13A     -1.015075    14A     -0.968085    15A     -0.890288
      16A     -0.814865    17A     -0.788691    18A     -0.729884
      19A     -0.669985    20A     -0.640097    21A     -0.635966
      22A     -0.623175    23A     -0.593843    24A     -0.584421
      25A     -0.575145    26A     -0.558212    27A     -0.533597
      28A     -0.526397    29A     -0.517281    30A     -0.499478
      31A     -0.482509    32A     -0.473508    33A     -0.461215
      34A     -0.459594    35A     -0.443215    36A     -0.403300

  @DF-RHF Final Energy:  -387.27142673504551

   => Energetics <=

    Nuclear Repulsion Energy =            444.8052012019421113
    One-Electron Energy =               -1406.5463983322676995
    Two-Electron Energy =                 574.4697703952798520
    DFT Exchange-Correlation Energy =       0.0000000000000000
    Empirical Dispersion Energy =           0.0000000000000000
    PCM Polarization Energy =               0.0000000000000000
    EFP Energy =                            0.0000000000000000
    Total Energy =                       -387.2714267350457931
    Molecular point group: c1
  Basis Set: CC-PVTZ
  Basis Set:

  -Total Gradient:
     Atom            X                  Y                   Z
    ------   -----------------  -----------------  -----------------
       1       -0.000005527798     0.000024735873    -0.000007988068
       2        0.000016777823    -0.000005558040     0.000003249203
       3       -0.001701766803    -0.002630717677     0.001385643347
       4        0.000019468714    -0.000023364545     0.000011058446
       5       -0.000258443201    -0.000491149973     0.003222836497
       6        0.001457460359     0.002251261134    -0.001642001225
       7       -0.000003271681    -0.000001042406    -0.000003593933
       8       -0.000006295248    -0.000003298443     0.000008394473
       9        0.000493244598     0.000848519543    -0.002967778373
      10       -0.000001882269     0.000003817437     0.000000974366
      11        0.000000723763     0.000009820258    -0.000005159048
      12       -0.000001083276     0.000001821828     0.000000849583
      13        0.000000661363    -0.000001892974     0.000000459914
      14        0.000006372395     0.000010811819    -0.000004595391
      15        0.000001889966     0.000003318241    -0.000002735870
      16        0.000002498262     0.000001744186     0.000001695865
      17       -0.000005764993    -0.000011271480     0.000004721768
      18        0.000002200199     0.000002987203     0.000001006929
      19        0.000001054709    -0.000000080501    -0.000002138526
      20        0.000003685864    -0.000001511116    -0.000002672470
      21       -0.000000911896    -0.000003922405     0.000000900887
      22       -0.000004413520     0.000002609098     0.000003283761
      23        0.000004578559     0.000028203841     0.000024921135
      24       -0.000024326270    -0.000022239690     0.000005535967
      25        0.000003070385     0.000006398792    -0.000036869237

  **** Optimization is complete! (in 12 steps) ****
    Final optimized geometry and variables:
    Molecular point group: c1

    Geometry (in Angstrom), charge = 0, multiplicity = 1:

    O            2.456782868609     0.712144375984     0.672046398225
    C            2.433264107347    -0.462925220542     0.840462968753
    C            1.140749480347    -1.256435746086     0.921463148996
    C            3.709280973826    -1.262297379783     0.978804709385
    C           -0.133573205895    -0.406607037088     0.951655513494
    H            1.151967458979    -1.904029469686     0.047467003163
    H            1.210181715082    -1.914137225306     1.781577725351
    C           -0.812608540171    -0.297164890443    -0.413127770969
    H            0.120457357417     0.591406329464     1.282067627578
    H           -0.831902819001    -0.825527442177     1.667730130527
    C           -2.054508613478     0.587945811081    -0.395543174457
    H           -0.099634908056     0.099117170067    -1.131159819926
    H           -1.084470514220    -1.290790065600    -0.763148841992
    C           -2.739959308735     0.698577383154    -1.754513797543
    H           -1.779875932382     1.581719353969    -0.051166594160
    H           -2.763596410191     0.198829563674     0.331946289197
    C           -3.980118610990     1.585793332483    -1.730008102016
    H           -2.032838724113     1.088751689525    -2.481281436945
    H           -3.015029048128    -0.294376821314    -2.100219635146
    H           -3.731930403493     2.596087598908    -1.422285622670
    H           -4.442278313084     1.642758193039    -2.708935741273
    H           -4.721541782452     1.203291541965    -1.036205807070
    H            3.696955639396    -2.125892777874     0.324101110379
    H            4.559858405069    -0.638488295458     0.751198919504
    H            3.795333289191    -1.629361291941     1.996150781009

  Mulliken Charges: (a.u.)
   Center  Symbol    Alpha    Beta     Spin     Total
       1     O     4.17302  4.17302  0.00000 -0.34604
       2     C     2.85953  2.85953  0.00000  0.28094
       3     C     3.12391  3.12391  0.00000 -0.24782
       4     C     3.15078  3.15078  0.00000 -0.30156
       5     C     3.09690  3.09690  0.00000 -0.19379
       6     H     0.44355  0.44355  0.00000  0.11291
       7     H     0.43497  0.43497  0.00000  0.13006
       8     C     3.08739  3.08739  0.00000 -0.17478
       9     H     0.44089  0.44089  0.00000  0.11822
      10     H     0.44640  0.44640  0.00000  0.10720
      11     C     3.08906  3.08906  0.00000 -0.17812
      12     H     0.45008  0.45008  0.00000  0.09983
      13     H     0.45755  0.45755  0.00000  0.08491
      14     C     3.08380  3.08380  0.00000 -0.16760
      15     H     0.45144  0.45144  0.00000  0.09712
      16     H     0.45664  0.45664  0.00000  0.08671
      17     C     3.15052  3.15052  0.00000 -0.30103
      18     H     0.45378  0.45378  0.00000  0.09244
      19     H     0.45605  0.45605  0.00000  0.08789
      20     H     0.45437  0.45437  0.00000  0.09126
      21     H     0.44881  0.44881  0.00000  0.10238
      22     H     0.45583  0.45583  0.00000  0.08833
      23     H     0.45030  0.45030  0.00000  0.09939
      24     H     0.43550  0.43550  0.00000  0.12899
      25     H     0.44892  0.44892  0.00000  0.10217

   Total alpha = 36.00000, Total beta = 36.00000, Total charge =  0.00000

*** Psi4 exiting successfully. Buy a developer a beer!
