                              Psi4 1.0.54 Driver

  ==> Input File <==

--------------------------------------------------------------------------
set {
	reference rhf
	basis cc-pvtz
}

set_num_threads( 4 )
memory 2 gb

molecule MOL {
0 1

H	 2.646708	 0.758099	 0.000000
O	 2.258158	 -0.097743	 0.000000
C	 0.911162	 -0.015915	 0.000000
C	 0.345220	 1.230288	 -0.213284
C	 0.102469	 -1.118348	 0.202677
H	 0.987961	 2.074226	 -0.368691
C	 -1.026516	 1.361977	 -0.221795
H	 0.541534	 -2.085546	 0.368212
C	 -1.273284	 -0.971253	 0.191498
H	 -1.459540	 2.330176	 -0.387571
C	 -1.847333	 0.264752	 -0.019905
H	 -1.894012	 -1.832637	 0.349740
H	 -2.913946	 0.375064	 -0.027916

	symmetry c1
}
set optking {
	frozen_dihedral = ("
		4 3 2 1
	")
}

ee,wfn = optimize('scf', return_wfn=True)
oeprop( wfn, 'DIPOLE', 'QUADRUPOLE', 'MULLIKEN_CHARGES')
f=open( 'psi4out.xyz', 'w' )
f.write( "13  " )
f.write( str(ee) + "\n" )
f.write( MOL.save_string_xyz() )
f.close()
--------------------------------------------------------------------------

    Molecular point group: c1
  Charge       = 0
  Multiplicity = 1
  Basis Set: CC-PVTZ
  Basis Set:
  @DF-RHF Final Energy:  -305.66844930175392
    Total Energy =                       -305.6684493017540944
    Molecular point group: c1
  Basis Set: CC-PVTZ
  Basis Set:
  Basis Set: CC-PVTZ
  Basis Set:
  @DF-RHF Final Energy:  -305.67023630442782
    Total Energy =                       -305.6702363044277035
  Basis Set: CC-PVTZ
  Basis Set:
  Basis Set: CC-PVTZ
  Basis Set:
  @DF-RHF Final Energy:  -305.67039871330849
    Total Energy =                       -305.6703987133084865
  Basis Set: CC-PVTZ
  Basis Set:
  Basis Set: CC-PVTZ
  Basis Set:
  @DF-RHF Final Energy:  -305.67042013107971
    Total Energy =                       -305.6704201310797089
  Basis Set: CC-PVTZ
  Basis Set:
  Basis Set: CC-PVTZ
  Basis Set:
  @DF-RHF Final Energy:  -305.67042401546593
    Total Energy =                       -305.6704240154655281
  Basis Set: CC-PVTZ
  Basis Set:
  Charge       = 0
  Multiplicity = 1
  Basis Set: CC-PVTZ
  Basis Set:

    Orbital Energies (a.u.)
    -----------------------

    Doubly Occupied:

       1A    -20.584734     2A    -11.297500     3A    -11.235223
       4A    -11.233420     5A    -11.226166     6A    -11.220603
       7A    -11.219525     8A     -1.415377     9A     -1.152664
      10A     -1.022810    11A     -1.008383    12A     -0.851212
      13A     -0.826749    14A     -0.741575    15A     -0.688286
      16A     -0.654823    17A     -0.612977    18A     -0.596537
      19A     -0.592055    20A     -0.566673    21A     -0.517565
      22A     -0.493072    23A     -0.485328    24A     -0.343224
      25A     -0.314946

  @DF-RHF Final Energy:  -305.67042435097312

   => Energetics <=

    Nuclear Repulsion Energy =            273.8306124744552790
    One-Electron Energy =                -957.1992199829740002
    Two-Electron Energy =                 377.6981831575453725
    DFT Exchange-Correlation Energy =       0.0000000000000000
    Empirical Dispersion Energy =           0.0000000000000000
    PCM Polarization Energy =               0.0000000000000000
    EFP Energy =                            0.0000000000000000
    Total Energy =                       -305.6704243509733487
    Molecular point group: c1
  Basis Set: CC-PVTZ
  Basis Set:

  -Total Gradient:
     Atom            X                  Y                   Z
    ------   -----------------  -----------------  -----------------
       1        0.000004910705     0.000012296279     0.000910948681
       2        0.000000827952    -0.000073720757    -0.001562349833
       3        0.000079475376     0.000200322621     0.001416090859
       4       -0.000022625557    -0.000099523242    -0.000715349011
       5       -0.000096172195    -0.000005854962    -0.000030759207
       6        0.000005789014     0.000001267357    -0.000002648214
       7        0.000012047283     0.000009456643    -0.000020421779
       8        0.000003866375     0.000001107945     0.000003337837
       9        0.000015223352    -0.000013091119    -0.000044998126
      10       -0.000004369876    -0.000004722334     0.000001895894
      11        0.000003647566    -0.000025923999     0.000033819854
      12       -0.000001655577    -0.000002882802     0.000010213361
      13       -0.000000964418     0.000001268371     0.000000219684

  **** Optimization is complete! (in 6 steps) ****
    Final optimized geometry and variables:
    Molecular point group: c1

    Geometry (in Angstrom), charge = 0, multiplicity = 1:

    H            2.694687918691     0.565373414483     0.011686824082
    O            2.245406155614    -0.260276203992     0.017829213493
    C            0.907636466220    -0.081218951609     0.010539988619
    C            0.328170942782     1.155056844737    -0.206705474694
    C            0.110193186556    -1.195658575570     0.210422686667
    H            0.947288656662     2.018574886354    -0.369978640127
    C           -1.049924176242     1.274748925090    -0.214827515365
    H            0.576527261938    -2.147060083192     0.374567045616
    C           -1.261666241268    -1.062553348856     0.195254073622
    H           -1.491735589516     2.238724833017    -0.381862334292
    C           -1.853544186060     0.171443722093    -0.015245404912
    H           -1.874505014594    -1.930014559417     0.351411836673
    H           -2.921542704099     0.267744338364    -0.023963291303

  Mulliken Charges: (a.u.)
   Center  Symbol    Alpha    Beta     Spin     Total
       1     H     0.38727  0.38727  0.00000  0.22547
       2     O     4.17531  4.17531  0.00000 -0.35062
       3     C     2.85005  2.85005  0.00000  0.29989
       4     C     3.13372  3.13372  0.00000 -0.26743
       5     C     3.11101  3.11101  0.00000 -0.22202
       6     H     0.43460  0.43460  0.00000  0.13081
       7     C     3.06479  3.06479  0.00000 -0.12958
       8     H     0.41943  0.41943  0.00000  0.16113
       9     C     3.05664  3.05664  0.00000 -0.11327
      10     H     0.42237  0.42237  0.00000  0.15525
      11     C     3.09848  3.09848  0.00000 -0.19695
      12     H     0.42242  0.42242  0.00000  0.15516
      13     H     0.42392  0.42392  0.00000  0.15216

   Total alpha = 25.00000, Total beta = 25.00000, Total charge =  0.00000

*** Psi4 exiting successfully. Buy a developer a beer!
