  ==> Input File <==

--------------------------------------------------------------------------
set {
	reference rhf
	basis 6-31G*
}

set_num_threads( 4 )
memory 2 gb

molecule MOL {
0 1

H	 -2.653334	 1.905510	 -0.940715
C	 -1.910779	 1.293682	 -0.466437
C	 -2.076860	 -0.007332	 -0.404944
H	 -1.042577	 1.769489	 -0.050812
O	 -1.180634	 -0.819263	 0.215062
H	 -2.935525	 -0.503902	 -0.821247
C	 0.051604	 -1.018856	 -0.387932
C	 1.043764	 0.054862	 -0.001873
H	 -0.017620	 -1.041351	 -1.469781
H	 0.437898	 -1.966374	 -0.042284
F	 2.212596	 -0.199467	 -0.571921
F	 0.652529	 1.252447	 -0.405055
F	 1.230877	 0.110694	 1.300533

	symmetry c1
}
set optking {
	frozen_dihedral = ("
		6 3 5 7
	")
}

ee = optimize('scf')
oeprop('DIPOLE', 'QUADRUPOLE', 'MULLIKEN_CHARGES')
f=open( 'psi4out.xyz', 'w' )
f.write( "13  " )
f.write( str(ee) + "\n" )
f.write( MOL.save_string_xyz() )
f.close()
--------------------------------------------------------------------------

    Molecular point group: c1
  Charge       = 0
  Multiplicity = 1
  Basis Set: 6-31G*
  Basis Set:
  @DF-RHF Final Energy:  -527.51732730603590
    Total Energy =                       -527.5173273060356678
    Molecular point group: c1
  Basis Set: 6-31G*
  Basis Set:
  Basis Set: 6-31G*
  Basis Set:
  @DF-RHF Final Energy:  -527.52558070372891
    Total Energy =                       -527.5255807037293607
  Basis Set: 6-31G*
  Basis Set:
  Basis Set: 6-31G*
  Basis Set:
  @DF-RHF Final Energy:  -527.52783015926957
    Total Energy =                       -527.5278301592697972
  Basis Set: 6-31G*
  Basis Set:
  Basis Set: 6-31G*
  Basis Set:
  @DF-RHF Final Energy:  -527.52938907077078
    Total Energy =                       -527.5293890707705486
  Basis Set: 6-31G*
  Basis Set:
  @DF-RHF Final Energy:  -527.53086887030145
    Total Energy =                       -527.5308688703012194
  @DF-RHF Final Energy:  -527.53144702626196
    Total Energy =                       -527.5314470262617306
  @DF-RHF Final Energy:  -527.53165694907989
    Total Energy =                       -527.5316569490800021
  @DF-RHF Final Energy:  -527.53171367203345
    Total Energy =                       -527.5317136720332201
  Basis Set: 6-31G*
  Basis Set:
  @DF-RHF Final Energy:  -527.53172868529919
    Total Energy =                       -527.5317286852991856
  Basis Set: 6-31G*
  Basis Set:
  Basis Set: 6-31G*
  Basis Set:
  @DF-RHF Final Energy:  -527.53173194278804
    Total Energy =                       -527.5317319427874736
  Basis Set: 6-31G*
  Basis Set:
  Basis Set: 6-31G*
  Basis Set:
  @DF-RHF Final Energy:  -527.53173296545469
    Total Energy =                       -527.5317329654549212
  Basis Set: 6-31G*
  Basis Set:
  Charge       = 0
  Multiplicity = 1
  Basis Set: 6-31G*
  Basis Set:

    Orbital Energies (a.u.)
    -----------------------

    Doubly Occupied:

       1A    -26.340478     2A    -26.339781     3A    -26.336357
       4A    -20.597310     5A    -11.499304     6A    -11.313676
       7A    -11.298259     8A    -11.228346     9A     -1.737579
      10A     -1.635580    11A     -1.634000    12A     -1.426083
      13A     -1.079201    14A     -1.020402    15A     -0.924807
      16A     -0.833503    17A     -0.827606    18A     -0.809495
      19A     -0.783745    20A     -0.722908    21A     -0.707547
      22A     -0.695399    23A     -0.670774    24A     -0.657926
      25A     -0.652678    26A     -0.639059    27A     -0.631243
      28A     -0.602480    29A     -0.559041    30A     -0.528255
      31A     -0.467040    32A     -0.374984

  @DF-RHF Final Energy:  -527.53173336741020

   => Energetics <=

    Nuclear Repulsion Energy =            415.1909408723149113
    One-Electron Energy =               -1554.2956628791810090
    Two-Electron Energy =                 611.5729886394557298
    DFT Exchange-Correlation Energy =       0.0000000000000000
    Empirical Dispersion Energy =           0.0000000000000000
    PCM Polarization Energy =               0.0000000000000000
    EFP Energy =                            0.0000000000000000
    Total Energy =                       -527.5317333674103111
    Molecular point group: c1
  Basis Set: 6-31G*
  Basis Set:

  -Total Gradient:
     Atom            X                  Y                   Z
    ------   -----------------  -----------------  -----------------
       1       -0.000007967035    -0.000002632765    -0.000002993064
       2        0.000023531814     0.000003731934     0.000005444111
       3       -0.000686273782     0.000013101114     0.001366341445
       4        0.000000299491    -0.000005955289    -0.000001269421
       5        0.000667874959     0.001272848131    -0.000053556350
       6        0.000421227784    -0.000383092424    -0.001108199413
       7       -0.000374627283    -0.000911409613    -0.000223888478
       8       -0.000063789133     0.000047500888    -0.000055098933
       9       -0.000008271210    -0.000007240217     0.000005189407
      10       -0.000008571159    -0.000001692594     0.000012960840
      11       -0.000009114639     0.000006815950     0.000018095181
      12        0.000028638565    -0.000019322133     0.000018175459
      13        0.000017041629    -0.000012652980     0.000018799218

  **** Optimization is complete! (in 12 steps) ****
    Final optimized geometry and variables:
    Molecular point group: c1

    Geometry (in Angstrom), charge = 0, multiplicity = 1:

    H           -3.316605968992     1.629703131015    -1.196583550055
    C           -2.429867684523     1.243362929220    -0.730857239632
    C           -2.404169383563     0.001455758082    -0.302873882286
    H           -1.587038119086     1.899917102306    -0.624409839279
    O           -1.334014350246    -0.581630146021     0.314728916808
    H           -3.246943115030    -0.660610358142    -0.390870588038
    C           -0.200043039483    -0.876169540714    -0.438916054084
    C            0.989621687662    -0.125616974295     0.109996331853
    H           -0.320611534222    -0.602249392101    -1.478072133666
    H            0.017734869579    -1.934132542259    -0.368364231385
    F            2.070330497110    -0.442608396573    -0.589654688701
    F            0.831669701960     1.184670327119     0.028778999557
    F            1.224165470838    -0.423534756351     1.371880933544

  Mulliken Charges: (a.u.)
   Center  Symbol    Alpha    Beta     Spin     Total
       1     H     0.40522  0.40522  0.00000  0.18956
       2     C     3.22109  3.22109  0.00000 -0.44218
       3     C     2.91343  2.91343  0.00000  0.17314
       4     H     0.39646  0.39646  0.00000  0.20708
       5     O     4.31201  4.31201  0.00000 -0.62401
       6     H     0.40505  0.40505  0.00000  0.18990
       7     C     3.04990  3.04990  0.00000 -0.09979
       8     C     2.45456  2.45456  0.00000  1.09087
       9     H     0.40299  0.40299  0.00000  0.19402
      10     H     0.39982  0.39982  0.00000  0.20036
      11     F     4.68400  4.68400  0.00000 -0.36800
      12     F     4.67950  4.67950  0.00000 -0.35901
      13     F     4.67596  4.67596  0.00000 -0.35192

   Total alpha = 32.00000, Total beta = 32.00000, Total charge =  0.00000
