                              Psi4 1.0.54 Driver

  ==> Input File <==

--------------------------------------------------------------------------
set {
	reference rhf
	basis cc-pvtz
}

set_num_threads( 4 )
memory 2 gb

molecule MOL {
0 1

O	 2.642723	 -0.166726	 0.661965
C	 1.704209	 0.119472	 -0.000093
C	 0.380337	 -0.600947	 -0.000234
O	 1.698129	 1.135923	 -0.846974
C	 -0.824290	 0.329213	 -0.000115
H	 0.371455	 -1.255476	 -0.865660
H	 0.371410	 -1.255787	 0.864952
C	 -2.146151	 -0.432825	 -0.000068
H	 -0.773936	 0.979158	 -0.866319
H	 -0.773838	 0.979034	 0.866186
C	 -3.366283	 0.483552	 0.000557
H	 -2.189286	 -1.084450	 -0.869996
H	 -2.188867	 -1.085083	 0.869399
C	 -4.687436	 -0.278003	 0.000108
H	 -3.325150	 1.134819	 -0.867957
H	 -3.325087	 1.133730	 0.869885
H	 -4.773783	 -0.912098	 -0.876078
H	 -5.531922	 0.401392	 0.000363
H	 -4.773901	 -0.912898	 0.875703
C	 2.880900	 1.902723	 -0.948930
H	 3.128830	 2.349555	 0.002429
H	 2.676461	 2.669598	 -1.678282
H	 3.706720	 1.288237	 -1.275493

	symmetry c1
}
set optking {
	frozen_dihedral = ("
		1 2 3 6
	")
}

ee,wfn = optimize('scf', return_wfn=True)
oeprop( wfn, 'DIPOLE', 'QUADRUPOLE', 'MULLIKEN_CHARGES')
f=open( 'psi4out.xyz', 'w' )
f.write( "23  " )
f.write( str(ee) + "\n" )
f.write( MOL.save_string_xyz() )
f.close()
--------------------------------------------------------------------------

    Molecular point group: c1
  Charge       = 0
  Multiplicity = 1
  Basis Set: CC-PVTZ
  Basis Set:
  @DF-RHF Final Energy:  -423.12892222450836
    Total Energy =                       -423.1289222245088695
    Molecular point group: c1
  Basis Set: CC-PVTZ
  Basis Set:
  Basis Set: CC-PVTZ
  Basis Set:
  @DF-RHF Final Energy:  -422.23437692527955
    Total Energy =                       -422.2343769252795482
  Basis Set: CC-PVTZ
  Basis Set:
  Basis Set: CC-PVTZ
  Basis Set:
  @DF-RHF Final Energy:  -422.48400015844908
    Total Energy =                       -422.4840001584492484
  Basis Set: CC-PVTZ
  Basis Set:
  Basis Set: CC-PVTZ
  Basis Set:
  @DF-RHF Final Energy:  -422.86653243119906
    Total Energy =                       -422.8665324311991753
  Basis Set: CC-PVTZ
  Basis Set:
  @DF-RHF Final Energy:  -423.06817485730272
    Total Energy =                       -423.0681748573027789
  @DF-RHF Final Energy:  -423.12513678148775
    Total Energy =                       -423.1251367814875266
  @DF-RHF Final Energy:  -423.12778451274210
    Total Energy =                       -423.1277845127418686
  Basis Set: CC-PVTZ
  Basis Set:
  @DF-RHF Final Energy:  -423.12927667283367
    Total Energy =                       -423.1292766728333845
  Basis Set: CC-PVTZ
  Basis Set:
  Basis Set: CC-PVTZ
  Basis Set:
  @DF-RHF Final Energy:  -423.12939319008234
    Total Energy =                       -423.1293931900825100
  Basis Set: CC-PVTZ
  Basis Set:
  Basis Set: CC-PVTZ
  Basis Set:
  @DF-RHF Final Energy:  -423.12940627510972
    Total Energy =                       -423.1294062751100000
  Basis Set: CC-PVTZ
  Basis Set:
  Charge       = 0
  Multiplicity = 1
  Basis Set: CC-PVTZ
  Basis Set:

    Orbital Energies (a.u.)
    -----------------------

    Doubly Occupied:

       1A    -20.597457     2A    -20.531868     3A    -11.363879
       4A    -11.278819     5A    -11.233174     6A    -11.224146
       7A    -11.218961     8A    -11.217746     9A    -11.210033
      10A     -1.472329    11A     -1.364361    12A     -1.097925
      13A     -1.046427    14A     -0.984447    15A     -0.936275
      16A     -0.848820    17A     -0.798466    18A     -0.775859
      19A     -0.695307    20A     -0.684662    21A     -0.675790
      22A     -0.655163    23A     -0.610216    24A     -0.593986
      25A     -0.579637    26A     -0.568553    27A     -0.551001
      28A     -0.528340    29A     -0.525199    30A     -0.507358
      31A     -0.489882    32A     -0.479678    33A     -0.471117
      34A     -0.469274    35A     -0.458607    36A     -0.429275

  @DF-RHF Final Energy:  -423.12941061641641

   => Energetics <=

    Nuclear Repulsion Energy =            455.7121179678865701
    One-Electron Energy =               -1479.3349827314705180
    Two-Electron Energy =                 600.4934541471673128
    DFT Exchange-Correlation Energy =       0.0000000000000000
    Empirical Dispersion Energy =           0.0000000000000000
    PCM Polarization Energy =               0.0000000000000000
    EFP Energy =                            0.0000000000000000
    Total Energy =                       -423.1294106164166351
    Molecular point group: c1
  Basis Set: CC-PVTZ
  Basis Set:

  -Total Gradient:
     Atom            X                  Y                   Z
    ------   -----------------  -----------------  -----------------
       1        0.000370930714    -0.000702105238    -0.000272279553
       2       -0.000561833082     0.000924822868     0.000596518371
       3       -0.000044369986    -0.000039198533    -0.000980515986
       4        0.000076635157     0.000079116170    -0.000095259660
       5       -0.000062342727    -0.000045957387    -0.000016054971
       6        0.000195003740    -0.000183796454     0.000736727573
       7        0.000011053363    -0.000004189884     0.000003422673
       8        0.000011328350     0.000032872720    -0.000022081574
       9        0.000015141080    -0.000003435360    -0.000035037903
      10        0.000013344847     0.000016233450     0.000027783741
      11       -0.000016821730    -0.000028571752     0.000028727099
      12        0.000002267544    -0.000031170555    -0.000008773890
      13       -0.000006682136     0.000002479381     0.000032647889
      14        0.000032603791     0.000023863065    -0.000016773880
      15        0.000007646204    -0.000003337037    -0.000026853297
      16       -0.000005299746     0.000033139277     0.000009914327
      17       -0.000004688869    -0.000013325600    -0.000005327377
      18        0.000020698873    -0.000005496874     0.000004293419
      19       -0.000007525945    -0.000000263642     0.000019128321
      20       -0.000042826807    -0.000081448360     0.000006267139
      21       -0.000017393082     0.000022608163     0.000030565360
      22        0.000002540594     0.000016985572    -0.000034711608
      23        0.000010589845    -0.000009823990     0.000017673787

  **** Optimization is complete! (in 11 steps) ****
    Final optimized geometry and variables:
    Molecular point group: c1

    Geometry (in Angstrom), charge = 0, multiplicity = 1:

    O            2.510655194388     0.434315183745     1.446318010318
    C            1.775192230750     0.195711602185     0.549326202790
    C            0.476136323153    -0.556297624478     0.694179736155
    O            2.032706728946     0.533346306974    -0.702927933601
    C           -0.700618992274     0.019275104480    -0.092157323765
    H            0.672333436563    -1.576952070929     0.377464912208
    H            0.258079422317    -0.590207888470     1.752292232778
    C           -1.989119429594    -0.762227018002     0.146654683584
    H           -0.464114106927     0.021952198261    -1.148833433064
    H           -0.849920319607     1.056575695389     0.194446505994
    C           -3.181467840420    -0.203643280910    -0.624460990418
    H           -1.836027727521    -1.801714897722    -0.134390649082
    H           -2.219266394534    -0.765281017890     1.209266369482
    C           -4.467763435216    -0.987295756772    -0.386611836626
    H           -2.952049625323    -0.201023324272    -1.686447558912
    H           -3.335186879847     0.834668861711    -0.343692054214
    H           -4.357099372655    -2.023014392794    -0.690192654105
    H           -5.293476292343    -0.565226179776    -0.947568013255
    H           -4.742701890651    -0.979324654610     0.662869079994
    C            3.247506845304     1.210368645967    -0.954728914525
    H            3.283849445676     2.142148209875    -0.410236495957
    H            3.269376229262     1.397851037104    -2.016070325073
    H            4.090403211661     0.600350482229    -0.665686245459

  Mulliken Charges: (a.u.)
   Center  Symbol    Alpha    Beta     Spin     Total
       1     O     4.20010  4.20010  0.00000 -0.40020
       2     C     2.81432  2.81432  0.00000  0.37135
       3     C     3.07995  3.07995  0.00000 -0.15989
       4     O     4.14668  4.14668  0.00000 -0.29336
       5     C     3.09563  3.09563  0.00000 -0.19126
       6     H     0.44670  0.44670  0.00000  0.10660
       7     H     0.43625  0.43625  0.00000  0.12751
       8     C     3.09125  3.09125  0.00000 -0.18251
       9     H     0.44276  0.44276  0.00000  0.11448
      10     H     0.45038  0.45038  0.00000  0.09925
      11     C     3.08383  3.08383  0.00000 -0.16767
      12     H     0.45436  0.45436  0.00000  0.09128
      13     H     0.45297  0.45297  0.00000  0.09405
      14     C     3.15036  3.15036  0.00000 -0.30073
      15     H     0.45385  0.45385  0.00000  0.09229
      16     H     0.45371  0.45371  0.00000  0.09258
      17     H     0.45493  0.45493  0.00000  0.09015
      18     H     0.44771  0.44771  0.00000  0.10458
      19     H     0.45461  0.45461  0.00000  0.09079
      20     C     3.03637  3.03637  0.00000 -0.07274
      21     H     0.45387  0.45387  0.00000  0.09226
      22     H     0.44614  0.44614  0.00000  0.10771
      23     H     0.45326  0.45326  0.00000  0.09349

   Total alpha = 36.00000, Total beta = 36.00000, Total charge = -0.00000

*** Psi4 exiting successfully. Buy a developer a beer!
