  ==> Input File <==

--------------------------------------------------------------------------
set {
	reference rhf
	basis 6-31G*
}

set_num_threads( 1 )
memory 2 gb

molecule MOL {
0 1

O	 0.064562	 -1.269062	 -1.332285
C	 0.873870	 -1.233815	 -0.462320
C	 1.245376	 -0.013843	 0.345420
O	 1.574527	 -2.294085	 -0.079519
C	 0.455112	 1.231400	 -0.050772
H	 1.105063	 -0.269272	 1.390532
H	 2.313470	 0.144138	 0.219274
C	 -0.998893	 1.219485	 0.433193
H	 0.482531	 1.345121	 -1.130325
H	 0.957290	 2.103070	 0.354729
C	 -1.883438	 0.145884	 -0.207175
H	 -1.431207	 2.195402	 0.224832
H	 -1.019646	 1.105716	 1.516076
C	 -3.347647	 0.245583	 0.225435
H	 -1.822183	 0.231698	 -1.291012
H	 -1.510341	 -0.844814	 0.042401
C	 -4.239992	 -0.825570	 -0.404234
H	 -3.732888	 1.230466	 -0.033079
H	 -3.408585	 0.170602	 1.310038
C	 -5.701275	 -0.716658	 0.029921
H	 -4.179496	 -0.752714	 -1.488058
H	 -3.859041	 -1.810759	 -0.143352
H	 -6.308102	 -1.488908	 -0.432678
H	 -6.122175	 0.245478	 -0.248167
H	 -5.799072	 -0.820114	 1.106957
C	 1.323813	 -3.509942	 -0.760490
H	 0.292613	 -3.808507	 -0.638058
H	 1.980091	 -4.239828	 -0.312637
H	 1.541146	 -3.407445	 -1.813960

	symmetry c1
}
set optking {
	frozen_dihedral = ("
		21 17 14 11,
		17 14 11 15,
		15 11 8 5,
		11 8 5 9,
		2 4 26 27,
		1 2 4 26,
		6 3 2 1
	")
}

ee = energy('scf')
oeprop('DIPOLE', 'QUADRUPOLE', 'MULLIKEN_CHARGES')
f=open( 'psi4out.xyz', 'w' )
f.write( "29  " )
f.write( str(ee) + "\n" )
f.write( MOL.save_string_xyz() )
f.close()
--------------------------------------------------------------------------

    Molecular point group: c1

    Geometry (in Angstrom), charge = 0, multiplicity = 1:

       Center              X                  Y                   Z               Mass
    ------------   -----------------  -----------------  -----------------  -----------------
           O          1.024648655601    -0.591012285439    -1.116190765258    15.994914619560
           C          1.833956655601    -0.555765285439    -0.246225765258    12.000000000000
           C          2.205462655601     0.664206714561     0.561514234742    12.000000000000
           O          2.534613655601    -1.616035285439     0.136575234742    15.994914619560
           C          1.415198655601     1.909449714561     0.165322234742    12.000000000000
           H          2.065149655601     0.408777714561     1.606626234742     1.007825032070
           H          3.273556655601     0.822187714561     0.435368234742     1.007825032070
           C         -0.038806344399     1.897534714561     0.649287234742    12.000000000000
           H          1.442617655601     2.023170714561    -0.914230765258     1.007825032070
           H          1.917376655601     2.781119714561     0.570823234742     1.007825032070
           C         -0.923351344399     0.823933714561     0.008919234742    12.000000000000
           H         -0.471120344399     2.873451714561     0.440926234742     1.007825032070
           H         -0.059559344399     1.783765714561     1.732170234742     1.007825032070
           C         -2.387560344399     0.923632714561     0.441529234742    12.000000000000
           H         -0.862096344399     0.909747714561    -1.074917765258     1.007825032070
           H         -0.550254344399    -0.166764285439     0.258495234742     1.007825032070
           C         -3.279905344399    -0.147520285439    -0.188139765258    12.000000000000
           H         -2.772801344399     1.908515714561     0.183015234742     1.007825032070
           H         -2.448498344399     0.848651714561     1.526132234742     1.007825032070
           C         -4.741188344399    -0.038608285439     0.246015234742    12.000000000000
           H         -3.219409344399    -0.074664285439    -1.271963765258     1.007825032070
           H         -2.898954344399    -1.132709285439     0.072742234742     1.007825032070
           H         -5.348015344399    -0.810858285439    -0.216583765258     1.007825032070
           H         -5.162088344399     0.923527714561    -0.032072765258     1.007825032070
           H         -4.838985344399    -0.142064285439     1.323051234742     1.007825032070
           C          2.283899655601    -2.831892285439    -0.544395765258    12.000000000000
           H          1.252699655601    -3.130457285439    -0.421963765258     1.007825032070
           H          2.940177655601    -3.561778285439    -0.096542765258     1.007825032070
           H          2.501232655601    -2.729395285439    -1.597865765258     1.007825032070

  Charge       = 0
  Multiplicity = 1
  Basis Set: 6-31G*
  Basis Set:

    Orbital Energies (a.u.)
    -----------------------

    Doubly Occupied:

       1A    -20.605573     2A    -20.545446     3A    -11.373605
       4A    -11.282453     5A    -11.236533     6A    -11.220038
       7A    -11.210180     8A    -11.205258     9A    -11.201250
      10A    -11.200670    11A    -11.194141    12A     -1.471930
      13A     -1.366409    14A     -1.091779    15A     -1.060172
      16A     -1.014110    17A     -0.973911    18A     -0.923503
      19A     -0.856530    20A     -0.797027    21A     -0.782332
      22A     -0.758549    23A     -0.702730    24A     -0.685256
      25A     -0.674931    26A     -0.641910    27A     -0.618919
      28A     -0.609550    29A     -0.586306    30A     -0.571450
      31A     -0.561961    32A     -0.549104    33A     -0.531012
      34A     -0.526579    35A     -0.517905    36A     -0.504509
      37A     -0.492925    38A     -0.471035    39A     -0.466946
      40A     -0.460645    41A     -0.452736    42A     -0.439795
      43A     -0.433472    44A     -0.421578

  @DF-RHF Final Energy:  -501.03130184494512

   => Energetics <=

    Nuclear Repulsion Energy =            647.6885308714429357
    One-Electron Energy =               -1966.8545131133846553
    Two-Electron Energy =                 818.1346803969980783
    DFT Exchange-Correlation Energy =       0.0000000000000000
    Empirical Dispersion Energy =           0.0000000000000000
    PCM Polarization Energy =               0.0000000000000000
    EFP Energy =                            0.0000000000000000
    Total Energy =                       -501.0313018449436413

  Mulliken Charges: (a.u.)
   Center  Symbol    Alpha    Beta     Spin     Total
       1     O     4.28409  4.28409  0.00000 -0.56819
       2     C     2.60700  2.60700  0.00000  0.78601
       3     C     3.20733  3.20733  0.00000 -0.41466
       4     O     4.30675  4.30675  0.00000 -0.61351
       5     C     3.15754  3.15754  0.00000 -0.31509
       6     H     0.39955  0.39955  0.00000  0.20089
       7     H     0.39749  0.39749  0.00000  0.20501
       8     C     3.15713  3.15713  0.00000 -0.31425
       9     H     0.40936  0.40936  0.00000  0.18128
      10     H     0.41713  0.41713  0.00000  0.16573
      11     C     3.14419  3.14419  0.00000 -0.28838
      12     H     0.42141  0.42141  0.00000  0.15719
      13     H     0.42680  0.42680  0.00000  0.14640
      14     C     3.14953  3.14953  0.00000 -0.29905
      15     H     0.41342  0.41342  0.00000  0.17317
      16     H     0.42288  0.42288  0.00000  0.15423
      17     C     3.14963  3.14963  0.00000 -0.29925
      18     H     0.42794  0.42794  0.00000  0.14412
      19     H     0.42925  0.42925  0.00000  0.14150
      20     C     3.23875  3.23875  0.00000 -0.47750
      21     H     0.42209  0.42209  0.00000  0.15581
      22     H     0.42451  0.42451  0.00000  0.15097
      23     H     0.42100  0.42100  0.00000  0.15800
      24     H     0.42278  0.42278  0.00000  0.15444
      25     H     0.42345  0.42345  0.00000  0.15310
      26     C     3.09265  3.09265  0.00000 -0.18530
      27     H     0.40953  0.40953  0.00000  0.18093
      28     H     0.40798  0.40798  0.00000  0.18403
      29     H     0.40881  0.40881  0.00000  0.18237

   Total alpha = 44.00000, Total beta = 44.00000, Total charge =  0.00000
