  ==> Input File <==

--------------------------------------------------------------------------
set {
	reference rhf
	basis 6-31G*
}

set_num_threads( 4 )
memory 2 gb

molecule MOL {
0 1

H	 1.500945	 1.309663	 -1.906374
O	 0.632125	 1.126781	 -1.578922
C	 0.702312	 0.627605	 -0.264544
C	 -0.714990	 0.596302	 0.266387
H	 1.309662	 1.276116	 0.361088
H	 1.132223	 -0.371630	 -0.249351
O	 -1.405996	 -0.526611	 -0.195820
H	 -1.257453	 1.468809	 -0.075599
H	 -0.688972	 0.618407	 1.353696
H	 -0.890587	 -1.292708	 0.022039

	symmetry c1
}
set optking {
	frozen_dihedral = ("
		5 3 4 7
	")
}

ee = optimize('scf')
oeprop('DIPOLE', 'QUADRUPOLE', 'MULLIKEN_CHARGES')
f=open( 'psi4out.xyz', 'w' )
f.write( "10  " )
f.write( str(ee) + "\n" )
f.write( MOL.save_string_xyz() )
f.close()
--------------------------------------------------------------------------

    Molecular point group: c1
  Charge       = 0
  Multiplicity = 1
  Basis Set: 6-31G*
  Basis Set:
  @DF-RHF Final Energy:  -228.91644254603375
    Total Energy =                       -228.9164425460338350
    Molecular point group: c1
  Basis Set: 6-31G*
  Basis Set:
  Basis Set: 6-31G*
  Basis Set:
  @DF-RHF Final Energy:  -228.91762092568027
    Total Energy =                       -228.9176209256802395
  Basis Set: 6-31G*
  Basis Set:
  Basis Set: 6-31G*
  Basis Set:
  @DF-RHF Final Energy:  -228.91796900278158
    Total Energy =                       -228.9179690027815468
  Basis Set: 6-31G*
  Basis Set:
  Basis Set: 6-31G*
  Basis Set:
  @DF-RHF Final Energy:  -228.91799189445666
    Total Energy =                       -228.9179918944566907
  Basis Set: 6-31G*
  Basis Set:
  Basis Set: 6-31G*
  Basis Set:
  @DF-RHF Final Energy:  -228.91802535097261
    Total Energy =                       -228.9180253509725844
  Basis Set: 6-31G*
  Basis Set:
  Basis Set: 6-31G*
  Basis Set:
  @DF-RHF Final Energy:  -228.91803928598600
    Total Energy =                       -228.9180392859859126
  Basis Set: 6-31G*
  Basis Set:
  Charge       = 0
  Multiplicity = 1
  Basis Set: 6-31G*
  Basis Set:

    Orbital Energies (a.u.)
    -----------------------

    Doubly Occupied:

       1A    -20.559048     2A    -20.554018     3A    -11.276176
       4A    -11.270302     5A     -1.374526     6A     -1.355147
       7A     -1.001631     8A     -0.845973     9A     -0.720201
      10A     -0.679832    11A     -0.652469    12A     -0.596653
      13A     -0.573398    14A     -0.536783    15A     -0.482445
      16A     -0.445366    17A     -0.435707

  @DF-RHF Final Energy:  -228.91803998739934

   => Energetics <=

    Nuclear Repulsion Energy =            132.7838122251974653
    One-Electron Energy =                -576.6843562058575117
    Two-Electron Energy =                 214.9825039932606501
    DFT Exchange-Correlation Energy =       0.0000000000000000
    Empirical Dispersion Energy =           0.0000000000000000
    PCM Polarization Energy =               0.0000000000000000
    EFP Energy =                            0.0000000000000000
    Total Energy =                       -228.9180399873993679
    Molecular point group: c1
  Basis Set: 6-31G*
  Basis Set:

  -Total Gradient:
     Atom            X                  Y                   Z
    ------   -----------------  -----------------  -----------------
       1       -0.000008029552    -0.000003672395    -0.000005991924
       2        0.000017047904    -0.000039246681     0.000097975314
       3       -0.000781660085     0.002726007743    -0.001466503323
       4       -0.001008269714     0.001310061769    -0.002313209810
       5        0.000870377220    -0.002572247830     0.001712446001
       6        0.000017354138    -0.000017095391     0.000003417084
       7        0.000866005122    -0.001418605335     0.001978408388
       8        0.000006220837     0.000019784481     0.000005684176
       9        0.000020679886     0.000007361748    -0.000000063584
      10        0.000000274244    -0.000012348108    -0.000012162321

  **** Optimization is complete! (in 7 steps) ****
    Final optimized geometry and variables:
    Molecular point group: c1

    Geometry (in Angstrom), charge = 0, multiplicity = 1:

    H            1.705974121032     0.722785495111    -1.479850956286
    O            0.839423428563     0.737917678890    -1.099459062032
    C            0.881001424031     0.225993826485     0.200876632933
    C           -0.534049119743     0.110490288555     0.738567908567
    H            1.467367871693     0.860216501406     0.865048428720
    H            1.347596584673    -0.759885847027     0.217734631474
    O           -1.232492722516    -0.996486656643     0.241791945459
    H           -1.094551987407     0.987858404249     0.448406503296
    H           -0.495914362589     0.079670905580     1.826777317055
    H           -0.823278937587    -1.793426856061     0.547878395975

  Mulliken Charges: (a.u.)
   Center  Symbol    Alpha    Beta     Spin     Total
       1     H     0.27954  0.27954  0.00000  0.44092
       2     O     4.36347  4.36347  0.00000 -0.72693
       3     C     3.00389  3.00389  0.00000 -0.00779
       4     C     3.00174  3.00174  0.00000 -0.00348
       5     H     0.43119  0.43119  0.00000  0.13762
       6     H     0.43678  0.43678  0.00000  0.12643
       7     O     4.36422  4.36422  0.00000 -0.72844
       8     H     0.40383  0.40383  0.00000  0.19234
       9     H     0.43161  0.43161  0.00000  0.13678
      10     H     0.28373  0.28373  0.00000  0.43254

   Total alpha = 17.00000, Total beta = 17.00000, Total charge = -0.00000
