  ==> Input File <==

--------------------------------------------------------------------------
set {
	reference rhf
	basis cc-pvtz
}

set_num_threads( 4 )
memory 2 gb

molecule MOL {
0 1

O	 1.847685	 1.294399	 -0.000190
C	 1.704209	 0.119472	 -0.000093
C	 0.380337	 -0.600947	 -0.000234
O	 2.715427	 -0.733672	 0.000025
C	 -0.824290	 0.329213	 -0.000115
H	 0.371455	 -1.255476	 -0.865660
H	 0.371410	 -1.255787	 0.864952
C	 -2.146151	 -0.432825	 -0.000068
H	 -0.773936	 0.979158	 -0.866319
H	 -0.773838	 0.979034	 0.866186
C	 -3.366283	 0.483552	 0.000557
H	 -2.189286	 -1.084450	 -0.869996
H	 -2.188867	 -1.085083	 0.869399
C	 -4.336816	 0.188061	 1.139048
H	 -3.885112	 0.389299	 -0.949227
H	 -3.037680	 1.516954	 0.065835
H	 -4.710355	 -0.828980	 1.081349
H	 -5.190429	 0.855325	 1.110071
H	 -3.856340	 0.307973	 2.104448
C	 4.020999	 -0.192556	 0.000019
H	 4.182809	 0.412891	 -0.879449
H	 4.692590	 -1.035653	 0.000152
H	 4.182726	 0.413087	 0.879368

	symmetry c1
}
set optking {
	frozen_dihedral = ("
		15 11 8 12
	")
}

ee = optimize('scf')
oeprop('DIPOLE', 'QUADRUPOLE', 'MULLIKEN_CHARGES')
f=open( 'psi4out.xyz', 'w' )
f.write( "23  " )
f.write( str(ee) + "\n" )
f.write( MOL.save_string_xyz() )
f.close()
--------------------------------------------------------------------------

    Molecular point group: c1
  Charge       = 0
  Multiplicity = 1
  Basis Set: CC-PVTZ
  Basis Set:
  @DF-RHF Final Energy:  -423.12538013549488
    Total Energy =                       -423.1253801354947655
    Molecular point group: c1
  Basis Set: CC-PVTZ
  Basis Set:
  Basis Set: CC-PVTZ
  Basis Set:
  @DF-RHF Final Energy:  -423.12561945169125
    Total Energy =                       -423.1256194516918185
  Basis Set: CC-PVTZ
  Basis Set:
  Basis Set: CC-PVTZ
  Basis Set:
  @DF-RHF Final Energy:  -423.12568272589641
    Total Energy =                       -423.1256827258964677
  Basis Set: CC-PVTZ
  Basis Set:
  Basis Set: CC-PVTZ
  Basis Set:
  @DF-RHF Final Energy:  -423.12550808622427
    Total Energy =                       -423.1255080862241584
  Basis Set: CC-PVTZ
  Basis Set:
  Basis Set: CC-PVTZ
  Basis Set:
  @DF-RHF Final Energy:  -423.12568684632339
    Total Energy =                       -423.1256868463231058
  Basis Set: CC-PVTZ
  Basis Set:
  Charge       = 0
  Multiplicity = 1
  Basis Set: CC-PVTZ
  Basis Set:

    Orbital Energies (a.u.)
    -----------------------

    Doubly Occupied:

       1A    -20.596294     2A    -20.534100     3A    -11.364590
       4A    -11.278472     5A    -11.233560     6A    -11.217588
       7A    -11.215616     8A    -11.214280     9A    -11.207903
      10A     -1.472190    11A     -1.365761    12A     -1.093081
      13A     -1.043153    14A     -0.987851    15A     -0.932226
      16A     -0.845464    17A     -0.794947    18A     -0.769516
      19A     -0.699016    20A     -0.686606    21A     -0.675735
      22A     -0.646395    23A     -0.613231    24A     -0.599981
      25A     -0.578915    26A     -0.566597    27A     -0.545370
      28A     -0.527100    29A     -0.523276    30A     -0.503779
      31A     -0.493208    32A     -0.469315    33A     -0.462899
      34A     -0.461091    35A     -0.456548    36A     -0.438074

  @DF-RHF Final Energy:  -423.12568712993578

   => Energetics <=

    Nuclear Repulsion Energy =            453.6922985734705094
    One-Electron Energy =               -1475.4085148518136066
    Two-Electron Energy =                 598.5905291484077679
    DFT Exchange-Correlation Energy =       0.0000000000000000
    Empirical Dispersion Energy =           0.0000000000000000
    PCM Polarization Energy =               0.0000000000000000
    EFP Energy =                            0.0000000000000000
    Total Energy =                       -423.1256871299353861
    Molecular point group: c1
  Basis Set: CC-PVTZ
  Basis Set:

  -Total Gradient:
     Atom            X                  Y                   Z
    ------   -----------------  -----------------  -----------------
       1        0.000005389940    -0.000005888476    -0.000000963850
       2        0.000001073010    -0.000014119395    -0.000001878069
       3        0.000003233230    -0.000004912510     0.000001832951
       4        0.000009436753     0.000012770381    -0.000000177702
       5       -0.000030019138    -0.000021471193     0.000008229867
       6        0.000003590786     0.000002020341     0.000001395771
       7        0.000003676217     0.000001053329    -0.000003212493
       8       -0.001159695336    -0.001519714054     0.001131695400
       9       -0.000005919052     0.000002295679     0.000003373786
      10       -0.000006976979     0.000004110458    -0.000002373300
      11        0.001233331596     0.001628023526    -0.000879553162
      12        0.000788689921     0.001043881101    -0.000818203632
      13       -0.000003375171    -0.000000274067     0.000001948452
      14        0.000008567006     0.000016813151    -0.000019898058
      15       -0.000864974261    -0.001145602519     0.000577197884
      16        0.000002638176     0.000000158234     0.000000900291
      17        0.000004455704     0.000002052078    -0.000000488144
      18       -0.000008448666     0.000004082787     0.000002219676
      19        0.000003957174    -0.000002738787    -0.000002967358
      20        0.000008445552    -0.000003609670     0.000001695044
      21       -0.000000348697    -0.000000187617    -0.000000070630
      22        0.000002788315     0.000001394051    -0.000000233995
      23        0.000000483924    -0.000000136825    -0.000000468729

  **** Optimization is complete! (in 6 steps) ****
    Final optimized geometry and variables:
    Molecular point group: c1

    Geometry (in Angstrom), charge = 0, multiplicity = 1:

    O            1.812669985835     1.239329855686    -0.132243316544
    C            1.669497953306     0.064347404150    -0.132931922988
    C            0.345769147571    -0.656321485049    -0.128955284702
    O            2.681064906227    -0.788432390265    -0.137329661870
    C           -0.858854462335     0.273318513271    -0.124394791015
    H            0.334119569708    -1.310609926267    -0.994570436087
    H            0.339827912296    -1.311609329921     0.736007171957
    C           -2.182570811500    -0.488645738142    -0.116953184244
    H           -0.813841989960     0.922437417112    -0.991647689394
    H           -0.805984903066     0.924738928336     0.740809059536
    C           -3.415979569879     0.437062534669    -0.124984952245
    H           -2.209991336636    -1.144019381640    -0.982236713459
    H           -2.214569704640    -1.134763982596     0.755479316174
    C           -4.406466761299     0.136424545258     0.996851658858
    H           -3.933463759384     0.348460142743    -1.073969330732
    H           -3.097682128127     1.471020643067    -0.046221888686
    H           -4.774827464467    -0.882029326115     0.930336255164
    H           -5.261828492170     0.801224584175     0.954983634618
    H           -3.941315962083     0.255019284698     1.970040452021
    C            3.986381040003    -0.246890085346    -0.141332691131
    H            4.144941948680     0.359655077342    -1.020652287333
    H            4.658325075503    -1.089721382565    -0.144582909996
    H            4.151119283551     0.357791147993     0.738135898983

  Mulliken Charges: (a.u.)
   Center  Symbol    Alpha    Beta     Spin     Total
       1     O     4.19696  4.19696  0.00000 -0.39392
       2     C     2.80616  2.80616  0.00000  0.38769
       3     C     3.10287  3.10287  0.00000 -0.20574
       4     O     4.14651  4.14651  0.00000 -0.29301
       5     C     3.08442  3.08442  0.00000 -0.16883
       6     H     0.44023  0.44023  0.00000  0.11953
       7     H     0.43984  0.43984  0.00000  0.12032
       8     C     3.09564  3.09564  0.00000 -0.19128
       9     H     0.44518  0.44518  0.00000  0.10964
      10     H     0.44616  0.44616  0.00000  0.10768
      11     C     3.08869  3.08869  0.00000 -0.17738
      12     H     0.45153  0.45153  0.00000  0.09695
      13     H     0.45504  0.45504  0.00000  0.08992
      14     C     3.14752  3.14752  0.00000 -0.29504
      15     H     0.45057  0.45057  0.00000  0.09886
      16     H     0.45140  0.45140  0.00000  0.09719
      17     H     0.45489  0.45489  0.00000  0.09022
      18     H     0.44917  0.44917  0.00000  0.10165
      19     H     0.45547  0.45547  0.00000  0.08906
      20     C     3.03769  3.03769  0.00000 -0.07537
      21     H     0.45436  0.45436  0.00000  0.09129
      22     H     0.44535  0.44535  0.00000  0.10930
      23     H     0.45436  0.45436  0.00000  0.09128

   Total alpha = 36.00000, Total beta = 36.00000, Total charge = -0.00000
