  ==> Input File <==

--------------------------------------------------------------------------
set {
	reference rhf
	basis cc-pvtz
}

set_num_threads( 4 )
memory 2 gb

molecule MOL {
0 1

H	 -3.941973	 0.934228	 -0.390224
C	 -3.240162	 0.342701	 0.161016
C	 -2.105997	 -0.000418	 -0.398703
H	 -3.485368	 0.047206	 1.162193
O	 -1.189946	 -0.765863	 0.237511
H	 -1.846458	 0.297311	 -1.398265
C	 0.026572	 -0.995256	 -0.379403
C	 1.057223	 0.049888	 -0.004615
H	 -0.054361	 -1.010670	 -1.459674
H	 0.397526	 -1.952058	 -0.044198
F	 0.756921	 0.559840	 1.173030
F	 2.267017	 -0.461047	 0.078154
F	 1.099094	 1.033449	 -0.870243

	symmetry c1
}
set optking {
	frozen_dihedral = ("
		11 8 7 9
	")
}

ee = optimize('scf')
oeprop('DIPOLE', 'QUADRUPOLE', 'MULLIKEN_CHARGES')
f=open( 'psi4out.xyz', 'w' )
f.write( "13  " )
f.write( str(ee) + "\n" )
f.write( MOL.save_string_xyz() )
f.close()
--------------------------------------------------------------------------

    Molecular point group: c1
  Charge       = 0
  Multiplicity = 1
  Basis Set: CC-PVTZ
  Basis Set:
  @DF-RHF Final Energy:  -527.73718325335244
    Total Energy =                       -527.7371832533526685
    Molecular point group: c1
  Basis Set: CC-PVTZ
  Basis Set:
  Basis Set: CC-PVTZ
  Basis Set:
  @DF-RHF Final Energy:  -527.73819994269411
    Total Energy =                       -527.7381999426939956
  Basis Set: CC-PVTZ
  Basis Set:
  Basis Set: CC-PVTZ
  Basis Set:
  @DF-RHF Final Energy:  -527.73842432953040
    Total Energy =                       -527.7384243295305168
  Basis Set: CC-PVTZ
  Basis Set:
  Basis Set: CC-PVTZ
  Basis Set:
  @DF-RHF Final Energy:  -527.73845539536956
    Total Energy =                       -527.7384553953691011
  Basis Set: CC-PVTZ
  Basis Set:
  @DF-RHF Final Energy:  -527.73846657946217
    Total Energy =                       -527.7384665794620560
  Basis Set: CC-PVTZ
  Basis Set:
  @DF-RHF Final Energy:  -527.73847671254600
    Total Energy =                       -527.7384767125462304
  Basis Set: CC-PVTZ
  Basis Set:
  Basis Set: CC-PVTZ
  Basis Set:
  @DF-RHF Final Energy:  -527.73848244806834
    Total Energy =                       -527.7384824480682255
  Basis Set: CC-PVTZ
  Basis Set:
  Basis Set: CC-PVTZ
  Basis Set:
  @DF-RHF Final Energy:  -527.73848404999035
    Total Energy =                       -527.7384840499898928
  Basis Set: CC-PVTZ
  Basis Set:
  Charge       = 0
  Multiplicity = 1
  Basis Set: CC-PVTZ
  Basis Set:

    Orbital Energies (a.u.)
    -----------------------

    Doubly Occupied:

       1A    -26.342006     2A    -26.338335     3A    -26.337599
       4A    -20.602443     5A    -11.498454     6A    -11.319846
       7A    -11.297670     8A    -11.214899     9A     -1.750144
      10A     -1.647697    11A     -1.642980    12A     -1.443246
      13A     -1.084872    14A     -1.019913    15A     -0.931914
      16A     -0.842180    17A     -0.839002    18A     -0.827040
      19A     -0.798745    20A     -0.726791    21A     -0.719812
      22A     -0.701463    23A     -0.680636    24A     -0.669416
      25A     -0.661288    26A     -0.649754    27A     -0.638952
      28A     -0.587679    29A     -0.566260    30A     -0.526878
      31A     -0.515866    32A     -0.357869

  @DF-RHF Final Energy:  -527.73848437733056

   => Energetics <=

    Nuclear Repulsion Energy =            414.5075017590131665
    One-Electron Energy =               -1552.9286772128825760
    Two-Electron Energy =                 610.6826910765386174
    DFT Exchange-Correlation Energy =       0.0000000000000000
    Empirical Dispersion Energy =           0.0000000000000000
    PCM Polarization Energy =               0.0000000000000000
    EFP Energy =                            0.0000000000000000
    Total Energy =                       -527.7384843773307921
    Molecular point group: c1
  Basis Set: CC-PVTZ
  Basis Set:

  -Total Gradient:
     Atom            X                  Y                   Z
    ------   -----------------  -----------------  -----------------
       1        0.000001835874     0.000004337393     0.000002394566
       2       -0.000007647253    -0.000002314699    -0.000003533501
       3        0.000036080816    -0.000007291383     0.000011109704
       4       -0.000000451794    -0.000001666122    -0.000000126616
       5        0.000016851247    -0.000018157960    -0.000007470179
       6       -0.000000808065     0.000006770612     0.000002768461
       7        0.003672308087    -0.002927211021    -0.000847735574
       8        0.002568645005    -0.003138371092     0.002398683091
       9       -0.003743490075     0.003182413493     0.000212572579
      10       -0.000008188308     0.000012092420     0.000007327779
      11       -0.002503946332     0.002870523583    -0.001868638644
      12       -0.000028604858     0.000022335721     0.000023551819
      13       -0.000002584351    -0.000003460950     0.000069096516

  **** Optimization is complete! (in 9 steps) ****
    Final optimized geometry and variables:
    Molecular point group: c1

    Geometry (in Angstrom), charge = 0, multiplicity = 1:

    H           -3.817487114787     1.021968569829    -0.368510955326
    C           -3.147616429412     0.375041370690     0.159930027326
    C           -2.051196611587    -0.038032232502    -0.426985165224
    H           -3.395585801695     0.077864371555     1.159933338889
    O           -1.186432384149    -0.888958218027     0.171356927363
    H           -1.788218632662     0.260817204547    -1.426200822799
    C            0.069260118874    -1.045542206661    -0.390732564077
    C            1.036886831892     0.065470704891     0.014841008630
    H            0.006757579541    -1.042761166101    -1.472112711333
    H            0.466960163502    -1.984783543289    -0.043002558255
    F            0.749673390744     0.578710625197     1.182801193291
    F            2.269653244164    -0.393653232531     0.050616538386
    F            1.016969426903     1.057967978947    -0.857531531698

  Mulliken Charges: (a.u.)
   Center  Symbol    Alpha    Beta     Spin     Total
       1     H     0.42511  0.42511  0.00000  0.14978
       2     C     3.19364  3.19364  0.00000 -0.38728
       3     C     2.96327  2.96327  0.00000  0.07345
       4     H     0.42433  0.42433  0.00000  0.15134
       5     O     4.14157  4.14157  0.00000 -0.28315
       6     H     0.43380  0.43380  0.00000  0.13241
       7     C     3.02455  3.02455  0.00000 -0.04909
       8     C     2.67595  2.67595  0.00000  0.64809
       9     H     0.45533  0.45533  0.00000  0.08935
      10     H     0.43402  0.43402  0.00000  0.13195
      11     F     4.60350  4.60350  0.00000 -0.20701
      12     F     4.60997  4.60997  0.00000 -0.21993
      13     F     4.61496  4.61496  0.00000 -0.22992

   Total alpha = 32.00000, Total beta = 32.00000, Total charge = -0.00000
