  ==> Input File <==

--------------------------------------------------------------------------
set {
	reference rhf
	basis cc-pvtz
}

set_num_threads( 4 )
memory 2 gb

molecule MOL {
0 1

O	 -0.651644	 -0.072933	 0.223334
C	 0.485107	 0.171416	 -0.000134
C	 1.606966	 -0.836201	 0.000174
O	 0.926956	 1.383974	 -0.284842
C	 2.988788	 -0.202529	 -0.000115
H	 1.465110	 -1.474645	 -0.864821
H	 1.465209	 -1.474077	 0.865596
H	 3.131767	 0.419673	 -0.873407
H	 3.750876	 -0.972315	 0.000098
H	 3.131883	 0.420264	 0.872742
C	 -0.019665	 2.442650	 -0.322298
C	 0.722487	 3.713757	 -0.662864
H	 -0.507996	 2.513724	 0.639382
H	 -0.775569	 2.214466	 -1.060448
H	 1.477149	 3.931424	 0.082441
H	 0.027386	 4.544248	 -0.699611
H	 1.207999	 3.630509	 -1.627083

	symmetry c1
}
set optking {
	frozen_dihedral = ("
		4 2 3 6
	")
}

ee = optimize('scf')
oeprop('DIPOLE', 'QUADRUPOLE', 'MULLIKEN_CHARGES')
f=open( 'psi4out.xyz', 'w' )
f.write( "17  " )
f.write( str(ee) + "\n" )
f.write( MOL.save_string_xyz() )
f.close()
--------------------------------------------------------------------------

    Molecular point group: c1
  Charge       = 0
  Multiplicity = 1
  Basis Set: CC-PVTZ
  Basis Set:
  @DF-RHF Final Energy:  -345.03682439526966
    Total Energy =                       -345.0368243952693774
    Molecular point group: c1
  Basis Set: CC-PVTZ
  Basis Set:
  Basis Set: CC-PVTZ
  Basis Set:
  @DF-RHF Final Energy:  -345.03766834629732
    Total Energy =                       -345.0376683462971528
  Basis Set: CC-PVTZ
  Basis Set:
  Basis Set: CC-PVTZ
  Basis Set:
  @DF-RHF Final Energy:  -345.03743982192702
    Total Energy =                       -345.0374398219273075
  Basis Set: CC-PVTZ
  Basis Set:
  Basis Set: CC-PVTZ
  Basis Set:
  @DF-RHF Final Energy:  -345.03809409847736
    Total Energy =                       -345.0380940984775862
  Basis Set: CC-PVTZ
  Basis Set:
  Basis Set: CC-PVTZ
  Basis Set:
  @DF-RHF Final Energy:  -345.03810176644129
    Total Energy =                       -345.0381017664415140
  Basis Set: CC-PVTZ
  Basis Set:
  Charge       = 0
  Multiplicity = 1
  Basis Set: CC-PVTZ
  Basis Set:

    Orbital Energies (a.u.)
    -----------------------

    Doubly Occupied:

       1A    -20.596322     2A    -20.528196     3A    -11.363799
       4A    -11.283444     5A    -11.236097     6A    -11.221230
       7A    -11.218771     8A     -1.471507     9A     -1.363092
      10A     -1.072895    11A     -1.031233    12A     -0.906316
      13A     -0.861871    14A     -0.780411    15A     -0.693218
      16A     -0.680368    17A     -0.674960    18A     -0.630260
      19A     -0.577071    20A     -0.573556    21A     -0.554404
      22A     -0.550744    23A     -0.523382    24A     -0.515139
      25A     -0.507867    26A     -0.491374    27A     -0.453891
      28A     -0.433936

  @DF-RHF Final Energy:  -345.03810524072583

   => Energetics <=

    Nuclear Repulsion Energy =            318.0583168603387776
    One-Electron Energy =               -1100.6021349377533625
    Two-Electron Energy =                 437.5057128366889856
    DFT Exchange-Correlation Energy =       0.0000000000000000
    Empirical Dispersion Energy =           0.0000000000000000
    PCM Polarization Energy =               0.0000000000000000
    EFP Energy =                            0.0000000000000000
    Total Energy =                       -345.0381052407255993
    Molecular point group: c1
  Basis Set: CC-PVTZ
  Basis Set:

  -Total Gradient:
     Atom            X                  Y                   Z
    ------   -----------------  -----------------  -----------------
       1        0.000145176973     0.000043679735    -0.000030228656
       2       -0.000330012087    -0.000380926700    -0.000377770358
       3        0.000308008615     0.000399271409    -0.000143573739
       4        0.000086325051     0.000258148040     0.000318358112
       5       -0.000005336503    -0.000005009203     0.000002175510
       6       -0.000247612013    -0.000254240117     0.000227163506
       7        0.000003287154    -0.000010444614     0.000011508248
       8       -0.000002152699     0.000003381675     0.000001621215
       9        0.000003298263    -0.000002204865    -0.000004568134
      10       -0.000006234951    -0.000005352872    -0.000005634271
      11        0.000061739041    -0.000078458424     0.000002835265
      12       -0.000005356587     0.000017622460    -0.000001547093
      13       -0.000008954754     0.000007935490     0.000003354910
      14       -0.000010884325     0.000006806236    -0.000003061478
      15        0.000003928016     0.000002595565     0.000001002125
      16        0.000002142409    -0.000003029968     0.000000389253
      17        0.000002638391     0.000000226153    -0.000002024414

  **** Optimization is complete! (in 6 steps) ****
    Final optimized geometry and variables:
    Molecular point group: c1

    Geometry (in Angstrom), charge = 0, multiplicity = 1:

    O           -1.489099765659    -1.033361668068     0.370315437324
    C           -0.356087105618    -0.763013590289     0.152980542487
    C            0.749879004315    -1.793805428976     0.155608275557
    O            0.055823731776     0.457532686697    -0.129657639046
    C            2.179101060173    -1.268702595648     0.159079458032
    H            0.572819400167    -2.416873016832    -0.715000807591
    H            0.563426022593    -2.426746375562     1.013529642007
    H            2.387364424634    -0.677149998930    -0.721708994603
    H            2.873136807097    -2.100099473955     0.180750719722
    H            2.370359564014    -0.650103222945     1.026779609257
    C           -0.919794187212     1.490092697461    -0.176924819827
    C           -0.210780585542     2.780660720694    -0.514710218508
    H           -1.416958580808     1.548151959163     0.780812560127
    H           -1.663020416629     1.238153741840    -0.919926320057
    H            0.531775519186     3.021427804381     0.235645989142
    H           -0.928988325253     3.590873036120    -0.558210488931
    H            0.283780796038     2.709890544137    -1.475351939740

  Mulliken Charges: (a.u.)
   Center  Symbol    Alpha    Beta     Spin     Total
       1     O     4.20449  4.20449  0.00000 -0.40898
       2     C     2.81110  2.81110  0.00000  0.37781
       3     C     3.09014  3.09014  0.00000 -0.18027
       4     O     4.14692  4.14692  0.00000 -0.29383
       5     C     3.14108  3.14108  0.00000 -0.28215
       6     H     0.44237  0.44237  0.00000  0.11527
       7     H     0.43693  0.43693  0.00000  0.12614
       8     H     0.44907  0.44907  0.00000  0.10186
       9     H     0.44921  0.44921  0.00000  0.10157
      10     H     0.45127  0.45127  0.00000  0.09746
      11     C     2.98039  2.98039  0.00000  0.03921
      12     C     3.13359  3.13359  0.00000 -0.26719
      13     H     0.45344  0.45344  0.00000  0.09312
      14     H     0.45342  0.45342  0.00000  0.09315
      15     H     0.45130  0.45130  0.00000  0.09741
      16     H     0.45374  0.45374  0.00000  0.09251
      17     H     0.45155  0.45155  0.00000  0.09691

   Total alpha = 28.00000, Total beta = 28.00000, Total charge =  0.00000
