  ==> Input File <==

--------------------------------------------------------------------------
set {
	reference rhf
	basis 6-31G*
}

set_num_threads( 4 )
memory 2 gb

molecule MOL {
0 1

H	 2.332609	 0.878551	 -1.051851
C	 2.357710	 0.000000	 -0.417167
C	 1.175432	 0.000000	 0.532082
H	 3.291263	 0.000000	 0.136880
H	 2.332609	 -0.878551	 -1.051851
O	 0.000000	 0.000000	 -0.221444
H	 1.206604	 0.877321	 1.177902
H	 1.206604	 -0.877321	 1.177902
C	 -1.175432	 0.000000	 0.532082
C	 -2.357595	 -0.024748	 -0.416988
H	 -1.214799	 0.886264	 1.165117
H	 -1.198493	 -0.868118	 1.190554
H	 -2.340617	 0.844705	 -1.064343
H	 -3.291145	 -0.025392	 0.137064
H	 -2.324288	 -0.912137	 -1.038871

	symmetry c1
}
set optking {
	frozen_dihedral = ("
		11 9 6 3
	")
}

ee = optimize('scf')
oeprop('DIPOLE', 'QUADRUPOLE', 'MULLIKEN_CHARGES')
f=open( 'psi4out.xyz', 'w' )
f.write( "15  " )
f.write( str(ee) + "\n" )
f.write( MOL.save_string_xyz() )
f.close()
--------------------------------------------------------------------------

    Molecular point group: c1
  Charge       = 0
  Multiplicity = 1
  Basis Set: 6-31G*
  Basis Set:
  @DF-RHF Final Energy:  -232.14476512166095
    Total Energy =                       -232.1447651216608392
    Molecular point group: c1
  Basis Set: 6-31G*
  Basis Set:
  Charge       = 0
  Multiplicity = 1
  Basis Set: 6-31G*
  Basis Set:

    Orbital Energies (a.u.)
    -----------------------

    Doubly Occupied:

       1A    -20.551294     2A    -11.268111     3A    -11.268090
       4A    -11.208912     5A    -11.208889     6A     -1.377820
       7A     -1.044023     8A     -0.982294     9A     -0.845873
      10A     -0.826568    11A     -0.677664    12A     -0.667658
      13A     -0.605549    14A     -0.598814    15A     -0.549189
      16A     -0.530415    17A     -0.522804    18A     -0.492342
      19A     -0.487673    20A     -0.464852    21A     -0.411347

  @DF-RHF Final Energy:  -232.14476534411338

   => Energetics <=

    Nuclear Repulsion Energy =            191.0834615008270418
    One-Electron Energy =                -693.2760888163445543
    Two-Electron Energy =                 270.0478619714042452
    DFT Exchange-Correlation Energy =       0.0000000000000000
    Empirical Dispersion Energy =           0.0000000000000000
    PCM Polarization Energy =               0.0000000000000000
    EFP Energy =                            0.0000000000000000
    Total Energy =                       -232.1447653441132388
    Molecular point group: c1
  Basis Set: 6-31G*
  Basis Set:

  -Total Gradient:
     Atom            X                  Y                   Z
    ------   -----------------  -----------------  -----------------
       1       -0.000007675471    -0.000000746967     0.000005590864
       2        0.000060673794    -0.000000398944     0.000027534662
       3        0.000028943134    -0.000098768166    -0.000064709187
       4        0.000030317072    -0.000000076617    -0.000012707155
       5       -0.000008003684    -0.000000150272     0.000005692629
       6       -0.000016022094     0.000209198005     0.000026477564
       7        0.000005390136    -0.000009338592     0.000005465673
       8       -0.000013622462     0.000005200445    -0.000006270645
       9        0.000055377070    -0.000221648026     0.000069754334
      10       -0.000037501422     0.000034965778     0.000043102805
      11       -0.000070973148     0.000080275665    -0.000125365360
      12       -0.000019011734    -0.000001505957     0.000024050483
      13       -0.000003576575    -0.000000349880    -0.000004666683
      14       -0.000026948803     0.000002632727    -0.000012451106
      15        0.000022634188     0.000000710801     0.000018501123

  **** Optimization is complete! (in 2 steps) ****
    Final optimized geometry and variables:
    Molecular point group: c1

    Geometry (in Angstrom), charge = 0, multiplicity = 1:

    H            2.333196900029     0.884759346749    -1.051327896974
    C            2.358477724278     0.005834385375    -0.417104920283
    C            1.175757887602     0.004900881549     0.531724554437
    H            3.292126492327     0.005827050067     0.136988944235
    H            2.333721786005    -0.872430992638    -1.052268643356
    O           -0.000076342444     0.004258575605    -0.221389121819
    H            1.206497933762     0.881921634156     1.177968252298
    H            1.207222780324    -0.872509253219     1.177337560305
    C           -1.175781694112     0.004690726647     0.531932641290
    C           -2.358336393591    -0.019403408267    -0.416800563512
    H           -1.214935115534     0.891542319212     1.164141798323
    H           -1.199523040022    -0.863077090463     1.190778625250
    H           -2.339998556398     0.849168403741    -1.065375461036
    H           -3.292038778665    -0.017682223278     0.137201212679
    H           -2.326458132078    -0.907747484155    -1.037452644097

  Mulliken Charges: (a.u.)
   Center  Symbol    Alpha    Beta     Spin     Total
       1     H     0.41342  0.41342  0.00000  0.17316
       2     C     3.24420  3.24420  0.00000 -0.48841
       3     C     2.98731  2.98731  0.00000  0.02538
       4     H     0.42251  0.42251  0.00000  0.15498
       5     H     0.41342  0.41342  0.00000  0.17316
       6     O     4.30899  4.30899  0.00000 -0.61798
       7     H     0.43235  0.43235  0.00000  0.13529
       8     H     0.43229  0.43229  0.00000  0.13543
       9     C     2.98732  2.98732  0.00000  0.02536
      10     C     3.24419  3.24419  0.00000 -0.48839
      11     H     0.43225  0.43225  0.00000  0.13550
      12     H     0.43237  0.43237  0.00000  0.13527
      13     H     0.41336  0.41336  0.00000  0.17327
      14     H     0.42252  0.42252  0.00000  0.15495
      15     H     0.41349  0.41349  0.00000  0.17302

   Total alpha = 21.00000, Total beta = 21.00000, Total charge =  0.00000
