                              Psi4 1.0.54 Driver

  ==> Input File <==

--------------------------------------------------------------------------
set {
	reference rhf
	basis cc-pvtz
}

set_num_threads( 4 )
memory 2 gb

molecule MOL {
0 1

H	 -2.362939	 -1.309000	 -0.383250
C	 -1.359344	 -1.272457	 0.020748
C	 -0.684082	 0.000127	 -0.464918
H	 -0.825835	 -2.151141	 -0.318537
H	 -1.416276	 -1.292399	 1.099455
C	 -1.359089	 1.272668	 0.021259
N	 0.742439	 -0.000109	 0.007333
H	 -0.596914	 0.000345	 -1.538146
H	 -2.362696	 1.309620	 -0.382686
H	 -0.825392	 2.151374	 -0.317674
H	 -1.415983	 1.292181	 1.099973
O	 1.259048	 -1.052523	 0.178168
O	 1.261590	 1.052141	 0.179210

	symmetry c1
}
set optking {
	frozen_dihedral = ("
		12 7 3 8
	")
}

ee,wfn = optimize('scf', return_wfn=True)
oeprop( wfn, 'DIPOLE', 'QUADRUPOLE', 'MULLIKEN_CHARGES')
f=open( 'psi4out.xyz', 'w' )
f.write( "13  " )
f.write( str(ee) + "\n" )
f.write( MOL.save_string_xyz() )
f.close()
--------------------------------------------------------------------------

    Molecular point group: c1
  Charge       = 0
  Multiplicity = 1
  Basis Set: CC-PVTZ
  Basis Set:
  @DF-RHF Final Energy:  -321.86108136798680
    Total Energy =                       -321.8610813679867988
    Molecular point group: c1
  Basis Set: CC-PVTZ
  Basis Set:
  Basis Set: CC-PVTZ
  Basis Set:
  @DF-RHF Final Energy:  -321.85800324813880
    Total Energy =                       -321.8580032481389708
  Basis Set: CC-PVTZ
  Basis Set:
  Basis Set: CC-PVTZ
  Basis Set:
  @DF-RHF Final Energy:  -321.85974116875173
    Total Energy =                       -321.8597411687518957
  Basis Set: CC-PVTZ
  Basis Set:
  Basis Set: CC-PVTZ
  Basis Set:
  @DF-RHF Final Energy:  -321.86064370996394
    Total Energy =                       -321.8606437099638242
  Basis Set: CC-PVTZ
  Basis Set:
  Basis Set: CC-PVTZ
  Basis Set:
  @DF-RHF Final Energy:  -321.86157353741390
    Total Energy =                       -321.8615735374139604
  Basis Set: CC-PVTZ
  Basis Set:
  Basis Set: CC-PVTZ
  Basis Set:
  @DF-RHF Final Energy:  -321.86208963027372
    Total Energy =                       -321.8620896302735446
  Basis Set: CC-PVTZ
  Basis Set:
  Basis Set: CC-PVTZ
  Basis Set:
  @DF-RHF Final Energy:  -321.86209572273879
    Total Energy =                       -321.8620957227388999
  Basis Set: CC-PVTZ
  Basis Set:
  Charge       = 0
  Multiplicity = 1
  Basis Set: CC-PVTZ
  Basis Set:

    Orbital Energies (a.u.)
    -----------------------

    Doubly Occupied:

       1A    -20.588591     2A    -20.588219     3A    -15.834024
       4A    -11.307142     5A    -11.238403     6A    -11.238163
       7A     -1.634519     8A     -1.418090     9A     -1.139582
      10A     -0.967411    11A     -0.958405    12A     -0.814943
      13A     -0.765383    14A     -0.730038    15A     -0.722717
      16A     -0.639320    17A     -0.596491    18A     -0.586097
      19A     -0.570413    20A     -0.521698    21A     -0.521474
      22A     -0.483105    23A     -0.472367    24A     -0.452358

  @DF-RHF Final Energy:  -321.86209618490773

   => Energetics <=

    Nuclear Repulsion Energy =            257.2060040443054731
    One-Electron Energy =                -948.5582895106215346
    Two-Electron Energy =                 369.4901892814083340
    DFT Exchange-Correlation Energy =       0.0000000000000000
    Empirical Dispersion Energy =           0.0000000000000000
    PCM Polarization Energy =               0.0000000000000000
    EFP Energy =                            0.0000000000000000
    Total Energy =                       -321.8620961849077275
    Molecular point group: c1
  Basis Set: CC-PVTZ
  Basis Set:

  -Total Gradient:
     Atom            X                  Y                   Z
    ------   -----------------  -----------------  -----------------
       1        0.000011885954    -0.000006847909     0.000005647569
       2        0.000011954314     0.000017290367    -0.000008923325
       3       -0.000024372457     0.000117015035    -0.000017163691
       4       -0.000003134963     0.000002554523    -0.000000093030
       5        0.000000785332     0.000003439035    -0.000007944941
       6       -0.000018773519     0.000009615838    -0.000017288028
       7       -0.000043629123    -0.000010971532     0.000127546626
       8        0.000005499421    -0.000097037465     0.000006294605
       9        0.000006763218     0.000003135487     0.000005472421
      10       -0.000013105971    -0.000021841284    -0.000000926202
      11        0.000006037309    -0.000010159083    -0.000009292747
      12        0.000017902948     0.000007762003    -0.000094279775
      13        0.000042187543    -0.000013955012     0.000010950519

  **** Optimization is complete! (in 8 steps) ****
    Final optimized geometry and variables:
    Molecular point group: c1

    Geometry (in Angstrom), charge = 0, multiplicity = 1:

    H           -2.174564706785    -1.616618533360    -0.355526689818
    C           -1.177153208475    -1.466723898462     0.037575342384
    C           -0.671363976770    -0.119123086077    -0.446444595771
    H           -0.546862323205    -2.274335760613    -0.296848271207
    H           -1.229787453586    -1.495086144384     1.118595399512
    C           -1.563927384505     1.042124881125    -0.044104581226
    N            0.744637184162     0.116279854276     0.032194057444
    H           -0.549539753791    -0.135602896105    -1.522325068069
    H           -2.556849897299     0.859544463141    -0.434595194278
    H           -1.202746714610     1.978561344314    -0.436274564490
    H           -1.632011923710     1.121995370454     1.033591510757
    O            1.420180005199    -0.834332222467     0.240280010766
    O            1.111368116970     1.238845235771     0.127664677511

  Mulliken Charges: (a.u.)
   Center  Symbol    Alpha    Beta     Spin     Total
       1     H     0.45067  0.45067  0.00000  0.09867
       2     C     3.14315  3.14315  0.00000 -0.28630
       3     C     3.00662  3.00662  0.00000 -0.01325
       4     H     0.43193  0.43193  0.00000  0.13614
       5     H     0.44590  0.44590  0.00000  0.10820
       6     C     3.14330  3.14330  0.00000 -0.28660
       7     N     3.27539  3.27539  0.00000  0.44923
       8     H     0.43057  0.43057  0.00000  0.13887
       9     H     0.45065  0.45065  0.00000  0.09870
      10     H     0.43160  0.43160  0.00000  0.13679
      11     H     0.44608  0.44608  0.00000  0.10784
      12     O     4.17187  4.17187  0.00000 -0.34375
      13     O     4.17228  4.17228  0.00000 -0.34456

   Total alpha = 24.00000, Total beta = 24.00000, Total charge =  0.00000

*** Psi4 exiting successfully. Buy a developer a beer!
