  ==> Input File <==

--------------------------------------------------------------------------
set {
	reference rhf
	basis cc-pvtz
}

set_num_threads( 4 )
memory 2 gb

molecule MOL {
0 1

H	 -3.727621	 0.481534	 1.550325
O	 -3.022078	 -0.075862	 1.278823
C	 -2.302264	 0.528872	 0.237390
C	 -1.175688	 -0.398187	 -0.171891
H	 -2.952439	 0.720185	 -0.613753
H	 -1.896083	 1.485119	 0.560557
C	 0.196029	 0.106276	 0.266738
H	 -1.201873	 -0.515469	 -1.250677
H	 -1.365975	 -1.378728	 0.252664
C	 1.330220	 -0.826136	 -0.155230
H	 0.359542	 1.097229	 -0.145561
H	 0.212134	 0.218135	 1.348778
C	 2.719700	 -0.407669	 0.328325
H	 1.339388	 -0.911200	 -1.239363
H	 1.119001	 -1.821953	 0.224128
C	 3.241564	 0.893452	 -0.276737
H	 3.418299	 -1.204729	 0.093035
H	 2.711776	 -0.323368	 1.411960
H	 3.254204	 0.841071	 -1.360784
H	 2.634460	 1.745075	 0.005842
H	 4.254264	 1.092401	 0.054971

	symmetry c1
}
set optking {
	frozen_dihedral = ("
		2 3 4 8
	")
}

ee = optimize('scf')
oeprop('DIPOLE', 'QUADRUPOLE', 'MULLIKEN_CHARGES')
f=open( 'psi4out.xyz', 'w' )
f.write( "21  " )
f.write( str(ee) + "\n" )
f.write( MOL.save_string_xyz() )
f.close()
--------------------------------------------------------------------------

    Molecular point group: c1
  Charge       = 0
  Multiplicity = 1
  Basis Set: CC-PVTZ
  Basis Set:
  @DF-RHF Final Energy:  -310.32756156650834
    Total Energy =                       -310.3275615665083933
    Molecular point group: c1
  Basis Set: CC-PVTZ
  Basis Set:
  Basis Set: CC-PVTZ
  Basis Set:
  @DF-RHF Final Energy:  -310.32797233152024
    Total Energy =                       -310.3279723315201863
  Basis Set: CC-PVTZ
  Basis Set:
  Basis Set: CC-PVTZ
  Basis Set:
  @DF-RHF Final Energy:  -310.32808749017948
    Total Energy =                       -310.3280874901795414
  Basis Set: CC-PVTZ
  Basis Set:
  Charge       = 0
  Multiplicity = 1
  Basis Set: CC-PVTZ
  Basis Set:

    Orbital Energies (a.u.)
    -----------------------

    Doubly Occupied:

       1A    -20.545258     2A    -11.265349     3A    -11.211517
       4A    -11.210147     5A    -11.209151     6A    -11.208842
       7A    -11.204932     8A     -1.362278     9A     -1.084665
      10A     -1.031451    11A     -0.954230    12A     -0.876669
      13A     -0.806784    14A     -0.777405    15A     -0.705288
      16A     -0.639817    17A     -0.632673    18A     -0.602881
      19A     -0.585821    20A     -0.571754    21A     -0.535671
      22A     -0.524661    23A     -0.508573    24A     -0.485551
      25A     -0.482130    26A     -0.460186    27A     -0.454734
      28A     -0.449205    29A     -0.425885

  @DF-RHF Final Energy:  -310.32808771974993

   => Energetics <=

    Nuclear Repulsion Energy =            314.1261726870868074
    One-Electron Energy =               -1043.2815134719144226
    Two-Electron Energy =                 418.8272530650770591
    DFT Exchange-Correlation Energy =       0.0000000000000000
    Empirical Dispersion Energy =           0.0000000000000000
    PCM Polarization Energy =               0.0000000000000000
    EFP Energy =                            0.0000000000000000
    Total Energy =                       -310.3280877197504992
    Molecular point group: c1
  Basis Set: CC-PVTZ
  Basis Set:

  -Total Gradient:
     Atom            X                  Y                   Z
    ------   -----------------  -----------------  -----------------
       1       -0.000047666314    -0.000001657496     0.000009098528
       2       -0.001430966962    -0.001099800263    -0.001676039321
       3        0.001368728677     0.000806901506     0.002277998829
       4        0.001964448052     0.002823712813    -0.000955213492
       5        0.000021875274    -0.000000410515    -0.000000625448
       6        0.000015364625     0.000012796983     0.000013734520
       7        0.000076725856     0.000060269214    -0.000020400036
       8       -0.001866767418    -0.002633019844     0.000386080965
       9       -0.000055198806     0.000002811793     0.000000148923
      10       -0.000065579799     0.000043086774    -0.000053940993
      11       -0.000063169912    -0.000060927086    -0.000000078467
      12       -0.000003721167     0.000003354165    -0.000008689209
      13       -0.000048397283     0.000055709583     0.000087260718
      14       -0.000002548246     0.000036870087    -0.000018747735
      15        0.000009073857    -0.000020313273    -0.000039456034
      16        0.000045586561     0.000001574540    -0.000010990413
      17       -0.000003867673    -0.000012015581     0.000029600761
      18       -0.000000883282     0.000032063873     0.000007164127
      19       -0.000007165835     0.000011016718    -0.000019426696
      20        0.000090815706    -0.000041461562     0.000009471329
      21        0.000003314090    -0.000020562429    -0.000016950856

  **** Optimization is complete! (in 4 steps) ****
    Final optimized geometry and variables:
    Molecular point group: c1

    Geometry (in Angstrom), charge = 0, multiplicity = 1:

    H           -3.779470118390     0.449136292297     1.384792705501
    O           -3.092085163954    -0.104957790585     1.063533244552
    C           -2.414356947919     0.532114097926     0.008867349904
    C           -1.252175484025    -0.356168674840    -0.438913271573
    H           -3.099671370388     0.698913270299    -0.817301809807
    H           -2.047544672865     1.504275538887     0.327759914589
    C            0.120133796794     0.140728727574     0.006636857265
    H           -1.277555573940    -0.480273625704    -1.516804844130
    H           -1.433064996405    -1.341977152364    -0.025825544659
    C            1.250827960731    -0.804642678997    -0.391829922017
    H            0.294133981990     1.126710272491    -0.413358913768
    H            0.116310877140     0.261825925918     1.087211035677
    C            2.637557194154    -0.396554807298     0.108834927614
    H            1.275635086969    -0.899069619793    -1.475404913095
    H            1.023991485290    -1.795118125063    -0.007523381006
    C            3.189635234336     0.884794745816    -0.511329826486
    H            3.328863300453    -1.207682800361    -0.098333594754
    H            2.610959340413    -0.291176747961     1.190172854585
    H            3.218206764375     0.812419987377    -1.593983140179
    H            2.592187060325     1.750916445813    -0.253616086811
    H            4.200239056559     1.073625006206    -0.167479905746

  Mulliken Charges: (a.u.)
   Center  Symbol    Alpha    Beta     Spin     Total
       1     H     0.39544  0.39544  0.00000  0.20912
       2     O     4.19865  4.19865  0.00000 -0.39730
       3     C     2.96590  2.96590  0.00000  0.06821
       4     C     3.09144  3.09144  0.00000 -0.18289
       5     H     0.47109  0.47109  0.00000  0.05782
       6     H     0.47596  0.47596  0.00000  0.04809
       7     C     3.09714  3.09714  0.00000 -0.19428
       8     H     0.45184  0.45184  0.00000  0.09632
       9     H     0.44667  0.44667  0.00000  0.10666
      10     C     3.09654  3.09654  0.00000 -0.19308
      11     H     0.45468  0.45468  0.00000  0.09065
      12     H     0.45027  0.45027  0.00000  0.09946
      13     C     3.08992  3.08992  0.00000 -0.17983
      14     H     0.45483  0.45483  0.00000  0.09034
      15     H     0.44800  0.44800  0.00000  0.10400
      16     C     3.15227  3.15227  0.00000 -0.30455
      17     H     0.44877  0.44877  0.00000  0.10245
      18     H     0.45442  0.45442  0.00000  0.09116
      19     H     0.45528  0.45528  0.00000  0.08944
      20     H     0.45427  0.45427  0.00000  0.09146
      21     H     0.44663  0.44663  0.00000  0.10675

   Total alpha = 29.00000, Total beta = 29.00000, Total charge =  0.00000
