  ==> Input File <==

--------------------------------------------------------------------------
set {
	reference rhf
	basis cc-pvtz
}

set_num_threads( 4 )
memory 2 gb

molecule MOL {
0 1

H	 -0.000105	 1.988529	 0.748933
O	 -0.000098	 1.879786	 -0.188206
C	 -0.000014	 0.545691	 -0.532416
C	 -1.195501	 0.232755	 -1.433893
C	 0.090543	 -0.323642	 0.722906
H	 0.890154	 0.352764	 -1.112969
F	 -1.123772	 0.964932	 -2.518159
F	 -1.228060	 -1.023982	 -1.798943
F	 -2.332985	 0.515487	 -0.835924
F	 1.194058	 -0.037873	 1.369008
F	 0.108499	 -1.602244	 0.442602
F	 -0.918444	 -0.096489	 1.536369

	symmetry c1
}
set optking {
	frozen_dihedral = ("
		6 3 2 1
	")
}

ee = optimize('scf')
oeprop('DIPOLE', 'QUADRUPOLE', 'MULLIKEN_CHARGES')
f=open( 'psi4out.xyz', 'w' )
f.write( "12  " )
f.write( str(ee) + "\n" )
f.write( MOL.save_string_xyz() )
f.close()
--------------------------------------------------------------------------

    Molecular point group: c1
  Charge       = 0
  Multiplicity = 1
  Basis Set: CC-PVTZ
  Basis Set:
  @DF-RHF Final Energy:  -786.58460036080646
    Total Energy =                       -786.5846003608064620
    Molecular point group: c1
  Basis Set: CC-PVTZ
  Basis Set:
  Basis Set: CC-PVTZ
  Basis Set:
  @DF-RHF Final Energy:  -786.58542896215477
    Total Energy =                       -786.5854289621543103
  Basis Set: CC-PVTZ
  Basis Set:
  Basis Set: CC-PVTZ
  Basis Set:
  @DF-RHF Final Energy:  -786.58558486980837
    Total Energy =                       -786.5855848698076898
  Basis Set: CC-PVTZ
  Basis Set:
  Basis Set: CC-PVTZ
  Basis Set:
  @DF-RHF Final Energy:  -786.58560534951755
    Total Energy =                       -786.5856053495175502
  Basis Set: CC-PVTZ
  Basis Set:
  Basis Set: CC-PVTZ
  Basis Set:
  @DF-RHF Final Energy:  -786.58561277198214
    Total Energy =                       -786.5856127719822553
  Basis Set: CC-PVTZ
  Basis Set:
  Basis Set: CC-PVTZ
  Basis Set:
  @DF-RHF Final Energy:  -786.58561434900059
    Total Energy =                       -786.5856143490004797
  Basis Set: CC-PVTZ
  Basis Set:
  Charge       = 0
  Multiplicity = 1
  Basis Set: CC-PVTZ
  Basis Set:

    Orbital Energies (a.u.)
    -----------------------

    Doubly Occupied:

       1A    -26.363855     2A    -26.363359     3A    -26.363229
       4A    -26.351275     5A    -26.349560     6A    -26.347814
       7A    -20.607630     8A    -11.527434     9A    -11.514191
      10A    -11.351932    11A     -1.776987    12A     -1.762224
      13A     -1.672796    14A     -1.669265    15A     -1.657676
      16A     -1.655989    17A     -1.436841    18A     -1.105172
      19A     -1.003202    20A     -0.944418    21A     -0.876034
      22A     -0.869319    23A     -0.863358    24A     -0.849447
      25A     -0.838848    26A     -0.807729    27A     -0.753111
      28A     -0.740142    29A     -0.726802    30A     -0.724608
      31A     -0.707602    32A     -0.696540    33A     -0.692020
      34A     -0.677481    35A     -0.674665    36A     -0.672389
      37A     -0.659465    38A     -0.656798    39A     -0.621487
      40A     -0.550613    41A     -0.507577

  @DF-RHF Final Energy:  -786.58561479453192

   => Energetics <=

    Nuclear Repulsion Energy =            671.0102978959055235
    One-Electron Energy =               -2429.2100523276603781
    Two-Electron Energy =                 971.6141396372230474
    DFT Exchange-Correlation Energy =       0.0000000000000000
    Empirical Dispersion Energy =           0.0000000000000000
    PCM Polarization Energy =               0.0000000000000000
    EFP Energy =                            0.0000000000000000
    Total Energy =                       -786.5856147945318071
    Molecular point group: c1
  Basis Set: CC-PVTZ
  Basis Set:

  -Total Gradient:
     Atom            X                  Y                   Z
    ------   -----------------  -----------------  -----------------
       1        0.000958844103     0.000002722553    -0.000003815172
       2       -0.001113223037    -0.000057261766     0.000169291228
       3       -0.000260671269     0.000178292645    -0.000885609128
       4        0.000025762411     0.000114415779     0.000079225479
       5       -0.000031528970    -0.000083602043    -0.000051148593
       6        0.000409742983    -0.000146651157     0.000684358196
       7       -0.000015313999    -0.000024798114    -0.000001010509
       8       -0.000010088143    -0.000023655104    -0.000005729480
       9        0.000003505847    -0.000025384606    -0.000065340033
      10        0.000036481308     0.000025477500     0.000036026484
      11       -0.000023777500     0.000050865627     0.000006981890
      12        0.000020266271    -0.000010421308     0.000036769630

  **** Optimization is complete! (in 7 steps) ****
    Final optimized geometry and variables:
    Molecular point group: c1

    Geometry (in Angstrom), charge = 0, multiplicity = 1:

    H            0.571818145972     1.957648416413     1.013820405705
    O            0.570109175655     1.797402351267     0.086926165348
    C            0.572962808509     0.450284584523    -0.221810136965
    C           -0.637249916197     0.163792359841    -1.110708410193
    C            0.640181541990    -0.414835516999     1.034712839680
    H            1.452811676545     0.202435099782    -0.802721745617
    F           -0.585064834457     0.934376576586    -2.168921876837
    F           -0.639239301886    -1.082819927447    -1.523386692685
    F           -1.771546925504     0.392019387390    -0.498044481948
    F            1.732437392751    -0.104325498393     1.702666674924
    F            0.688527819275    -1.688679089560     0.753023862444
    F           -0.376249527336    -0.204254646055     1.838383935301

  Mulliken Charges: (a.u.)
   Center  Symbol    Alpha    Beta     Spin     Total
       1     H     0.38210  0.38210  0.00000  0.23580
       2     O     4.18991  4.18991  0.00000 -0.37982
       3     C     2.99602  2.99602  0.00000  0.00796
       4     C     2.67981  2.67981  0.00000  0.64038
       5     C     2.68826  2.68826  0.00000  0.62347
       6     H     0.43762  0.43762  0.00000  0.12476
       7     F     4.60213  4.60213  0.00000 -0.20427
       8     F     4.60628  4.60628  0.00000 -0.21255
       9     F     4.60481  4.60481  0.00000 -0.20962
      10     F     4.60871  4.60871  0.00000 -0.21743
      11     F     4.59812  4.59812  0.00000 -0.19624
      12     F     4.60622  4.60622  0.00000 -0.21245

   Total alpha = 41.00000, Total beta = 41.00000, Total charge = -0.00000
