  ==> Input File <==

--------------------------------------------------------------------------
set {
	reference rhf
	basis cc-pvtz
}

set_num_threads( 4 )
memory 2 gb

molecule MOL {
0 1

H	 -3.830087	 -2.186833	 0.475042
C	 -2.760414	 -2.099619	 0.494201
C	 -1.999647	 -3.074095	 1.114904
C	 -2.147149	 -1.013786	 -0.101498
H	 -2.476346	 -3.916627	 1.577070
C	 -0.625168	 -2.961332	 1.139113
H	 -2.738023	 -0.258615	 -0.582598
C	 -0.770967	 -0.899457	 -0.078094
H	 -0.020983	 -3.706528	 1.615245
C	 -0.005752	 -1.873828	 0.542839
H	 -0.292893	 -0.059803	 -0.538483
C	 1.482314	 -1.798134	 0.596222
O	 1.968286	 -0.725612	 -0.000027
O	 2.165748	 -2.613634	 1.118772
C	 3.373556	 -0.568203	 0.000011
H	 3.695416	 -0.031588	 -0.879663
H	 3.782700	 -1.565294	 -0.000152
H	 3.695405	 -0.031851	 0.879862

	symmetry c1
}
set optking {
	frozen_dihedral = ("
		12 13 15 16
	")
}

ee = optimize('scf')
oeprop('DIPOLE', 'QUADRUPOLE', 'MULLIKEN_CHARGES')
f=open( 'psi4out.xyz', 'w' )
f.write( "18  " )
f.write( str(ee) + "\n" )
f.write( MOL.save_string_xyz() )
f.close()
--------------------------------------------------------------------------

    Molecular point group: c1
  Charge       = 0
  Multiplicity = 1
  Basis Set: CC-PVTZ
  Basis Set:
  @DF-RHF Final Energy:  -457.50734654455744
    Total Energy =                       -457.5073465445578904
    Molecular point group: c1
  Basis Set: CC-PVTZ
  Basis Set:
  Basis Set: CC-PVTZ
  Basis Set:
  @DF-RHF Final Energy:  -457.50859662527870
    Total Energy =                       -457.5085966252786420
  Basis Set: CC-PVTZ
  Basis Set:
  Basis Set: CC-PVTZ
  Basis Set:
  @DF-RHF Final Energy:  -457.50889075537748
    Total Energy =                       -457.5088907553781610
  Basis Set: CC-PVTZ
  Basis Set:
  Basis Set: CC-PVTZ
  Basis Set:
  @DF-RHF Final Energy:  -457.50884180999191
    Total Energy =                       -457.5088418099915089
  Basis Set: CC-PVTZ
  Basis Set:
  Basis Set: CC-PVTZ
  Basis Set:
  @DF-RHF Final Energy:  -457.50906986049051
    Total Energy =                       -457.5090698604913086
  Basis Set: CC-PVTZ
  Basis Set:
  Charge       = 0
  Multiplicity = 1
  Basis Set: CC-PVTZ
  Basis Set:

    Orbital Energies (a.u.)
    -----------------------

    Doubly Occupied:

       1A    -20.600434     2A    -20.534021     3A    -11.372523
       4A    -11.280565     5A    -11.244771     6A    -11.243324
       7A    -11.242461     8A    -11.239820     9A    -11.235867
      10A    -11.235102    11A     -1.475660    12A     -1.368839
      13A     -1.170545    14A     -1.051683    15A     -1.028839
      16A     -0.981172    17A     -0.862973    18A     -0.838242
      19A     -0.780881    20A     -0.745001    21A     -0.688154
      22A     -0.680718    23A     -0.676180    24A     -0.634130
      25A     -0.629889    26A     -0.601080    27A     -0.587559
      28A     -0.568569    29A     -0.528444    30A     -0.520108
      31A     -0.509820    32A     -0.501829    33A     -0.462655
      34A     -0.449400    35A     -0.350096    36A     -0.346042

  @DF-RHF Final Energy:  -457.50907287987360

   => Energetics <=

    Nuclear Repulsion Energy =            493.7924074367649041
    One-Electron Energy =               -1602.0681678857299630
    Two-Electron Energy =                 650.7666875690913457
    DFT Exchange-Correlation Energy =       0.0000000000000000
    Empirical Dispersion Energy =           0.0000000000000000
    PCM Polarization Energy =               0.0000000000000000
    EFP Energy =                            0.0000000000000000
    Total Energy =                       -457.5090728798736563
    Molecular point group: c1
  Basis Set: CC-PVTZ
  Basis Set:

  -Total Gradient:
     Atom            X                  Y                   Z
    ------   -----------------  -----------------  -----------------
       1        0.000000007922     0.000000486673    -0.000000444080
       2       -0.000002465403    -0.000007043369     0.000005174056
       3       -0.000012489920     0.000004291367    -0.000004854725
       4        0.000003582339    -0.000000766633     0.000000163073
       5       -0.000000585903    -0.000000180754    -0.000000750941
       6        0.000011238375     0.000005060185    -0.000003054607
       7       -0.000002024760     0.000000025197     0.000001063594
       8       -0.000011055696     0.000006389395    -0.000002032040
       9       -0.000001645889     0.000001842035     0.000000220633
      10       -0.000023306222     0.000010837460     0.000008577238
      11       -0.000003708217    -0.000006994362     0.000002880809
      12        0.000097633643    -0.000759073303    -0.001326850489
      13        0.000001646397     0.000823252310     0.001666316847
      14        0.000033299587     0.000053875842    -0.000014116862
      15       -0.000209775071     0.001332848060     0.000515341765
      16        0.000091988674    -0.001429947074    -0.000818100927
      17        0.000050821871    -0.000052271363    -0.000003574496
      18       -0.000023161721     0.000017368335    -0.000025958850

  **** Optimization is complete! (in 6 steps) ****
    Final optimized geometry and variables:
    Molecular point group: c1

    Geometry (in Angstrom), charge = 0, multiplicity = 1:

    H           -4.025760914430    -0.430414757469    -0.028943768053
    C           -2.955835362508    -0.348190102980    -0.001428013172
    C           -2.204314260775    -1.327128663389     0.623639138024
    C           -2.332782516616     0.735638463361    -0.590462677896
    H           -2.688416184302    -2.168190210309     1.080899175717
    C           -0.829571394960    -1.220679233752     0.658776621997
    H           -2.916199472132     1.494530017012    -1.074881943418
    C           -0.956156761910     0.843518405695    -0.556278724170
    H           -0.232797664561    -1.969398781642     1.138747072348
    C           -0.200219689496    -0.135300885177     0.068828856779
    H           -0.470981125193     1.681914247496    -1.011446279063
    C            1.288744486502    -0.068081318795     0.134279023523
    O            1.779594278750     1.007566198580    -0.452995331135
    O            1.959984745170    -0.891429883894     0.659656843534
    C            3.183818493820     1.173670797542    -0.492642312433
    H            3.399958679203     1.729159713026    -1.391341573340
    H            3.681998195428     0.219058442283    -0.520146830501
    H            3.511724556778     1.726515431316     0.376234626636

  Mulliken Charges: (a.u.)
   Center  Symbol    Alpha    Beta     Spin     Total
       1     H     0.42032  0.42032  0.00000  0.15936
       2     C     3.06975  3.06975  0.00000 -0.13950
       3     C     3.07555  3.07555  0.00000 -0.15109
       4     C     3.07492  3.07492  0.00000 -0.14985
       5     H     0.42044  0.42044  0.00000  0.15913
       6     C     3.07588  3.07588  0.00000 -0.15175
       7     H     0.42193  0.42193  0.00000  0.15613
       8     C     3.08206  3.08206  0.00000 -0.16412
       9     H     0.40650  0.40650  0.00000  0.18701
      10     C     3.01651  3.01651  0.00000 -0.03303
      11     H     0.41112  0.41112  0.00000  0.17775
      12     C     2.77749  2.77749  0.00000  0.44503
      13     O     4.14944  4.14944  0.00000 -0.29887
      14     O     4.21143  4.21143  0.00000 -0.42286
      15     C     3.03861  3.03861  0.00000 -0.07721
      16     H     0.44779  0.44779  0.00000  0.10441
      17     H     0.44510  0.44510  0.00000  0.10980
      18     H     0.45517  0.45517  0.00000  0.08967

   Total alpha = 36.00000, Total beta = 36.00000, Total charge =  0.00000
