                              Psi4 1.0.54 Driver

  ==> Input File <==

--------------------------------------------------------------------------
set {
	reference rhf
	basis cc-pvtz
}

set_num_threads( 4 )
memory 2 gb

molecule MOL {
0 1

O	 -1.952851	 0.507202	 0.845562
C	 -1.081510	 0.147522	 0.122720
C	 0.327029	 -0.064006	 0.641890
C	 -1.322846	 -0.099083	 -1.347386
C	 1.349460	 -0.017068	 -0.500215
H	 0.399029	 -1.014606	 1.159950
H	 0.538021	 0.726928	 1.350471
C	 2.779782	 -0.209014	 -0.009215
H	 1.115007	 -0.782959	 -1.233891
H	 1.259071	 0.936707	 -1.006644
H	 3.481860	 -0.160270	 -0.833072
H	 2.903471	 -1.171535	 0.475559
H	 3.052569	 0.559584	 0.705428
H	 -0.584363	 0.419418	 -1.948682
H	 -2.315576	 0.223973	 -1.620550
H	 -1.216876	 -1.159282	 -1.553787

	symmetry c1
}
set optking {
	frozen_dihedral = ("
		4 2 3 5
	")
}

ee,wfn = optimize('scf', return_wfn=True)
oeprop( wfn, 'DIPOLE', 'QUADRUPOLE', 'MULLIKEN_CHARGES')
f=open( 'psi4out.xyz', 'w' )
f.write( "16  " )
f.write( str(ee) + "\n" )
f.write( MOL.save_string_xyz() )
f.close()
--------------------------------------------------------------------------

    Molecular point group: c1
  Charge       = 0
  Multiplicity = 1
  Basis Set: CC-PVTZ
  Basis Set:
  @DF-RHF Final Energy:  -270.12261495166570
    Total Energy =                       -270.1226149516658097
    Molecular point group: c1
  Basis Set: CC-PVTZ
  Basis Set:
  Basis Set: CC-PVTZ
  Basis Set:
  @DF-RHF Final Energy:  -269.93149577870804
    Total Energy =                       -269.9314957787079265
  Basis Set: CC-PVTZ
  Basis Set:
  Basis Set: CC-PVTZ
  Basis Set:
  @DF-RHF Final Energy:  -270.05585452031249
    Total Energy =                       -270.0558545203122094
  Basis Set: CC-PVTZ
  Basis Set:
  Basis Set: CC-PVTZ
  Basis Set:
  @DF-RHF Final Energy:  -270.11977543602723
    Total Energy =                       -270.1197754360271688
  Basis Set: CC-PVTZ
  Basis Set:
  @DF-RHF Final Energy:  -270.12593533655735
    Total Energy =                       -270.1259353365571201
  @DF-RHF Final Energy:  -270.12701982593626
    Total Energy =                       -270.1270198259360313
  @DF-RHF Final Energy:  -270.12603230855001
    Total Energy =                       -270.1260323085502932
  @DF-RHF Final Energy:  -270.12720788682805
    Total Energy =                       -270.1272078868282733
  @DF-RHF Final Energy:  -270.12729597188775
    Total Energy =                       -270.1272959718875200
  Basis Set: CC-PVTZ
  Basis Set:
  @DF-RHF Final Energy:  -270.12731034533545
    Total Energy =                       -270.1273103453352746
  Basis Set: CC-PVTZ
  Basis Set:
  Basis Set: CC-PVTZ
  Basis Set:
  @DF-RHF Final Energy:  -270.12728044837877
    Total Energy =                       -270.1272804483788263
  Basis Set: CC-PVTZ
  Basis Set:
  Basis Set: CC-PVTZ
  Basis Set:
  @DF-RHF Final Energy:  -270.12731487800670
    Total Energy =                       -270.1273148780067004
  Basis Set: CC-PVTZ
  Basis Set:
  Charge       = 0
  Multiplicity = 1
  Basis Set: CC-PVTZ
  Basis Set:

    Orbital Energies (a.u.)
    -----------------------

    Doubly Occupied:

       1A    -20.535458     2A    -11.321049     3A    -11.231993
       4A    -11.229784     5A    -11.226926     6A    -11.219351
       7A     -1.396753     8A     -1.086175     9A     -1.010329
      10A     -0.953231    11A     -0.835481    12A     -0.734514
      13A     -0.657767    14A     -0.654735    15A     -0.626808
      16A     -0.600538    17A     -0.578205    18A     -0.553168
      19A     -0.540147    20A     -0.522145    21A     -0.506070
      22A     -0.490560    23A     -0.472390    24A     -0.400402

  @DF-RHF Final Energy:  -270.12731503855434

   => Energetics <=

    Nuclear Repulsion Energy =            237.1467337373128714
    One-Electron Energy =                -835.7801412552415741
    Two-Electron Energy =                 328.5060924793745016
    DFT Exchange-Correlation Energy =       0.0000000000000000
    Empirical Dispersion Energy =           0.0000000000000000
    PCM Polarization Energy =               0.0000000000000000
    EFP Energy =                            0.0000000000000000
    Total Energy =                       -270.1273150385542294
    Molecular point group: c1
  Basis Set: CC-PVTZ
  Basis Set:

  -Total Gradient:
     Atom            X                  Y                   Z
    ------   -----------------  -----------------  -----------------
       1        0.000010683553    -0.000002985098    -0.000013097781
       2       -0.000765974153    -0.002285029410    -0.000359891385
       3        0.000432229883     0.002264212000     0.000679406981
       4        0.000466713190     0.001183189590     0.000127881399
       5       -0.000129251108    -0.001154309746    -0.000426792005
       6       -0.000000205147     0.000002552980    -0.000006663816
       7       -0.000008876185     0.000001562202    -0.000013798335
       8        0.000002112804     0.000004548717     0.000002043627
       9       -0.000003564240     0.000003747523    -0.000000157270
      10        0.000001557802    -0.000007256407     0.000005721396
      11        0.000000290184    -0.000002929402     0.000004147538
      12        0.000003234838     0.000004933304    -0.000002935891
      13        0.000001243788    -0.000003281687    -0.000003395092
      14       -0.000006391388    -0.000004610298     0.000001597700
      15       -0.000000568695    -0.000001776486     0.000002455033
      16       -0.000003235130    -0.000002567781     0.000003477904

  **** Optimization is complete! (in 13 steps) ****
    Final optimized geometry and variables:
    Molecular point group: c1

    Geometry (in Angstrom), charge = 0, multiplicity = 1:

    O           -2.106555340625     0.645679526614    -0.007780559387
    C           -1.036165264268     0.283267704302    -0.374663552008
    C           -0.018927196148    -0.210917913657     0.643098696013
    C           -0.677483648348     0.288726753211    -1.842087085149
    C            1.450026047706    -0.242215285529     0.228254873449
    H           -0.339216578279    -1.215812524650     0.910083656827
    H           -0.156579265169     0.392304941226     1.531728035728
    C            2.348040548913    -0.750917232893     1.351430037568
    H            1.579702784147    -0.873624369512    -0.643750103095
    H            1.772704231258     0.753416589761    -0.060938722185
    H            3.386665655220    -0.764716616428     1.043440202575
    H            2.075026235738    -1.759138924944     1.643861557872
    H            2.270554539808    -0.120245051631     2.230153515483
    H            0.159933176973     0.952183143604    -2.023190821944
    H           -1.531044214250     0.616421676932    -2.414747516761
    H           -0.378626006863    -0.702409302153    -2.164990219547

  Mulliken Charges: (a.u.)
   Center  Symbol    Alpha    Beta     Spin     Total
       1     O     4.17527  4.17527  0.00000 -0.35054
       2     C     2.86086  2.86086  0.00000  0.27827
       3     C     3.09576  3.09576  0.00000 -0.19152
       4     C     3.16330  3.16330  0.00000 -0.32659
       5     C     3.09620  3.09620  0.00000 -0.19240
       6     H     0.44296  0.44296  0.00000  0.11407
       7     H     0.43694  0.43694  0.00000  0.12613
       8     C     3.14979  3.14979  0.00000 -0.29958
       9     H     0.45072  0.45072  0.00000  0.09856
      10     H     0.44883  0.44883  0.00000  0.10234
      11     H     0.44606  0.44606  0.00000  0.10788
      12     H     0.45371  0.45371  0.00000  0.09257
      13     H     0.45190  0.45190  0.00000  0.09620
      14     H     0.44772  0.44772  0.00000  0.10457
      15     H     0.43204  0.43204  0.00000  0.13592
      16     H     0.44794  0.44794  0.00000  0.10413

   Total alpha = 24.00000, Total beta = 24.00000, Total charge = -0.00000

*** Psi4 exiting successfully. Buy a developer a beer!
