  ==> Input File <==

--------------------------------------------------------------------------
set {
	reference rhf
	basis 6-31G*
}

set_num_threads( 4 )
memory 2 gb

molecule MOL {
0 1

H	 3.039413	 0.469223	 1.032489
N	 2.170439	 -0.029137	 1.038272
C	 1.267428	 0.496480	 0.024474
H	 1.776752	 0.086152	 1.952949
C	 -0.016086	 -0.325158	 -0.029487
H	 1.774372	 0.432738	 -0.933639
H	 1.017345	 1.549390	 0.176849
C	 -1.282277	 0.529072	 0.046735
H	 -0.012495	 -0.908639	 -0.945788
H	 -0.015903	 -1.041248	 0.791956
C	 -2.563920	 -0.301775	 -0.006060
H	 -1.284084	 1.244622	 -0.773004
H	 -1.271387	 1.115393	 0.963286
H	 -2.621848	 -0.873522	 -0.927727
H	 -3.445135	 0.329952	 0.047812
H	 -2.609542	 -1.004582	 0.821105

	symmetry c1
}
set optking {
	frozen_dihedral = ("
		6 3 5 9
	")
}

ee = optimize('scf')
oeprop('DIPOLE', 'QUADRUPOLE', 'MULLIKEN_CHARGES')
f=open( 'psi4out.xyz', 'w' )
f.write( "16  " )
f.write( str(ee) + "\n" )
f.write( MOL.save_string_xyz() )
f.close()
--------------------------------------------------------------------------

    Molecular point group: c1
  Charge       = 0
  Multiplicity = 1
  Basis Set: 6-31G*
  Basis Set:
  @DF-RHF Final Energy:  -212.31079884403485
    Total Energy =                       -212.3107988440349345
    Molecular point group: c1
  Basis Set: 6-31G*
  Basis Set:
  Basis Set: 6-31G*
  Basis Set:
  @DF-RHF Final Energy:  -212.31113617937194
    Total Energy =                       -212.3111361793717720
  Basis Set: 6-31G*
  Basis Set:
  Basis Set: 6-31G*
  Basis Set:
  @DF-RHF Final Energy:  -212.31125169538649
    Total Energy =                       -212.3112516953864883
  Basis Set: 6-31G*
  Basis Set:
  Basis Set: 6-31G*
  Basis Set:
  @DF-RHF Final Energy:  -212.31125065271547
    Total Energy =                       -212.3112506527154437
  Basis Set: 6-31G*
  Basis Set:
  Basis Set: 6-31G*
  Basis Set:
  @DF-RHF Final Energy:  -212.31125335080094
    Total Energy =                       -212.3112533508010529
  Basis Set: 6-31G*
  Basis Set:
  Charge       = 0
  Multiplicity = 1
  Basis Set: 6-31G*
  Basis Set:

    Orbital Energies (a.u.)
    -----------------------

    Doubly Occupied:

       1A    -15.532501     2A    -11.240158     3A    -11.215470
       4A    -11.209694     5A    -11.208038     6A     -1.175350
       7A     -1.058483     8A     -0.956640     9A     -0.846030
      10A     -0.790987    11A     -0.667317    12A     -0.625470
      13A     -0.613375    14A     -0.576403    15A     -0.555251
      16A     -0.529406    17A     -0.506243    18A     -0.472047
      19A     -0.464964    20A     -0.454004    21A     -0.379993

  @DF-RHF Final Energy:  -212.31125354169120

   => Energetics <=

    Nuclear Repulsion Energy =            186.3917729081890116
    One-Electron Energy =                -655.2504047426343732
    Two-Electron Energy =                 256.5473782927540469
    DFT Exchange-Correlation Energy =       0.0000000000000000
    Empirical Dispersion Energy =           0.0000000000000000
    PCM Polarization Energy =               0.0000000000000000
    EFP Energy =                            0.0000000000000000
    Total Energy =                       -212.3112535416913147
    Molecular point group: c1
  Basis Set: 6-31G*
  Basis Set:

  -Total Gradient:
     Atom            X                  Y                   Z
    ------   -----------------  -----------------  -----------------
       1        0.000003462621    -0.000001764100     0.000003218556
       2       -0.000018591176     0.000014628662    -0.000005968296
       3       -0.001571085850     0.002538319520    -0.001098128779
       4        0.000004210763    -0.000002138408     0.000005309728
       5        0.001482323799    -0.002418180401     0.001443174342
       6        0.001080566822    -0.001743056093     0.000678073551
       7        0.000003575286    -0.000001341788     0.000004335449
       8        0.000009311759    -0.000005681992    -0.000006857305
       9       -0.000991945425     0.001627047323    -0.001025258809
      10       -0.000001117682    -0.000005510968     0.000002949439
      11       -0.000002047447     0.000000469952     0.000004586241
      12        0.000001882923     0.000000739317    -0.000002506192
      13        0.000000570904    -0.000003840669    -0.000002147444
      14        0.000000340455     0.000001311244    -0.000000817453
      15       -0.000002208036    -0.000000989294     0.000001715518
      16        0.000000750281    -0.000000012305    -0.000001678546

  **** Optimization is complete! (in 6 steps) ****
    Final optimized geometry and variables:
    Molecular point group: c1

    Geometry (in Angstrom), charge = 0, multiplicity = 1:

    H            3.122125905236     0.394580117167     0.779342416164
    N            2.256434554186    -0.110004541090     0.793801024646
    C            1.334236212239     0.423575797759    -0.202399992917
    H            1.876041715208    -0.004200505401     1.715456755718
    C            0.035041489989    -0.404126597710    -0.249913196397
    H            1.843902627306     0.366862010518    -1.157751935442
    H            1.094660698630     1.475118721220    -0.033290135261
    C           -1.235237037651     0.448582252973    -0.191374460487
    H            0.010382979866    -0.996493691529    -1.160407683251
    H            0.037606123187    -1.110608232654     0.574920002095
    C           -2.514736987851    -0.384088419177    -0.251289438597
    H           -1.230769939457     1.161752456870    -1.013388654602
    H           -1.231089898758     1.040039847898     0.722486692951
    H           -2.565632768690    -0.958497182757    -1.171976304714
    H           -3.397741805788     0.245881372764    -0.205277127505
    H           -2.564634421049    -1.085488612278     0.576875361440

  Mulliken Charges: (a.u.)
   Center  Symbol    Alpha    Beta     Spin     Total
       1     H     0.33368  0.33368  0.00000  0.33263
       2     N     3.92085  3.92085  0.00000 -0.84171
       3     C     3.06453  3.06453  0.00000 -0.12906
       4     H     0.33611  0.33611  0.00000  0.32779
       5     C     3.15609  3.15609  0.00000 -0.31218
       6     H     0.41823  0.41823  0.00000  0.16354
       7     H     0.43114  0.43114  0.00000  0.13772
       8     C     3.15603  3.15603  0.00000 -0.31207
       9     H     0.41870  0.41870  0.00000  0.16260
      10     H     0.41475  0.41475  0.00000  0.17051
      11     C     3.23948  3.23948  0.00000 -0.47896
      12     H     0.42317  0.42317  0.00000  0.15365
      13     H     0.42500  0.42500  0.00000  0.15000
      14     H     0.42121  0.42121  0.00000  0.15758
      15     H     0.41962  0.41962  0.00000  0.16075
      16     H     0.42139  0.42139  0.00000  0.15722

   Total alpha = 21.00000, Total beta = 21.00000, Total charge = -0.00000
