  ==> Input File <==

--------------------------------------------------------------------------
set {
	reference rhf
	basis cc-pvtz
}

set_num_threads( 4 )
memory 2 gb

molecule MOL {
0 1

H	 0.930443	 -1.758876	 -0.842373
C	 0.257302	 -0.924106	 -1.046059
N	 -0.537714	 -0.645117	 0.000000
O	 0.262566	 -0.355300	 -2.091597
C	 -1.522613	 0.412524	 0.000000
H	 -0.434061	 -1.202358	 0.811617
H	 -2.150256	 0.356137	 -0.880771
H	 -1.005621	 1.357208	 0.000000
H	 -2.150256	 0.356137	 0.880771

	symmetry c1
}
set optking {
	frozen_dihedral = ("
		6 3 5 7
	")
}

ee = optimize('scf')
oeprop('DIPOLE', 'QUADRUPOLE', 'MULLIKEN_CHARGES')
f=open( 'psi4out.xyz', 'w' )
f.write( "9  " )
f.write( str(ee) + "\n" )
f.write( MOL.save_string_xyz() )
f.close()
--------------------------------------------------------------------------

    Molecular point group: c1
  Charge       = 0
  Multiplicity = 1
  Basis Set: CC-PVTZ
  Basis Set:
  @DF-RHF Final Energy:  -208.04296726511308
    Total Energy =                       -208.0429672651129351
    Molecular point group: c1
  Basis Set: CC-PVTZ
  Basis Set:
  Basis Set: CC-PVTZ
  Basis Set:
  @DF-RHF Final Energy:  -208.04357423906870
    Total Energy =                       -208.0435742390687324
  Basis Set: CC-PVTZ
  Basis Set:
  Basis Set: CC-PVTZ
  Basis Set:
  @DF-RHF Final Energy:  -208.04364773860357
    Total Energy =                       -208.0436477386034539
  Basis Set: CC-PVTZ
  Basis Set:
  Basis Set: CC-PVTZ
  Basis Set:
  @DF-RHF Final Energy:  -208.04357127018420
    Total Energy =                       -208.0435712701842590
  Basis Set: CC-PVTZ
  Basis Set:
  Basis Set: CC-PVTZ
  Basis Set:
  @DF-RHF Final Energy:  -208.04366463141031
    Total Energy =                       -208.0436646314103655
  Basis Set: CC-PVTZ
  Basis Set:
  Basis Set: CC-PVTZ
  Basis Set:
  @DF-RHF Final Energy:  -208.04366726893056
    Total Energy =                       -208.0436672689305624
  Basis Set: CC-PVTZ
  Basis Set:
  Charge       = 0
  Multiplicity = 1
  Basis Set: CC-PVTZ
  Basis Set:

    Orbital Energies (a.u.)
    -----------------------

    Doubly Occupied:

       1A    -20.516625     2A    -15.584389     3A    -11.335976
       4A    -11.260516     5A     -1.393928     6A     -1.239340
       7A     -0.969776     8A     -0.809288     9A     -0.749155
      10A     -0.645801    11A     -0.629972    12A     -0.596123
      13A     -0.559551    14A     -0.536951    15A     -0.428246
      16A     -0.396763

  @DF-RHF Final Energy:  -208.04366996157745

   => Energetics <=

    Nuclear Repulsion Energy =            122.9390583301171347
    One-Electron Energy =                -526.6606558839478112
    Two-Electron Energy =                 195.6779275922532975
    DFT Exchange-Correlation Energy =       0.0000000000000000
    Empirical Dispersion Energy =           0.0000000000000000
    PCM Polarization Energy =               0.0000000000000000
    EFP Energy =                            0.0000000000000000
    Total Energy =                       -208.0436699615773932
    Molecular point group: c1
  Basis Set: CC-PVTZ
  Basis Set:

  -Total Gradient:
     Atom            X                  Y                   Z
    ------   -----------------  -----------------  -----------------
       1       -0.000015754090     0.000025144173    -0.000016619507
       2       -0.000042053007    -0.000003267268     0.000125188512
       3        0.000097352193    -0.000053879040     0.000067293552
       4        0.000011802879     0.000036327750    -0.000114728585
       5       -0.000027147630     0.000076992034    -0.000053034438
       6       -0.000043932094    -0.000024391703    -0.000013660346
       7       -0.000005197508    -0.000022996622     0.000008162077
       8        0.000005188783    -0.000023074028    -0.000004648252
       9        0.000019740476    -0.000010855295     0.000002046984

  **** Optimization is complete! (in 7 steps) ****
    Final optimized geometry and variables:
    Molecular point group: c1

    Geometry (in Angstrom), charge = 0, multiplicity = 1:

    H            1.327943317140    -1.398373194712    -0.083148488397
    C            0.653387311711    -0.559571258974    -0.264580729367
    N           -0.154050038317    -0.304642945518     0.775903040512
    O            0.654335182273     0.043161483456    -1.291215081918
    C           -1.110523427640     0.779919859707     0.761278808931
    H           -0.044072417245    -0.845628828820     1.596534811988
    H           -1.749372017579     0.708055968936    -0.107056668293
    H           -0.616146015266     1.742527453714     0.740064923496
    H           -1.719660440354     0.717577289095     1.651358222914

  Mulliken Charges: (a.u.)
   Center  Symbol    Alpha    Beta     Spin     Total
       1     H     0.46440  0.46440  0.00000  0.07121
       2     C     2.87951  2.87951  0.00000  0.24097
       3     N     3.60565  3.60565  0.00000 -0.21131
       4     O     4.21440  4.21440  0.00000 -0.42880
       5     C     3.07509  3.07509  0.00000 -0.15019
       6     H     0.41002  0.41002  0.00000  0.17996
       7     H     0.44523  0.44523  0.00000  0.10953
       8     H     0.45114  0.45114  0.00000  0.09773
       9     H     0.45456  0.45456  0.00000  0.09089

   Total alpha = 16.00000, Total beta = 16.00000, Total charge =  0.00000
