  ==> Input File <==

--------------------------------------------------------------------------
set {
	reference rhf
	basis 6-31G*
}

set_num_threads( 1 )
memory 2 gb

molecule MOL {
0 1

O	 3.225979	 0.970355	 -0.599647
C	 2.701189	 0.057885	 -0.047330
C	 1.245376	 -0.013843	 0.345420
O	 3.347903	 -1.046386	 0.304773
C	 0.455112	 1.231400	 -0.050772
H	 0.838542	 -0.913825	 -0.103701
H	 1.208210	 -0.175333	 1.419774
C	 -0.998893	 1.219485	 0.433193
H	 0.482531	 1.345121	 -1.130325
H	 0.957290	 2.103070	 0.354729
C	 -1.213960	 1.774216	 1.844266
H	 -1.354515	 0.192103	 0.405924
H	 -1.619774	 1.772030	 -0.270519
C	 -2.661096	 1.639346	 2.322397
H	 -0.556137	 1.252558	 2.537779
H	 -0.928022	 2.822916	 1.882196
C	 -2.888910	 2.195163	 3.729273
H	 -2.951038	 0.590217	 2.300119
H	 -3.320476	 2.151684	 1.623522
C	 -4.335726	 2.053154	 4.200714
H	 -2.230062	 1.684984	 4.428758
H	 -2.603760	 3.244894	 3.752432
H	 -4.465428	 2.455912	 5.200499
H	 -4.640513	 1.010636	 4.222117
H	 -5.017055	 2.582075	 3.540179
C	 4.728119	 -1.109107	 -0.004993
H	 4.882018	 -1.033965	 -1.071845
H	 5.068212	 -2.067527	 0.355250
H	 5.265056	 -0.311663	 0.488280

	symmetry c1
}
set optking {
	frozen_dihedral = ("
		21 17 14 11,
		17 14 11 15,
		15 11 8 5,
		6 3 5 9,
		2 4 26 27,
		1 2 4 26,
		6 3 2 1
	")
}

ee = energy('scf')
oeprop('DIPOLE', 'QUADRUPOLE', 'MULLIKEN_CHARGES')
f=open( 'psi4out.xyz', 'w' )
f.write( "29  " )
f.write( str(ee) + "\n" )
f.write( MOL.save_string_xyz() )
f.close()
--------------------------------------------------------------------------

    Molecular point group: c1

    Geometry (in Angstrom), charge = 0, multiplicity = 1:

       Center              X                  Y                   Z               Mass
    ------------   -----------------  -----------------  -----------------  -----------------
           O          2.856333242340     0.172226895076    -1.729844779480    15.994914619560
           C          2.331543242340    -0.740243104924    -1.177527779480    12.000000000000
           C          0.875730242340    -0.811971104924    -0.784777779480    12.000000000000
           O          2.978257242340    -1.844514104924    -0.825424779480    15.994914619560
           C          0.085466242340     0.433271895076    -1.180969779480    12.000000000000
           H          0.468896242340    -1.711953104924    -1.233898779480     1.007825032070
           H          0.838564242340    -0.973461104924     0.289576220520     1.007825032070
           C         -1.368538757660     0.421356895076    -0.697004779480    12.000000000000
           H          0.112885242340     0.546992895076    -2.260522779480     1.007825032070
           H          0.587644242340     1.304941895076    -0.775468779480     1.007825032070
           C         -1.583605757660     0.976087895076     0.714068220520    12.000000000000
           H         -1.724160757660    -0.606025104924    -0.724273779480     1.007825032070
           H         -1.989419757660     0.973901895076    -1.400716779480     1.007825032070
           C         -3.030741757660     0.841217895076     1.192199220520    12.000000000000
           H         -0.925782757660     0.454429895076     1.407581220520     1.007825032070
           H         -1.297667757660     2.024787895076     0.751998220520     1.007825032070
           C         -3.258555757660     1.397034895076     2.599075220520    12.000000000000
           H         -3.320683757660    -0.207911104924     1.169921220520     1.007825032070
           H         -3.690121757660     1.353555895076     0.493324220520     1.007825032070
           C         -4.705371757660     1.255025895076     3.070516220520    12.000000000000
           H         -2.599707757660     0.886855895076     3.298560220520     1.007825032070
           H         -2.973405757660     2.446765895076     2.622234220520     1.007825032070
           H         -4.835073757660     1.657783895076     4.070301220520     1.007825032070
           H         -5.010158757660     0.212507895076     3.091919220520     1.007825032070
           H         -5.386700757660     1.783946895076     2.409981220520     1.007825032070
           C          4.358473242340    -1.907235104924    -1.135190779480    12.000000000000
           H          4.512372242340    -1.832093104924    -2.202042779480     1.007825032070
           H          4.698566242340    -2.865655104924    -0.774947779480     1.007825032070
           H          4.895410242340    -1.109791104924    -0.641917779480     1.007825032070

  Charge       = 0
  Multiplicity = 1
  Basis Set: 6-31G*
  Basis Set:

    Orbital Energies (a.u.)
    -----------------------

    Doubly Occupied:

       1A    -20.603529     2A    -20.545403     3A    -11.372162
       4A    -11.280775     5A    -11.235640     6A    -11.218378
       7A    -11.216974     8A    -11.215851     9A    -11.215543
      10A    -11.214061    11A    -11.208830    12A     -1.469243
      13A     -1.362674    14A     -1.097542    15A     -1.067039
      16A     -1.019812    17A     -0.977382    18A     -0.928061
      19A     -0.859628    20A     -0.799627    21A     -0.790330
      22A     -0.765853    23A     -0.700697    24A     -0.682395
      25A     -0.672515    26A     -0.649625    27A     -0.628675
      28A     -0.604417    29A     -0.595794    30A     -0.581193
      31A     -0.566271    32A     -0.547899    33A     -0.534101
      34A     -0.530009    35A     -0.515431    36A     -0.505967
      37A     -0.501286    38A     -0.476408    39A     -0.469673
      40A     -0.462145    41A     -0.459505    42A     -0.456034
      43A     -0.441359    44A     -0.434315

  @DF-RHF Final Energy:  -501.04231377017572

   => Energetics <=

    Nuclear Repulsion Energy =            608.7389187643041168
    One-Electron Energy =               -1888.6024903813454330
    Two-Electron Energy =                 778.8212578468642278
    DFT Exchange-Correlation Energy =       0.0000000000000000
    Empirical Dispersion Energy =           0.0000000000000000
    PCM Polarization Energy =               0.0000000000000000
    EFP Energy =                            0.0000000000000000
    Total Energy =                       -501.0423137701770884

  Mulliken Charges: (a.u.)
   Center  Symbol    Alpha    Beta     Spin     Total
       1     O     4.28571  4.28571  0.00000 -0.57141
       2     C     2.60543  2.60543  0.00000  0.78913
       3     C     3.20922  3.20922  0.00000 -0.41844
       4     O     4.30751  4.30751  0.00000 -0.61503
       5     C     3.15481  3.15481  0.00000 -0.30963
       6     H     0.40010  0.40010  0.00000  0.19980
       7     H     0.40036  0.40036  0.00000  0.19928
       8     C     3.15755  3.15755  0.00000 -0.31511
       9     H     0.41053  0.41053  0.00000  0.17894
      10     H     0.40995  0.40995  0.00000  0.18011
      11     C     3.15335  3.15335  0.00000 -0.30669
      12     H     0.42443  0.42443  0.00000  0.15114
      13     H     0.41779  0.41779  0.00000  0.16441
      14     C     3.15096  3.15096  0.00000 -0.30191
      15     H     0.42524  0.42524  0.00000  0.14951
      16     H     0.42085  0.42085  0.00000  0.15830
      17     C     3.15148  3.15148  0.00000 -0.30296
      18     H     0.42417  0.42417  0.00000  0.15166
      19     H     0.42340  0.42340  0.00000  0.15321
      20     C     3.23931  3.23931  0.00000 -0.47861
      21     H     0.42332  0.42332  0.00000  0.15337
      22     H     0.42268  0.42268  0.00000  0.15463
      23     H     0.41922  0.41922  0.00000  0.16157
      24     H     0.42193  0.42193  0.00000  0.15614
      25     H     0.42163  0.42163  0.00000  0.15674
      26     C     3.09243  3.09243  0.00000 -0.18485
      27     H     0.40905  0.40905  0.00000  0.18190
      28     H     0.40850  0.40850  0.00000  0.18301
      29     H     0.40910  0.40910  0.00000  0.18180

   Total alpha = 44.00000, Total beta = 44.00000, Total charge = -0.00000
