  ==> Input File <==

--------------------------------------------------------------------------
set {
	reference rhf
	basis cc-pvtz
}

set_num_threads( 4 )
memory 2 gb

molecule MOL {
0 1

H	 -1.025188	 0.807056	 -0.589561
N	 -0.712187	 0.000026	 -0.093397
C	 0.734067	 -0.000020	 0.038424
H	 -1.023908	 -0.798317	 -0.604203
H	 1.140372	 -0.872115	 -0.458226
H	 1.140363	 0.872301	 -0.457869
H	 1.095085	 -0.000244	 1.065614

	symmetry c1
}
set optking {
	frozen_dihedral = ("
		1 2 3 7
	")
}

ee = optimize('scf')
oeprop('DIPOLE', 'QUADRUPOLE', 'MULLIKEN_CHARGES')
f=open( 'psi4out.xyz', 'w' )
f.write( "7  " )
f.write( str(ee) + "\n" )
f.write( MOL.save_string_xyz() )
f.close()
--------------------------------------------------------------------------

    Molecular point group: c1
  Charge       = 0
  Multiplicity = 1
  Basis Set: CC-PVTZ
  Basis Set:
  @DF-RHF Final Energy:   -95.24939894674844
    Total Energy =                        -95.2493989467484141
    Molecular point group: c1
  Basis Set: CC-PVTZ
  Basis Set:
  Basis Set: CC-PVTZ
  Basis Set:
  @DF-RHF Final Energy:   -95.25029462064614
    Total Energy =                        -95.2502946206461019
  Basis Set: CC-PVTZ
  Basis Set:
  Basis Set: CC-PVTZ
  Basis Set:
  @DF-RHF Final Energy:   -95.25041351181940
    Total Energy =                        -95.2504135118194597
  Basis Set: CC-PVTZ
  Basis Set:
  Charge       = 0
  Multiplicity = 1
  Basis Set: CC-PVTZ
  Basis Set:

    Orbital Energies (a.u.)
    -----------------------

    Doubly Occupied:

       1A    -15.526061     2A    -11.235599     3A     -1.168875
       4A     -0.898045     5A     -0.666042     6A     -0.600157
       7A     -0.560813     8A     -0.517859     9A     -0.382928

  @DF-RHF Final Energy:   -95.25041405900760

   => Energetics <=

    Nuclear Repulsion Energy =             42.3025048047211456
    One-Electron Energy =                -211.9930796769847348
    Two-Electron Energy =                  74.4401608132560284
    DFT Exchange-Correlation Energy =       0.0000000000000000
    Empirical Dispersion Energy =           0.0000000000000000
    PCM Polarization Energy =               0.0000000000000000
    EFP Energy =                            0.0000000000000000
    Total Energy =                        -95.2504140590075679
    Molecular point group: c1
  Basis Set: CC-PVTZ
  Basis Set:

  -Total Gradient:
     Atom            X                  Y                   Z
    ------   -----------------  -----------------  -----------------
       1        0.000003679849     0.000041602466    -0.000002599568
       2       -0.000033476437    -0.000070183582     0.000066621807
       3        0.000053686851     0.000041567433    -0.000036035190
       4       -0.000027000916    -0.000021099184    -0.000051679428
       5       -0.000019975788    -0.000011846863     0.000014802160
       6        0.000027344589    -0.000004487490     0.000002399128
       7       -0.000004258146     0.000024447219     0.000006491091

  **** Optimization is complete! (in 4 steps) ****
    Final optimized geometry and variables:
    Molecular point group: c1

    Geometry (in Angstrom), charge = 0, multiplicity = 1:

    H           -1.053605996371     0.803892776227    -0.509906764701
    N           -0.720666816309     0.000947223821    -0.025170834228
    C            0.733823551665    -0.000948669411     0.085211767294
    H           -1.056204100709    -0.801954384235    -0.508222299923
    H            1.172001972791    -0.871110521834    -0.390347457648
    H            1.172893461585     0.873648739102    -0.381188060197
    H            1.040600521537    -0.006342024652     1.124795054771

  Mulliken Charges: (a.u.)
   Center  Symbol    Alpha    Beta     Spin     Total
       1     H     0.42711  0.42711  0.00000  0.14578
       2     N     3.68871  3.68871  0.00000 -0.37742
       3     C     3.06896  3.06896  0.00000 -0.13792
       4     H     0.42712  0.42712  0.00000  0.14575
       5     H     0.46340  0.46340  0.00000  0.07319
       6     H     0.46326  0.46326  0.00000  0.07347
       7     H     0.46143  0.46143  0.00000  0.07715

   Total alpha =  9.00000, Total beta =  9.00000, Total charge =  0.00000
