  ==> Input File <==

--------------------------------------------------------------------------
set {
	reference rhf
	basis 6-31G*
}

set_num_threads( 4 )
memory 2 gb

molecule MOL {
0 1

O	 0.704666	 2.117329	 -0.115706
C	 -0.389426	 2.523448	 -0.341699
C	 -1.651932	 1.696452	 -0.334745
O	 -0.646972	 3.791213	 -0.637363
C	 -1.412532	 0.227344	 -0.000452
H	 -2.336437	 2.154925	 0.373781
H	 -2.118159	 1.807411	 -1.309976
C	 -2.706999	 -0.587347	 -0.000541
H	 -0.931789	 0.154390	 0.970150
H	 -0.712770	 -0.193521	 -0.715791
C	 -3.956778	 0.291888	 0.000910
H	 -2.726114	 -1.239230	 -0.871609
H	 -2.725217	 -1.240844	 0.869333
H	 -3.985213	 0.933254	 -0.875158
H	 -4.860123	 -0.309979	 0.000519
H	 -3.984618	 0.931166	 0.878514
C	 0.455809	 4.678573	 -0.677447
H	 0.945971	 4.719293	 0.284619
H	 0.048056	 5.644808	 -0.930580
H	 1.168804	 4.365081	 -1.426358

	symmetry c1
}
set optking {
	frozen_dihedral = ("
		9 5 8 12
	")
}

ee = optimize('scf')
oeprop('DIPOLE', 'QUADRUPOLE', 'MULLIKEN_CHARGES')
f=open( 'psi4out.xyz', 'w' )
f.write( "20  " )
f.write( str(ee) + "\n" )
f.write( MOL.save_string_xyz() )
f.close()
--------------------------------------------------------------------------

    Molecular point group: c1
  Charge       = 0
  Multiplicity = 1
  Basis Set: 6-31G*
  Basis Set:
  @DF-RHF Final Energy:  -383.92835732677258
    Total Energy =                       -383.9283573267728116
    Molecular point group: c1
  Basis Set: 6-31G*
  Basis Set:
  Basis Set: 6-31G*
  Basis Set:
  @DF-RHF Final Energy:  -383.92895782432595
    Total Energy =                       -383.9289578243259484
  Basis Set: 6-31G*
  Basis Set:
  Basis Set: 6-31G*
  Basis Set:
  @DF-RHF Final Energy:  -383.93250310922241
    Total Energy =                       -383.9325031092225800
  Basis Set: 6-31G*
  Basis Set:
  Basis Set: 6-31G*
  Basis Set:
  @DF-RHF Final Energy:  -383.93306003313830
    Total Energy =                       -383.9330600331381902
  Basis Set: 6-31G*
  Basis Set:
  Basis Set: 6-31G*
  Basis Set:
  @DF-RHF Final Energy:  -383.93309954436285
    Total Energy =                       -383.9330995443626762
  Basis Set: 6-31G*
  Basis Set:
  Basis Set: 6-31G*
  Basis Set:
  @DF-RHF Final Energy:  -383.93302639073210
    Total Energy =                       -383.9330263907320386
  Basis Set: 6-31G*
  Basis Set:
  Basis Set: 6-31G*
  Basis Set:
  @DF-RHF Final Energy:  -383.93314735424195
    Total Energy =                       -383.9331473542423510
  Basis Set: 6-31G*
  Basis Set:
  Charge       = 0
  Multiplicity = 1
  Basis Set: 6-31G*
  Basis Set:

    Orbital Energies (a.u.)
    -----------------------

    Doubly Occupied:

       1A    -20.603517     2A    -20.545484     3A    -11.372304
       4A    -11.280794     5A    -11.235512     6A    -11.220328
       7A    -11.219181     8A    -11.213825     9A     -1.469310
      10A     -1.362762    11A     -1.085562    12A     -1.021483
      13A     -0.967785    14A     -0.898551    15A     -0.798883
      16A     -0.760939    17A     -0.701380    18A     -0.683133
      19A     -0.671108    20A     -0.640471    21A     -0.605948
      22A     -0.590980    23A     -0.567185    24A     -0.547771
      25A     -0.540503    26A     -0.522295    27A     -0.513807
      28A     -0.474335    29A     -0.472087    30A     -0.459404
      31A     -0.451709    32A     -0.438016

  @DF-RHF Final Energy:  -383.93314818303992

   => Energetics <=

    Nuclear Repulsion Energy =            385.2604066003910361
    One-Electron Energy =               -1286.5144046572918342
    Two-Electron Energy =                 517.3208498738608796
    DFT Exchange-Correlation Energy =       0.0000000000000000
    Empirical Dispersion Energy =           0.0000000000000000
    PCM Polarization Energy =               0.0000000000000000
    EFP Energy =                            0.0000000000000000
    Total Energy =                       -383.9331481830399753
    Molecular point group: c1
  Basis Set: 6-31G*
  Basis Set:

  -Total Gradient:
     Atom            X                  Y                   Z
    ------   -----------------  -----------------  -----------------
       1       -0.000004988598     0.000063729534     0.000032772889
       2        0.000010942188    -0.000063928184    -0.000115949613
       3        0.000020079372     0.000005423697    -0.000009607150
       4        0.000031793197    -0.000019279928     0.000026404126
       5       -0.003018540163     0.004194072735     0.002772386349
       6        0.000012664696    -0.000012942965    -0.000004414090
       7       -0.000003987531     0.000011277073     0.000011928146
       8       -0.002388612084     0.003589201678    -0.003778561859
       9        0.002914902921    -0.004054837725    -0.001699171156
      10       -0.000008935983     0.000035031733     0.000003942674
      11       -0.000017693873    -0.000026387218     0.000052545096
      12        0.002459989779    -0.003756011768     0.002716963265
      13       -0.000014406326     0.000028286948    -0.000007399675
      14        0.000041521013     0.000021646347    -0.000000574554
      15        0.000005617195    -0.000005348354    -0.000021623526
      16       -0.000047576630    -0.000038967967     0.000008342016
      17       -0.000009600494     0.000022526361     0.000020908187
      18        0.000006585589     0.000004789654    -0.000004149179
      19        0.000013853634     0.000007641772    -0.000002714023
      20       -0.000003607906    -0.000005923429    -0.000002027921

  **** Optimization is complete! (in 8 steps) ****
    Final optimized geometry and variables:
    Molecular point group: c1

    Geometry (in Angstrom), charge = 0, multiplicity = 1:

    O            1.888815205665     0.234485985817     0.197594334815
    C            0.816802644096     0.669747813213    -0.075004123083
    C           -0.474415046490    -0.112879741876    -0.096796574657
    O            0.611599558567     1.939157101727    -0.403927257708
    C           -0.280618792597    -1.580020670160     0.276338669889
    H           -1.163740841471     0.392008285645     0.571705794685
    H           -0.895174579162    -0.006593936621    -1.092445826818
    C           -1.551046267974    -2.466321632163     0.230727272567
    H            0.188185587176    -1.653271013296     1.251151516964
    H            0.454900988312    -2.000118196794    -0.401363257843
    C           -2.903077907969    -1.756703832953     0.321336810591
    H           -1.521010226745    -3.092767795363    -0.656255900087
    H           -1.489670395835    -3.169498690547     1.057071312728
    H           -3.072123927467    -1.084061268998    -0.513132460839
    H           -3.707050785734    -2.485873452288     0.318559037720
    H           -2.991217107042    -1.179386399855     1.237112418161
    C            1.743734787725     2.789395013529    -0.421995123270
    H            2.201337354029     2.833925867449     0.555824337207
    H            1.377211445186     3.762978192091    -0.707977110932
    H            2.471627206495     2.437860129569    -1.139021190273

  Mulliken Charges: (a.u.)
   Center  Symbol    Alpha    Beta     Spin     Total
       1     O     4.28577  4.28577  0.00000 -0.57153
       2     C     2.60485  2.60485  0.00000  0.79030
       3     C     3.21015  3.21015  0.00000 -0.42029
       4     O     4.30757  4.30757  0.00000 -0.61514
       5     C     3.15788  3.15788  0.00000 -0.31577
       6     H     0.39882  0.39882  0.00000  0.20235
       7     H     0.40031  0.40031  0.00000  0.19938
       8     C     3.15688  3.15688  0.00000 -0.31375
       9     H     0.40962  0.40962  0.00000  0.18076
      10     H     0.40950  0.40950  0.00000  0.18101
      11     C     3.24451  3.24451  0.00000 -0.48902
      12     H     0.41896  0.41896  0.00000  0.16208
      13     H     0.41800  0.41800  0.00000  0.16400
      14     H     0.42077  0.42077  0.00000  0.15847
      15     H     0.41652  0.41652  0.00000  0.16695
      16     H     0.42090  0.42090  0.00000  0.15820
      17     C     3.09234  3.09234  0.00000 -0.18468
      18     H     0.40909  0.40909  0.00000  0.18181
      19     H     0.40846  0.40846  0.00000  0.18308
      20     H     0.40911  0.40911  0.00000  0.18179

   Total alpha = 32.00000, Total beta = 32.00000, Total charge = -0.00000
