                              Psi4 1.0.54 Driver

  ==> Input File <==

--------------------------------------------------------------------------
set {
	reference rhf
	basis cc-pvtz
}

set_num_threads( 4 )
memory 2 gb

molecule MOL {
0 1

O	 1.847685	 1.294399	 -0.000190
C	 1.704209	 0.119472	 -0.000093
C	 0.380337	 -0.600947	 -0.000234
O	 2.715427	 -0.733672	 0.000025
C	 -0.824290	 0.329213	 -0.000115
H	 0.371455	 -1.255476	 -0.865660
H	 0.371410	 -1.255787	 0.864952
C	 -2.146151	 -0.432825	 -0.000068
H	 -0.773936	 0.979158	 -0.866319
H	 -0.773838	 0.979034	 0.866186
C	 -3.366283	 0.483552	 0.000557
H	 -2.189286	 -1.084450	 -0.869996
H	 -2.188867	 -1.085083	 0.869399
C	 -4.612876	 -0.179122	 0.576995
H	 -3.568768	 0.810548	 -1.015430
H	 -3.139431	 1.381132	 0.568930
H	 -4.885818	 -1.061873	 0.008236
H	 -5.459332	 0.497660	 0.562418
H	 -4.453225	 -0.486424	 1.605251
C	 4.020999	 -0.192556	 0.000019
H	 4.182809	 0.412891	 -0.879449
H	 4.692590	 -1.035653	 0.000152
H	 4.182726	 0.413087	 0.879368

	symmetry c1
}
set optking {
	frozen_dihedral = ("
		15 11 8 12
	")
}

ee,wfn = optimize('scf', return_wfn=True)
oeprop( wfn, 'DIPOLE', 'QUADRUPOLE', 'MULLIKEN_CHARGES')
f=open( 'psi4out.xyz', 'w' )
f.write( "23  " )
f.write( str(ee) + "\n" )
f.write( MOL.save_string_xyz() )
f.close()
--------------------------------------------------------------------------

    Molecular point group: c1
  Charge       = 0
  Multiplicity = 1
  Basis Set: CC-PVTZ
  Basis Set:
  @DF-RHF Final Energy:  -423.12907412313251
    Total Energy =                       -423.1290741231325683
    Molecular point group: c1
  Basis Set: CC-PVTZ
  Basis Set:
  Basis Set: CC-PVTZ
  Basis Set:
  @DF-RHF Final Energy:  -423.12924317659127
    Total Energy =                       -423.1292431765904212
  Basis Set: CC-PVTZ
  Basis Set:
  Basis Set: CC-PVTZ
  Basis Set:
  @DF-RHF Final Energy:  -423.12932690461633
    Total Energy =                       -423.1293269046159367
  Basis Set: CC-PVTZ
  Basis Set:
  Basis Set: CC-PVTZ
  Basis Set:
  @DF-RHF Final Energy:  -423.12897432317084
    Total Energy =                       -423.1289743231704961
  Basis Set: CC-PVTZ
  Basis Set:
  Basis Set: CC-PVTZ
  Basis Set:
  @DF-RHF Final Energy:  -423.12933970430993
    Total Energy =                       -423.1293397043101550
  Basis Set: CC-PVTZ
  Basis Set:
  Charge       = 0
  Multiplicity = 1
  Basis Set: CC-PVTZ
  Basis Set:

    Orbital Energies (a.u.)
    -----------------------

    Doubly Occupied:

       1A    -20.596245     2A    -20.534060     3A    -11.364488
       4A    -11.278406     5A    -11.233606     6A    -11.217083
       7A    -11.215829     8A    -11.214526     9A    -11.207576
      10A     -1.472138    11A     -1.365715    12A     -1.094035
      13A     -1.044293    14A     -0.987931    15A     -0.932456
      16A     -0.843792    17A     -0.795253    18A     -0.769248
      19A     -0.699044    20A     -0.686826    21A     -0.675421
      22A     -0.652003    23A     -0.611016    24A     -0.600648
      25A     -0.573935    26A     -0.564435    27A     -0.552752
      28A     -0.525378    29A     -0.523084    30A     -0.506367
      31A     -0.487116    32A     -0.469021    33A     -0.466525
      34A     -0.462352    35A     -0.458832    36A     -0.438087

  @DF-RHF Final Energy:  -423.12934063760929

   => Energetics <=

    Nuclear Repulsion Energy =            452.9725339669045070
    One-Electron Energy =               -1473.9647036568082967
    Two-Electron Energy =                 597.8628290522945008
    DFT Exchange-Correlation Energy =       0.0000000000000000
    Empirical Dispersion Energy =           0.0000000000000000
    PCM Polarization Energy =               0.0000000000000000
    EFP Energy =                            0.0000000000000000
    Total Energy =                       -423.1293406376092889
    Molecular point group: c1
  Basis Set: CC-PVTZ
  Basis Set:

  -Total Gradient:
     Atom            X                  Y                   Z
    ------   -----------------  -----------------  -----------------
       1       -0.000008650488     0.000019704084     0.000007059208
       2       -0.000017807579     0.000028162185    -0.000029184857
       3        0.000050407354    -0.000026255245    -0.000003289134
       4        0.000020175794    -0.000104292646     0.000003303702
       5       -0.000004251029     0.000014312013     0.000049049832
       6        0.000012901712     0.000002708511     0.000000547508
       7        0.000005708281     0.000006464248    -0.000002028560
       8       -0.003025131344    -0.003884481329     0.002384792707
       9       -0.000006730072     0.000004198611     0.000002262285
      10        0.000007894899    -0.000001671419    -0.000004047818
      11        0.003305400491     0.004375465098     0.000177439313
      12        0.002032722649     0.002584186465    -0.002041810817
      13        0.000000856094     0.000014299132    -0.000002089667
      14        0.000010414487     0.000007519137     0.000011118293
      15       -0.002307894701    -0.003068100344    -0.000547632441
      16       -0.000000910302    -0.000017108974    -0.000008886444
      17        0.000000501059     0.000014352853     0.000011653727
      18        0.000012607117    -0.000014155507     0.000007608642
      19       -0.000010438116    -0.000003143353    -0.000020081436
      20       -0.000020842421     0.000084740430     0.000005329217
      21       -0.000006973507    -0.000014381170     0.000007329055
      22       -0.000045041202    -0.000009333897    -0.000000121925
      23       -0.000004919182    -0.000013188880    -0.000008320389

  **** Optimization is complete! (in 6 steps) ****
    Final optimized geometry and variables:
    Molecular point group: c1

    Geometry (in Angstrom), charge = 0, multiplicity = 1:

    O            1.842596790329     1.281724065888    -0.056832598159
    C            1.698748095894     0.106883301432    -0.067989981414
    C            0.374956953786    -0.613334445840    -0.056710222353
    O            2.709690302956    -0.746389787794    -0.092423770276
    C           -0.829329886467     0.316660491873    -0.028711266646
    H            0.353813450320    -1.258675491616    -0.928770775101
    H            0.378453028929    -1.277424526248     0.801561785596
    C           -2.152955640272    -0.445550253537    -0.008433434154
    H           -0.795547528041     0.971911450973    -0.892168612956
    H           -0.763026302997     0.961564457215     0.839974876113
    C           -3.371273286465     0.480177793342    -0.052481499482
    H           -2.178420340284    -1.106935636586    -0.870688122607
    H           -2.195584506414    -1.072307954946     0.878096387763
    C           -4.644550730537    -0.189640777520     0.458243861837
    H           -3.542517561578     0.793191171745    -1.077843930977
    H           -3.177291379279     1.375611707835     0.528937160070
    H           -4.867127292521    -1.088624516444    -0.107551310195
    H           -5.498346087382     0.472844952333     0.373707687356
    H           -4.546910473707    -0.473187375222     1.500815175667
    C            4.014982318909    -0.205040532504    -0.105397174493
    H            4.163977317474     0.410356830366    -0.980197090612
    H            4.686371528062    -1.048073294706    -0.124739050298
    H            4.189705239108     0.390508093868     0.778335417511

  Mulliken Charges: (a.u.)
   Center  Symbol    Alpha    Beta     Spin     Total
       1     O     4.19699  4.19699  0.00000 -0.39397
       2     C     2.80659  2.80659  0.00000  0.38681
       3     C     3.10206  3.10206  0.00000 -0.20413
       4     O     4.14649  4.14649  0.00000 -0.29297
       5     C     3.08352  3.08352  0.00000 -0.16703
       6     H     0.44006  0.44006  0.00000  0.11987
       7     H     0.43998  0.43998  0.00000  0.12003
       8     C     3.09041  3.09041  0.00000 -0.18082
       9     H     0.44603  0.44603  0.00000  0.10794
      10     H     0.44665  0.44665  0.00000  0.10671
      11     C     3.08487  3.08487  0.00000 -0.16973
      12     H     0.45500  0.45500  0.00000  0.08999
      13     H     0.45550  0.45550  0.00000  0.08901
      14     C     3.14946  3.14946  0.00000 -0.29892
      15     H     0.45281  0.45281  0.00000  0.09439
      16     H     0.45259  0.45259  0.00000  0.09482
      17     H     0.45515  0.45515  0.00000  0.08970
      18     H     0.44839  0.44839  0.00000  0.10321
      19     H     0.45562  0.45562  0.00000  0.08876
      20     C     3.03777  3.03777  0.00000 -0.07554
      21     H     0.45437  0.45437  0.00000  0.09127
      22     H     0.44535  0.44535  0.00000  0.10929
      23     H     0.45435  0.45435  0.00000  0.09130

   Total alpha = 36.00000, Total beta = 36.00000, Total charge =  0.00000

*** Psi4 exiting successfully. Buy a developer a beer!
