                              Psi4 1.0.54 Driver

  ==> Input File <==

--------------------------------------------------------------------------
set {
	reference rhf
	basis cc-pvtz
}

set_num_threads( 4 )
memory 2 gb

molecule MOL {
0 1

H	 -1.835082	 1.385983	 0.000069
C	 -1.300516	 0.441153	 -0.000028
O	 -0.006604	 0.654344	 -0.000106
O	 -1.828920	 -0.612308	 0.000113
C	 0.611477	 0.978297	 1.242011
C	 2.086535	 1.175881	 0.985365
H	 0.432255	 0.174199	 1.941485
H	 0.151938	 1.872704	 1.638019
H	 2.532476	 0.274039	 0.585631
H	 2.587615	 1.424375	 1.913279
H	 2.250752	 1.981069	 0.280614

	symmetry c1
}
set optking {
	frozen_dihedral = ("
		5 3 2 4
	")
}

ee,wfn = optimize('scf', return_wfn=True)
oeprop( wfn, 'DIPOLE', 'QUADRUPOLE', 'MULLIKEN_CHARGES')
f=open( 'psi4out.xyz', 'w' )
f.write( "11  " )
f.write( str(ee) + "\n" )
f.write( MOL.save_string_xyz() )
f.close()
--------------------------------------------------------------------------

    Molecular point group: c1
  Charge       = 0
  Multiplicity = 1
  Basis Set: CC-PVTZ
  Basis Set:
  @DF-RHF Final Energy:  -266.91204167304602
    Total Energy =                       -266.9120416730459624
    Molecular point group: c1
  Basis Set: CC-PVTZ
  Basis Set:
  Basis Set: CC-PVTZ
  Basis Set:
  @DF-RHF Final Energy:  -266.91308779489384
    Total Energy =                       -266.9130877948937268
  Basis Set: CC-PVTZ
  Basis Set:
  Basis Set: CC-PVTZ
  Basis Set:
  @DF-RHF Final Energy:  -266.91307236977548
    Total Energy =                       -266.9130723697755911
  Basis Set: CC-PVTZ
  Basis Set:
  Basis Set: CC-PVTZ
  Basis Set:
  @DF-RHF Final Energy:  -266.91337404718809
    Total Energy =                       -266.9133740471878582
  Basis Set: CC-PVTZ
  Basis Set:
  Basis Set: CC-PVTZ
  Basis Set:
  @DF-RHF Final Energy:  -266.91338571532793
    Total Energy =                       -266.9133857153279337
  Basis Set: CC-PVTZ
  Basis Set:
  Charge       = 0
  Multiplicity = 1
  Basis Set: CC-PVTZ
  Basis Set:

    Orbital Energies (a.u.)
    -----------------------

    Doubly Occupied:

       1A    -20.586803     2A    -20.560326     3A    -11.373902
       4A    -11.300967     5A    -11.227900     6A     -1.470695
       7A     -1.383265     8A     -1.050331     9A     -0.887582
      10A     -0.832535    11A     -0.743637    12A     -0.693688
      13A     -0.650555    14A     -0.641228    15A     -0.565396
      16A     -0.543398    17A     -0.537514    18A     -0.507818
      19A     -0.467921    20A     -0.457417

  @DF-RHF Final Energy:  -266.91338624793690

   => Energetics <=

    Nuclear Repulsion Energy =            177.2321381747739792
    One-Electron Energy =                -715.3252929954992396
    Two-Electron Energy =                 271.1797685727882481
    DFT Exchange-Correlation Energy =       0.0000000000000000
    Empirical Dispersion Energy =           0.0000000000000000
    PCM Polarization Energy =               0.0000000000000000
    EFP Energy =                            0.0000000000000000
    Total Energy =                       -266.9133862479369554
    Molecular point group: c1
  Basis Set: CC-PVTZ
  Basis Set:

  -Total Gradient:
     Atom            X                  Y                   Z
    ------   -----------------  -----------------  -----------------
       1        0.000056288627    -0.000013685840     0.000020518531
       2        0.000001536619    -0.000677516566    -0.003102526371
       3       -0.000097828115     0.002369403868     0.000565036659
       4       -0.000034623411    -0.000060817294     0.002164495455
       5        0.000037408184    -0.001603134508     0.000369407923
       6        0.000014132405    -0.000012864968    -0.000024807710
       7        0.000051939669    -0.000015392504     0.000031555055
       8       -0.000016488296     0.000000491926    -0.000017115985
       9        0.000002682771    -0.000005545250    -0.000001560027
      10       -0.000014467489     0.000010080545    -0.000000629187
      11       -0.000000580967     0.000008980589    -0.000004374344

  **** Optimization is complete! (in 6 steps) ****
    Final optimized geometry and variables:
    Molecular point group: c1

    Geometry (in Angstrom), charge = 0, multiplicity = 1:

    H           -1.720494482434     0.963704636120    -0.489276191083
    C           -1.227072128167    -0.007334149486    -0.447816387765
    O            0.106085092776     0.080065554130    -0.464946180263
    O           -1.819129932892    -1.016517481005    -0.404476403217
    C            0.727830862045     0.388011160110     0.774279241346
    C            2.207908707421     0.560765107225     0.531398113146
    H            0.537687310578    -0.419890150186     1.470335194306
    H            0.295388444353     1.298090390646     1.180692046932
    H            2.631474452612    -0.346586843340     0.121563199051
    H            2.709710448344     0.787094572360     1.464677661127
    H            2.388688064256     1.370169027485    -0.164028151333

  Mulliken Charges: (a.u.)
   Center  Symbol    Alpha    Beta     Spin     Total
       1     H     0.46749  0.46749  0.00000  0.06502
       2     C     2.83886  2.83886  0.00000  0.32227
       3     O     4.15613  4.15613  0.00000 -0.31225
       4     O     4.16264  4.16264  0.00000 -0.32528
       5     C     2.96836  2.96836  0.00000  0.06328
       6     C     3.13364  3.13364  0.00000 -0.26728
       7     H     0.45527  0.45527  0.00000  0.08946
       8     H     0.46660  0.46660  0.00000  0.06679
       9     H     0.44563  0.44563  0.00000  0.10874
      10     H     0.45580  0.45580  0.00000  0.08840
      11     H     0.44958  0.44958  0.00000  0.10084

   Total alpha = 20.00000, Total beta = 20.00000, Total charge = -0.00000

*** Psi4 exiting successfully. Buy a developer a beer!
