                              Psi4 1.0.54 Driver

  ==> Input File <==

--------------------------------------------------------------------------
set {
	reference rhf
	basis cc-pvtz
}

set_num_threads( 4 )
memory 2 gb

molecule MOL {
0 1

H	 -0.366580	 2.045936	 -0.305741
C	 0.351829	 1.335402	 0.083179
N	 -0.000018	 0.000080	 -0.334836
H	 1.327156	 1.599860	 -0.305475
H	 0.380566	 1.445403	 1.171445
C	 -1.307779	 -0.386282	 0.137250
C	 0.131183	 -0.171296	 -1.761601
H	 -1.509714	 -1.414765	 -0.133927
H	 -1.348333	 -0.311323	 1.216567
H	 -2.108201	 0.235369	 -0.274993
H	 1.142588	 0.060658	 -2.070534
H	 -0.072526	 -1.199962	 -2.030810
H	 -0.550625	 0.468287	 -2.330092

	symmetry c1
}
set optking {
	frozen_dihedral = ("
		6 3 2 1
	")
}

ee,wfn = optimize('scf', return_wfn=True)
oeprop( wfn, 'DIPOLE', 'QUADRUPOLE', 'MULLIKEN_CHARGES')
f=open( 'psi4out.xyz', 'w' )
f.write( "13  " )
f.write( str(ee) + "\n" )
f.write( MOL.save_string_xyz() )
f.close()
--------------------------------------------------------------------------

    Molecular point group: c1
  Charge       = 0
  Multiplicity = 1
  Basis Set: CC-PVTZ
  Basis Set:
  @DF-RHF Final Energy:  -173.33323646644794
    Total Energy =                       -173.3332364664479428
    Molecular point group: c1
  Basis Set: CC-PVTZ
  Basis Set:
  Basis Set: CC-PVTZ
  Basis Set:
  @DF-RHF Final Energy:  -173.33389284284880
    Total Energy =                       -173.3338928428487975
  Basis Set: CC-PVTZ
  Basis Set:
  Basis Set: CC-PVTZ
  Basis Set:
  @DF-RHF Final Energy:  -173.33397488329712
    Total Energy =                       -173.3339748832971168
  Basis Set: CC-PVTZ
  Basis Set:
  Charge       = 0
  Multiplicity = 1
  Basis Set: CC-PVTZ
  Basis Set:

    Orbital Energies (a.u.)
    -----------------------

    Doubly Occupied:

       1A    -15.539636     2A    -11.234286     3A    -11.234275
       4A    -11.234252     5A     -1.227328     6A     -0.952422
       7A     -0.952250     8A     -0.806917     9A     -0.643600
      10A     -0.631636    11A     -0.631291    12A     -0.544600
      13A     -0.543502    14A     -0.517118    15A     -0.502398
      16A     -0.502047    17A     -0.349738

  @DF-RHF Final Energy:  -173.33397567741926

   => Energetics <=

    Nuclear Repulsion Energy =            139.4795053970852052
    One-Electron Energy =                -509.5323715618787901
    Two-Electron Energy =                 196.7188904873744377
    DFT Exchange-Correlation Energy =       0.0000000000000000
    Empirical Dispersion Energy =           0.0000000000000000
    PCM Polarization Energy =               0.0000000000000000
    EFP Energy =                            0.0000000000000000
    Total Energy =                       -173.3339756774191756
    Molecular point group: c1
  Basis Set: CC-PVTZ
  Basis Set:

  -Total Gradient:
     Atom            X                  Y                   Z
    ------   -----------------  -----------------  -----------------
       1       -0.000461658124    -0.000094633012     0.000661734508
       2        0.000448088318     0.000185259061    -0.001094547555
       3        0.000204889580    -0.000386855074     0.000868885970
       4       -0.000001075399    -0.000037808621    -0.000010807628
       5        0.000001741727    -0.000019950140     0.000000418232
       6       -0.000214443835     0.000263780250    -0.000484882489
       7        0.000036320424     0.000090472817     0.000028075701
       8        0.000002755171     0.000002546190    -0.000005177613
       9       -0.000015737188    -0.000000587751     0.000007469816
      10       -0.000000626050    -0.000002754409     0.000000108614
      11        0.000020256959     0.000000003711    -0.000013864007
      12       -0.000010357519     0.000009753088     0.000048393738
      13       -0.000010154064    -0.000009226108    -0.000005807287

  **** Optimization is complete! (in 4 steps) ****
    Final optimized geometry and variables:
    Molecular point group: c1

    Geometry (in Angstrom), charge = 0, multiplicity = 1:

    H           -0.104756175784     1.885102318637     0.199623620485
    C            0.582357815655     1.117918870669     0.569639179558
    N            0.218835712571    -0.211990603444     0.143666212384
    H            1.578165295940     1.359705518931     0.221036374629
    H            0.585332513912     1.171026955562     1.651399606624
    C           -1.096332941440    -0.583035175055     0.606953779961
    C            0.351131646765    -0.376813671438    -1.283978492155
    H           -1.309620770097    -1.608818113056     0.333907564262
    H           -1.143360888769    -0.508302499279     1.686201922049
    H           -1.886553895876     0.049098164492     0.190345655542
    H            1.366808273563    -0.159301980322    -1.589417937668
    H            0.131978799456    -1.400821046483    -1.559085048010
    H           -0.319623787075     0.275669681468    -1.851539294306

  Mulliken Charges: (a.u.)
   Center  Symbol    Alpha    Beta     Spin     Total
       1     H     0.47389  0.47389  0.00000  0.05222
       2     C     3.08907  3.08907  0.00000 -0.17814
       3     N     3.59556  3.59556  0.00000 -0.19111
       4     H     0.45277  0.45277  0.00000  0.09446
       5     H     0.45237  0.45237  0.00000  0.09526
       6     C     3.08925  3.08925  0.00000 -0.17850
       7     C     3.08895  3.08895  0.00000 -0.17789
       8     H     0.45255  0.45255  0.00000  0.09490
       9     H     0.45266  0.45266  0.00000  0.09468
      10     H     0.47376  0.47376  0.00000  0.05249
      11     H     0.45250  0.45250  0.00000  0.09501
      12     H     0.45263  0.45263  0.00000  0.09473
      13     H     0.47406  0.47406  0.00000  0.05189

   Total alpha = 17.00000, Total beta = 17.00000, Total charge =  0.00000

*** Psi4 exiting successfully. Buy a developer a beer!
