  ==> Input File <==

--------------------------------------------------------------------------
set {
	reference rhf
	basis 6-31G*
}

set_num_threads( 4 )
memory 2 gb

molecule MOL {
0 1

H	 -2.698709	 -0.000305	 0.034435
C	 -1.693833	 0.000034	 0.434417
O	 -0.828952	 -0.000968	 -0.659236
H	 -1.574200	 0.882896	 1.055746
H	 -1.574147	 -0.881698	 1.057355
C	 0.559449	 -0.000018	 -0.420814
C	 0.898023	 0.102295	 1.065058
C	 1.270772	 -1.169137	 -1.099149
H	 0.891042	 0.913324	 -0.900277
H	 0.337760	 0.909891	 1.523797
H	 1.956422	 0.307524	 1.191183
H	 0.677827	 -0.815599	 1.600921
H	 0.967971	 -1.242022	 -2.138118
H	 2.345373	 -1.018495	 -1.067466
H	 1.059975	 -2.116342	 -0.613135

	symmetry c1
}
set optking {
	frozen_dihedral = ("
		9 6 3 2
	")
}

ee = optimize('scf')
oeprop('DIPOLE', 'QUADRUPOLE', 'MULLIKEN_CHARGES')
f=open( 'psi4out.xyz', 'w' )
f.write( "15  " )
f.write( str(ee) + "\n" )
f.write( MOL.save_string_xyz() )
f.close()
--------------------------------------------------------------------------

    Molecular point group: c1
  Charge       = 0
  Multiplicity = 1
  Basis Set: 6-31G*
  Basis Set:
  @DF-RHF Final Energy:  -232.12882102627017
    Total Energy =                       -232.1288210262702592
    Molecular point group: c1
  Basis Set: 6-31G*
  Basis Set:
  Basis Set: 6-31G*
  Basis Set:
  @DF-RHF Final Energy:  -232.12911422102201
    Total Energy =                       -232.1291142210218368
  Basis Set: 6-31G*
  Basis Set:
  Basis Set: 6-31G*
  Basis Set:
  @DF-RHF Final Energy:  -232.13275094506656
    Total Energy =                       -232.1327509450665048
  Basis Set: 6-31G*
  Basis Set:
  Basis Set: 6-31G*
  Basis Set:
  @DF-RHF Final Energy:  -232.13324763752337
    Total Energy =                       -232.1332476375232545
  Basis Set: 6-31G*
  Basis Set:
  Basis Set: 6-31G*
  Basis Set:
  @DF-RHF Final Energy:  -232.13330640020936
    Total Energy =                       -232.1333064002095057
  Basis Set: 6-31G*
  Basis Set:
  Basis Set: 6-31G*
  Basis Set:
  @DF-RHF Final Energy:  -232.13331080541084
    Total Energy =                       -232.1333108054109857
  Basis Set: 6-31G*
  Basis Set:
  Basis Set: 6-31G*
  Basis Set:
  @DF-RHF Final Energy:  -232.13331321626862
    Total Energy =                       -232.1333132162685615
  Basis Set: 6-31G*
  Basis Set:
  Charge       = 0
  Multiplicity = 1
  Basis Set: 6-31G*
  Basis Set:

    Orbital Energies (a.u.)
    -----------------------

    Doubly Occupied:

       1A    -20.544895     2A    -11.274841     3A    -11.262580
       4A    -11.215941     5A    -11.204848     6A     -1.366012
       7A     -1.052899     8A     -0.949052     9A     -0.916678
      10A     -0.782252    11A     -0.675097    12A     -0.642336
      13A     -0.629836    14A     -0.585249    15A     -0.554095
      16A     -0.541546    17A     -0.533049    18A     -0.507403
      19A     -0.492323    20A     -0.446823    21A     -0.397854

  @DF-RHF Final Energy:  -232.13331357844552

   => Energetics <=

    Nuclear Repulsion Energy =            197.8730529455462772
    One-Electron Energy =                -706.8615219468866826
    Two-Electron Energy =                 276.8551554228949385
    DFT Exchange-Correlation Energy =       0.0000000000000000
    Empirical Dispersion Energy =           0.0000000000000000
    PCM Polarization Energy =               0.0000000000000000
    EFP Energy =                            0.0000000000000000
    Total Energy =                       -232.1333135784454385
    Molecular point group: c1
  Basis Set: 6-31G*
  Basis Set:

  -Total Gradient:
     Atom            X                  Y                   Z
    ------   -----------------  -----------------  -----------------
       1        0.000001760526     0.000003594901    -0.000003265033
       2        0.000000368131    -0.000365674698     0.000011047690
       3       -0.000003711299     0.000559311566    -0.000090693347
       4       -0.000005961228    -0.000013725864    -0.000006680741
       5        0.000009228348    -0.000009662348     0.000001322417
       6       -0.000131139924     0.000039558299     0.000476436798
       7        0.000020470373     0.000010845285     0.000007008348
       8        0.000032608504     0.000009225198    -0.000014028931
       9        0.000075224457    -0.000236112877    -0.000377615116
      10        0.000003650711     0.000000481623     0.000002273339
      11        0.000000214853     0.000000614247     0.000003672635
      12       -0.000002204513     0.000001857141    -0.000003605859
      13        0.000000179224    -0.000006159120    -0.000001194943
      14        0.000006048297    -0.000007927133    -0.000008418279
      15       -0.000006736457     0.000013773781     0.000003741020

  **** Optimization is complete! (in 8 steps) ****
    Final optimized geometry and variables:
    Molecular point group: c1

    Geometry (in Angstrom), charge = 0, multiplicity = 1:

    H           -2.739257942088     0.072164873172     0.046400394623
    C           -1.766908181913     0.166516455580     0.511206414158
    O           -0.838582177017     0.185352992398    -0.526629824874
    H           -1.757865418612     1.081949264912     1.096328458558
    H           -1.628070744918    -0.676096395327     1.182453835937
    C            0.551909172971     0.260274408701    -0.274169118346
    C            0.954729412224     0.335974190855     1.196989589790
    C            1.203025929458    -0.928879726437    -0.969616606618
    H            0.896317526034     1.170603327934    -0.757585920537
    H            0.511586488698     1.188089531525     1.699303021706
    H            2.032411380486     0.446236508431     1.257808021227
    H            0.685403815328    -0.563615928182     1.740212637224
    H            0.905202964403    -0.958519138960    -2.011208483460
    H            2.286286012612    -0.865756338166    -0.922208465203
    H            0.891655467012    -1.858843269030    -0.503159644285

  Mulliken Charges: (a.u.)
   Center  Symbol    Alpha    Beta     Spin     Total
       1     H     0.41223  0.41223  0.00000  0.17553
       2     C     3.07534  3.07534  0.00000 -0.15068
       3     O     4.32098  4.32098  0.00000 -0.64197
       4     H     0.43044  0.43044  0.00000  0.13913
       5     H     0.43048  0.43048  0.00000  0.13905
       6     C     2.90007  2.90007  0.00000  0.19987
       7     C     3.26467  3.26467  0.00000 -0.52933
       8     C     3.23882  3.23882  0.00000 -0.47763
       9     H     0.42360  0.42360  0.00000  0.15281
      10     H     0.41399  0.41399  0.00000  0.17202
      11     H     0.41387  0.41387  0.00000  0.17227
      12     H     0.41706  0.41706  0.00000  0.16587
      13     H     0.41104  0.41104  0.00000  0.17792
      14     H     0.42588  0.42588  0.00000  0.14824
      15     H     0.42154  0.42154  0.00000  0.15691

   Total alpha = 21.00000, Total beta = 21.00000, Total charge = -0.00000
