  ==> Input File <==

--------------------------------------------------------------------------
set {
	reference rhf
	basis cc-pvtz
}

set_num_threads( 4 )
memory 2 gb

molecule MOL {
0 1

H	 -2.552077	 1.012248	 1.217010
C	 -1.924924	 1.730438	 1.740236
O	 -0.576530	 1.447373	 1.569218
H	 -2.110329	 2.714258	 1.334513
H	 -2.203864	 1.728123	 2.792411
C	 -0.184534	 0.206377	 2.056974
C	 1.266410	 -0.037131	 1.725597
H	 -0.310450	 0.169275	 3.138980
H	 -0.788686	 -0.586665	 1.621641
O	 1.401606	 -0.295166	 0.366636
H	 1.849805	 0.835368	 2.011651
H	 1.623813	 -0.886092	 2.308265
C	 2.714315	 -0.441627	 -0.061017
H	 2.765292	 -0.641548	 -1.128869
H	 3.305661	 0.447341	 0.150952
H	 3.143725	 -1.278506	 0.470147

	symmetry c1
}
set optking {
	frozen_dihedral = ("
		7 10 13 14
	")
}

ee = optimize('scf')
oeprop('DIPOLE', 'QUADRUPOLE', 'MULLIKEN_CHARGES')
f=open( 'psi4out.xyz', 'w' )
f.write( "16  " )
f.write( str(ee) + "\n" )
f.write( MOL.save_string_xyz() )
f.close()
--------------------------------------------------------------------------

    Molecular point group: c1
  Charge       = 0
  Multiplicity = 1
  Basis Set: CC-PVTZ
  Basis Set:
  @DF-RHF Final Energy:  -307.09688419451192
    Total Energy =                       -307.0968841945118584
    Molecular point group: c1
  Basis Set: CC-PVTZ
  Basis Set:
  Basis Set: CC-PVTZ
  Basis Set:
  @DF-RHF Final Energy:  -307.09772769086567
    Total Energy =                       -307.0977276908656677
  Basis Set: CC-PVTZ
  Basis Set:
  Basis Set: CC-PVTZ
  Basis Set:
  @DF-RHF Final Energy:  -307.09795374719084
    Total Energy =                       -307.0979537471911271
  Basis Set: CC-PVTZ
  Basis Set:
  Charge       = 0
  Multiplicity = 1
  Basis Set: CC-PVTZ
  Basis Set:

    Orbital Energies (a.u.)
    -----------------------

    Doubly Occupied:

       1A    -20.547857     2A    -20.547853     3A    -11.267581
       4A    -11.266902     5A    -11.261637     6A    -11.261618
       7A     -1.391874     8A     -1.374666     9A     -1.032129
      10A     -0.937228    11A     -0.892227    12A     -0.824459
      13A     -0.686544    14A     -0.682893    15A     -0.659569
      16A     -0.638237    17A     -0.632340    18A     -0.598653
      19A     -0.550696    20A     -0.536134    21A     -0.509930
      22A     -0.479850    23A     -0.464870    24A     -0.423365
      25A     -0.413768

  @DF-RHF Final Energy:  -307.09795468099583

   => Energetics <=

    Nuclear Repulsion Energy =            258.9274872966434486
    One-Electron Energy =                -932.2851271094317553
    Two-Electron Energy =                 366.2596851317921391
    DFT Exchange-Correlation Energy =       0.0000000000000000
    Empirical Dispersion Energy =           0.0000000000000000
    PCM Polarization Energy =               0.0000000000000000
    EFP Energy =                            0.0000000000000000
    Total Energy =                       -307.0979546809961676
    Molecular point group: c1
  Basis Set: CC-PVTZ
  Basis Set:

  -Total Gradient:
     Atom            X                  Y                   Z
    ------   -----------------  -----------------  -----------------
       1        0.000001749057    -0.000000540190    -0.000001090862
       2        0.000002826378     0.000000055131     0.000004051315
       3        0.000002241068     0.000024436980     0.000017431915
       4        0.000002439437    -0.000001404475     0.000000972025
       5       -0.000005518585     0.000002384044     0.000001901982
       6       -0.000009757753    -0.000051680905    -0.000154732504
       7        0.000140411684     0.000114759721     0.000051329101
       8        0.000064236729    -0.000003924096    -0.000033078767
       9       -0.000039090989    -0.000028954992     0.000009621460
      10       -0.000063478895    -0.000091774670     0.000000054913
      11        0.000021102090     0.000011106657     0.000010487371
      12       -0.000011782539    -0.000009221189    -0.000028522075
      13        0.000039621686    -0.000044581272     0.000087232537
      14       -0.000065237760     0.000065514086     0.000000265997
      15       -0.000036633476     0.000013851578     0.000017482623
      16       -0.000043128133    -0.000000026410     0.000016592967

  **** Optimization is complete! (in 4 steps) ****
    Final optimized geometry and variables:
    Molecular point group: c1

    Geometry (in Angstrom), charge = 0, multiplicity = 1:

    H           -2.999558028153     0.579661991604    -0.020830537640
    C           -2.373163016075     1.295592923617     0.506360699102
    O           -1.024625778460     1.010312553266     0.340117791948
    H           -2.555065925978     2.280594286953     0.101944138421
    H           -2.656290241222     1.291652513822     1.557421420873
    C           -0.636963351282    -0.232509362604     0.826630993518
    C            0.815039394766    -0.477689700626     0.501464073610
    H           -0.767395642197    -0.271795331144     1.908008890849
    H           -1.240633615818    -1.023573570812     0.387023955547
    O            0.955330508258    -0.733492082369    -0.857289211839
    H            1.398728795526     0.393232333175     0.791644042438
    H            1.168322355878    -1.328488802758     1.083991550685
    C            2.269566554220    -0.882685205478    -1.279039005671
    H            2.255525787140    -1.075957811351    -2.341720333680
    H            2.851275036733     0.017607426703    -1.094825193732
    H            2.758042083642    -1.716477677850    -0.778024414060

  Mulliken Charges: (a.u.)
   Center  Symbol    Alpha    Beta     Spin     Total
       1     H     0.47018  0.47018  0.00000  0.05963
       2     C     3.03199  3.03199  0.00000 -0.06397
       3     O     4.17049  4.17049  0.00000 -0.34097
       4     H     0.44634  0.44634  0.00000  0.10732
       5     H     0.47368  0.47368  0.00000  0.05264
       6     C     2.96049  2.96049  0.00000  0.07901
       7     C     2.96054  2.96054  0.00000  0.07892
       8     H     0.47613  0.47613  0.00000  0.04774
       9     H     0.47070  0.47070  0.00000  0.05859
      10     O     4.17043  4.17043  0.00000 -0.34085
      11     H     0.47066  0.47066  0.00000  0.05868
      12     H     0.47614  0.47614  0.00000  0.04771
      13     C     3.03202  3.03202  0.00000 -0.06404
      14     H     0.44632  0.44632  0.00000  0.10737
      15     H     0.47030  0.47030  0.00000  0.05941
      16     H     0.47359  0.47359  0.00000  0.05282

   Total alpha = 25.00000, Total beta = 25.00000, Total charge =  0.00000
