  ==> Input File <==

--------------------------------------------------------------------------
set {
	reference rhf
	basis cc-pvtz
}

set_num_threads( 4 )
memory 2 gb

molecule MOL {
0 1

O	 -2.817697	 1.304178	 0.001046
C	 -2.664672	 0.129869	 0.003507
C	 -3.797908	 -0.860100	 -0.001145
O	 -1.481217	 -0.452708	 0.001092
H	 -4.408836	 -0.679689	 -0.875387
H	 -3.443486	 -1.878443	 -0.002770
H	 -4.412123	 -0.683688	 0.871605
C	 -0.332055	 0.384012	 -0.000250
C	 0.892252	 -0.506059	 -0.000295
H	 -0.360822	 1.020205	 -0.874146
H	 -0.359817	 1.021310	 0.872861
C	 2.187875	 0.299026	 0.039197
H	 0.871887	 -1.132365	 -0.886295
H	 0.843318	 -1.171869	 0.855256
C	 3.436813	 -0.578059	 0.040340
H	 2.223814	 0.970304	 -0.815246
H	 2.194924	 0.931410	 0.923513
C	 4.731718	 0.226041	 0.080996
H	 3.431794	 -1.209214	 -0.843783
H	 3.402099	 -1.249195	 0.893838
H	 4.811888	 0.882683	 -0.778795
H	 5.597831	 -0.425383	 0.080984
H	 4.781807	 0.842645	 0.972143

	symmetry c1
}
set optking {
	frozen_dihedral = ("
		13 9 8 10
	")
}

ee = optimize('scf')
oeprop('DIPOLE', 'QUADRUPOLE', 'MULLIKEN_CHARGES')
f=open( 'psi4out.xyz', 'w' )
f.write( "23  " )
f.write( str(ee) + "\n" )
f.write( MOL.save_string_xyz() )
f.close()
--------------------------------------------------------------------------

    Molecular point group: c1
  Charge       = 0
  Multiplicity = 1
  Basis Set: CC-PVTZ
  Basis Set:
  @DF-RHF Final Energy:  -423.13480330222251
    Total Energy =                       -423.1348033022225081
    Molecular point group: c1
  Basis Set: CC-PVTZ
  Basis Set:
  Basis Set: CC-PVTZ
  Basis Set:
  @DF-RHF Final Energy:  -423.13457193924393
    Total Energy =                       -423.1345719392439833
  Basis Set: CC-PVTZ
  Basis Set:
  Basis Set: CC-PVTZ
  Basis Set:
  @DF-RHF Final Energy:  -423.13480854579780
    Total Energy =                       -423.1348085457980233
  Basis Set: CC-PVTZ
  Basis Set:
  Charge       = 0
  Multiplicity = 1
  Basis Set: CC-PVTZ
  Basis Set:

    Orbital Energies (a.u.)
    -----------------------

    Doubly Occupied:

       1A    -20.595871     2A    -20.529506     3A    -11.366381
       4A    -11.279476     5A    -11.230666     6A    -11.222330
       7A    -11.221339     8A    -11.219474     9A    -11.210903
      10A     -1.471103    11A     -1.363959    12A     -1.095332
      13A     -1.043263    14A     -1.004246    15A     -0.931693
      16A     -0.842328    17A     -0.803045    18A     -0.775995
      19A     -0.694950    20A     -0.688281    21A     -0.671132
      22A     -0.648209    23A     -0.607095    24A     -0.589165
      25A     -0.584072    26A     -0.567223    27A     -0.559666
      28A     -0.538518    29A     -0.524129    30A     -0.505566
      31A     -0.491853    32A     -0.478204    33A     -0.471396
      34A     -0.466869    35A     -0.455259    36A     -0.438878

  @DF-RHF Final Energy:  -423.13480910130960

   => Energetics <=

    Nuclear Repulsion Energy =            450.4611763905219846
    One-Electron Energy =               -1468.8172273323827994
    Two-Electron Energy =                 595.2212418405513290
    DFT Exchange-Correlation Energy =       0.0000000000000000
    Empirical Dispersion Energy =           0.0000000000000000
    PCM Polarization Energy =               0.0000000000000000
    EFP Energy =                            0.0000000000000000
    Total Energy =                       -423.1348091013094290
    Molecular point group: c1
  Basis Set: CC-PVTZ
  Basis Set:

  -Total Gradient:
     Atom            X                  Y                   Z
    ------   -----------------  -----------------  -----------------
       1        0.000001058403     0.000002158379     0.000081090010
       2       -0.000021276194     0.000007121019    -0.000163970372
       3       -0.000000909098    -0.000003351402     0.000040685530
       4        0.000032440688     0.000002412854     0.000102562381
       5        0.000002111015     0.000003795768    -0.000005636144
       6        0.000002168473    -0.000001821062     0.000001830450
       7       -0.000008026524    -0.000002256620     0.000004216397
       8        0.000257714945     0.000356205268     0.000029507125
       9       -0.000267942285    -0.000357633516     0.000224257221
      10       -0.000154834378    -0.000249524052    -0.000156513341
      11       -0.000019537084     0.000002424778     0.000040221706
      12       -0.000008400187    -0.000014807744    -0.000019609895
      13        0.000173118559     0.000256235948    -0.000191437126
      14        0.000005221704    -0.000009507043     0.000011239174
      15        0.000004761752     0.000003590585     0.000002254277
      16        0.000001406379     0.000004402953    -0.000008291707
      17        0.000002755324     0.000002879769    -0.000001556293
      18       -0.000003531653    -0.000000476659     0.000007228407
      19       -0.000000902451     0.000004779204    -0.000003956849
      20       -0.000000332674    -0.000008209623     0.000002832662
      21       -0.000001685297     0.000000352059    -0.000002440333
      22        0.000002478565    -0.000003177929     0.000001670938
      23        0.000002142021     0.000004407072     0.000003815780

  **** Optimization is complete! (in 4 steps) ****
    Final optimized geometry and variables:
    Molecular point group: c1

    Geometry (in Angstrom), charge = 0, multiplicity = 1:

    O           -2.816925434281     1.304559345792    -0.018598193053
    C           -2.664296795936     0.130147910319    -0.019529243669
    C           -3.797988718269    -0.859546376456    -0.021769049378
    O           -1.480974715525    -0.452534037755    -0.017398255445
    H           -4.409861724690    -0.679675570643    -0.895535343569
    H           -3.443869889265    -1.878034823555    -0.022875852250
    H           -4.411111674537    -0.682088921348     0.851627628111
    C           -0.331765443180     0.384082001307    -0.015868684288
    C            0.892129156325    -0.506587025001    -0.012258497938
    H           -0.358378704393     1.018382303337    -0.891229564924
    H           -0.361777486258     1.022102568316     0.856736514631
    C            2.187759081183     0.298951612053     0.023866536868
    H            0.873065214945    -1.134747507984    -0.897065530983
    H            0.843136495475    -1.169103694117     0.845786377390
    C            3.436848135881    -0.577794378086     0.020929868429
    H            2.221157228459     0.970826834043    -0.830360079643
    H            2.197081200211     0.930851509509     0.908548673950
    C            4.731561992110     0.226662326302     0.060340335549
    H            3.430289244187    -1.207460065329    -0.864329413700
    H            3.404100086558    -1.250481847893     0.873380141441
    H            4.809730196487     0.885042980731    -0.798380083976
    H            5.597789861097    -0.424674908832     0.057159564932
    H            4.783483435240     0.841573670678     0.952618806978

  Mulliken Charges: (a.u.)
   Center  Symbol    Alpha    Beta     Spin     Total
       1     O     4.20245  4.20245  0.00000 -0.40491
       2     C     2.81528  2.81528  0.00000  0.36945
       3     C     3.14004  3.14004  0.00000 -0.28007
       4     O     4.14462  4.14462  0.00000 -0.28924
       5     H     0.44213  0.44213  0.00000  0.11574
       6     H     0.44185  0.44185  0.00000  0.11629
       7     H     0.44213  0.44213  0.00000  0.11575
       8     C     2.97902  2.97902  0.00000  0.04196
       9     C     3.08093  3.08093  0.00000 -0.16186
      10     H     0.45386  0.45386  0.00000  0.09229
      11     H     0.45413  0.45413  0.00000  0.09174
      12     C     3.09771  3.09771  0.00000 -0.19542
      13     H     0.45094  0.45094  0.00000  0.09813
      14     H     0.45070  0.45070  0.00000  0.09861
      15     C     3.08502  3.08502  0.00000 -0.17004
      16     H     0.45297  0.45297  0.00000  0.09405
      17     H     0.45288  0.45288  0.00000  0.09424
      18     C     3.14955  3.14955  0.00000 -0.29911
      19     H     0.45349  0.45349  0.00000  0.09302
      20     H     0.45351  0.45351  0.00000  0.09298
      21     H     0.45455  0.45455  0.00000  0.09089
      22     H     0.44770  0.44770  0.00000  0.10461
      23     H     0.45455  0.45455  0.00000  0.09090

   Total alpha = 36.00000, Total beta = 36.00000, Total charge = -0.00000
