                              Psi4 1.0.54 Driver

  ==> Input File <==

--------------------------------------------------------------------------
set {
	reference rhf
	basis cc-pvtz
}

set_num_threads( 4 )
memory 2 gb

molecule MOL {
0 1

H	 -2.816458	 -0.841657	 -0.064679
N	 -1.878861	 -0.711874	 0.250184
C	 -1.341419	 0.551458	 -0.220231
H	 -1.333674	 -1.468530	 -0.105118
C	 -2.187207	 1.703403	 0.272023
H	 -0.311159	 0.725600	 0.087634
H	 -1.361859	 0.555210	 -1.304491
O	 -2.099052	 1.764150	 1.663514
H	 -1.833225	 2.635499	 -0.166231
H	 -3.220623	 1.554321	 -0.032535
C	 -2.890388	 2.744249	 2.248675
H	 -2.739101	 2.699357	 3.317545
H	 -2.616964	 3.737489	 1.898806
H	 -3.944783	 2.583264	 2.036782

	symmetry c1
}
set optking {
	frozen_dihedral = ("
		6 3 2 4
	")
}

ee,wfn = optimize('scf', return_wfn=True)
oeprop( wfn, 'DIPOLE', 'QUADRUPOLE', 'MULLIKEN_CHARGES')
f=open( 'psi4out.xyz', 'w' )
f.write( "14  " )
f.write( str(ee) + "\n" )
f.write( MOL.save_string_xyz() )
f.close()
--------------------------------------------------------------------------

    Molecular point group: c1
  Charge       = 0
  Multiplicity = 1
  Basis Set: CC-PVTZ
  Basis Set:
  @DF-RHF Final Energy:  -248.21914512021419
    Total Energy =                       -248.2191451202143071
    Molecular point group: c1
  Basis Set: CC-PVTZ
  Basis Set:
  Basis Set: CC-PVTZ
  Basis Set:
  @DF-RHF Final Energy:  -248.22111547357855
    Total Energy =                       -248.2211154735785499
  Basis Set: CC-PVTZ
  Basis Set:
  Basis Set: CC-PVTZ
  Basis Set:
  @DF-RHF Final Energy:  -248.22135450688882
    Total Energy =                       -248.2213545068887584
  Basis Set: CC-PVTZ
  Basis Set:
  Basis Set: CC-PVTZ
  Basis Set:
  @DF-RHF Final Energy:  -248.22137698351358
    Total Energy =                       -248.2213769835134372
  Basis Set: CC-PVTZ
  Basis Set:
  Basis Set: CC-PVTZ
  Basis Set:
  @DF-RHF Final Energy:  -248.22137807631634
    Total Energy =                       -248.2213780763163413
  Basis Set: CC-PVTZ
  Basis Set:
  Charge       = 0
  Multiplicity = 1
  Basis Set: CC-PVTZ
  Basis Set:

    Orbital Energies (a.u.)
    -----------------------

    Doubly Occupied:

       1A    -20.544559     2A    -15.526284     3A    -11.265919
       4A    -11.259826     5A    -11.241600     6A     -1.381019
       7A     -1.178024     8A     -1.000271     9A     -0.904233
      10A     -0.819324    11A     -0.683787    12A     -0.667735
      13A     -0.650778    14A     -0.617598    15A     -0.594655
      16A     -0.557977    17A     -0.520511    18A     -0.501698
      19A     -0.465546    20A     -0.416696    21A     -0.384034

  @DF-RHF Final Energy:  -248.22137814214304

   => Energetics <=

    Nuclear Repulsion Energy =            193.5652028026153459
    One-Electron Energy =                -721.2090120173041896
    Two-Electron Energy =                 279.4224310725459191
    DFT Exchange-Correlation Energy =       0.0000000000000000
    Empirical Dispersion Energy =           0.0000000000000000
    PCM Polarization Energy =               0.0000000000000000
    EFP Energy =                            0.0000000000000000
    Total Energy =                       -248.2213781421429530
    Molecular point group: c1
  Basis Set: CC-PVTZ
  Basis Set:

  -Total Gradient:
     Atom            X                  Y                   Z
    ------   -----------------  -----------------  -----------------
       1       -0.000000863639    -0.000003641484     0.000002494130
       2        0.000553560261     0.000067862193     0.000987877385
       3        0.000193886376    -0.000374407020    -0.000973331052
       4       -0.000491203846     0.000010195068    -0.000677135257
       5        0.000015170962     0.000010367073     0.000020330772
       6       -0.000244128347     0.000292530042     0.000650672300
       7        0.000000779852    -0.000003460577     0.000003931104
       8       -0.000005591922    -0.000003097838    -0.000008864903
       9       -0.000005298544    -0.000000270812    -0.000008914653
      10       -0.000010424346     0.000005027810     0.000002260293
      11       -0.000008360502     0.000007327370     0.000001177527
      12        0.000001963165    -0.000004428185    -0.000003730679
      13        0.000001673928    -0.000006005082    -0.000000312850
      14       -0.000001163399     0.000002001445     0.000003545886

  **** Optimization is complete! (in 6 steps) ****
    Final optimized geometry and variables:
    Molecular point group: c1

    Geometry (in Angstrom), charge = 0, multiplicity = 1:

    H           -0.815692654544    -2.027263146114    -1.097809692561
    N            0.118444500483    -1.925264002958    -0.759411416088
    C            0.663315047366    -0.630738122721    -1.125857956908
    H            0.656493002965    -2.664259524501    -1.159152286368
    C           -0.123224767721     0.508306219042    -0.510774987176
    H            1.680777994697    -0.570758213234    -0.759367030834
    H            0.692197529655    -0.465535970245    -2.203607479139
    O            0.068390696178     0.541346602262     0.864245465550
    H            0.204319434300     1.446854281214    -0.957784193056
    H           -1.183575490777     0.394586515331    -0.743267997016
    C           -0.658588482002     1.523649759196     1.521135907328
    H           -0.424271422809     1.460560922722     2.573801499708
    H           -0.400705063252     2.519473052869     1.164743360032
    H           -1.729724890767     1.381010120445     1.392972756502

  Mulliken Charges: (a.u.)
   Center  Symbol    Alpha    Beta     Spin     Total
       1     H     0.43373  0.43373  0.00000  0.13254
       2     N     3.68246  3.68246  0.00000 -0.36491
       3     C     3.02176  3.02176  0.00000 -0.04352
       4     H     0.43008  0.43008  0.00000  0.13984
       5     C     2.96469  2.96469  0.00000  0.07062
       6     H     0.45475  0.45475  0.00000  0.09051
       7     H     0.47005  0.47005  0.00000  0.05990
       8     O     4.16576  4.16576  0.00000 -0.33153
       9     H     0.47196  0.47196  0.00000  0.05608
      10     H     0.47978  0.47978  0.00000  0.04043
      11     C     3.03201  3.03201  0.00000 -0.06401
      12     H     0.44636  0.44636  0.00000  0.10727
      13     H     0.47393  0.47393  0.00000  0.05214
      14     H     0.47268  0.47268  0.00000  0.05465

   Total alpha = 21.00000, Total beta = 21.00000, Total charge = -0.00000

*** Psi4 exiting successfully. Buy a developer a beer!
