  ==> Input File <==

--------------------------------------------------------------------------
set {
	reference rhf
	basis 6-31G*
}

set_num_threads( 4 )
memory 2 gb

molecule MOL {
0 1

O	 -2.159179	 1.524351	 -0.603313
C	 -2.055601	 0.390164	 -0.246486
C	 -0.889235	 -0.467034	 -0.705952
C	 -3.053756	 -0.238676	 0.699886
C	 0.379448	 -0.143569	 0.099626
H	 -0.716384	 -0.252222	 -1.754895
H	 -1.129898	 -1.522144	 -0.611870
C	 1.631333	 -0.777471	 -0.511575
H	 0.482768	 0.934507	 0.149241
H	 0.263088	 -0.495696	 1.123449
C	 2.915987	 -0.544314	 0.291766
H	 1.766672	 -0.399098	 -1.523130
H	 1.471257	 -1.849544	 -0.605828
C	 3.373361	 0.914346	 0.347591
H	 3.708709	 -1.142521	 -0.150311
H	 2.780642	 -0.921148	 1.303579
H	 3.506512	 1.320010	 -0.651625
H	 4.322697	 0.999599	 0.867103
H	 2.660624	 1.545032	 0.868198
H	 -3.597819	 -1.026868	 0.186065
H	 -3.751464	 0.508293	 1.052058
H	 -2.546944	 -0.697467	 1.543958

	symmetry c1
}
set optking {
	frozen_dihedral = ("
		6 3 5 8
	")
}

ee = optimize('scf')
oeprop('DIPOLE', 'QUADRUPOLE', 'MULLIKEN_CHARGES')
f=open( 'psi4out.xyz', 'w' )
f.write( "22  " )
f.write( str(ee) + "\n" )
f.write( MOL.save_string_xyz() )
f.close()
--------------------------------------------------------------------------

    Molecular point group: c1
  Charge       = 0
  Multiplicity = 1
  Basis Set: 6-31G*
  Basis Set:
  @DF-RHF Final Energy:  -348.09792444573537
    Total Energy =                       -348.0979244457358277
    Molecular point group: c1
  Basis Set: 6-31G*
  Basis Set:
  Basis Set: 6-31G*
  Basis Set:
  @DF-RHF Final Energy:  -348.09777583566290
    Total Energy =                       -348.0977758356625600
  Basis Set: 6-31G*
  Basis Set:
  Basis Set: 6-31G*
  Basis Set:
  @DF-RHF Final Energy:  -348.09771950808556
    Total Energy =                       -348.0977195080855040
  Basis Set: 6-31G*
  Basis Set:
  Basis Set: 6-31G*
  Basis Set:
  @DF-RHF Final Energy:  -348.09797737492795
    Total Energy =                       -348.0979773749279502
  Basis Set: 6-31G*
  Basis Set:
  Basis Set: 6-31G*
  Basis Set:
  @DF-RHF Final Energy:  -348.09795079825807
    Total Energy =                       -348.0979507982581254
  Basis Set: 6-31G*
  Basis Set:
  Basis Set: 6-31G*
  Basis Set:
  @DF-RHF Final Energy:  -348.09797463762629
    Total Energy =                       -348.0979746376260096
  Basis Set: 6-31G*
  Basis Set:
  Basis Set: 6-31G*
  Basis Set:
  @DF-RHF Final Energy:  -348.09798646199596
    Total Energy =                       -348.0979864619959017
  Basis Set: 6-31G*
  Basis Set:
  Charge       = 0
  Multiplicity = 1
  Basis Set: 6-31G*
  Basis Set:

    Orbital Energies (a.u.)
    -----------------------

    Doubly Occupied:

       1A    -20.547434     2A    -11.324637     3A    -11.229455
       4A    -11.228879     5A    -11.228227     6A    -11.222115
       7A    -11.220402     8A    -11.210858     9A     -1.393200
      10A     -1.095347    11A     -1.044022    12A     -0.999494
      13A     -0.937296    14A     -0.857790    15A     -0.786153
      16A     -0.733315    17A     -0.662648    18A     -0.642763
      19A     -0.626221    20A     -0.619814    21A     -0.597036
      22A     -0.585083    23A     -0.561057    24A     -0.540607
      25A     -0.533647    26A     -0.520955    27A     -0.498276
      28A     -0.486187    29A     -0.470125    30A     -0.463573
      31A     -0.460340    32A     -0.396502

  @DF-RHF Final Energy:  -348.09798652152540

   => Energetics <=

    Nuclear Repulsion Energy =            373.0096445993826819
    One-Electron Energy =               -1210.7683408284290181
    Two-Electron Energy =                 489.6607097075209367
    DFT Exchange-Correlation Energy =       0.0000000000000000
    Empirical Dispersion Energy =           0.0000000000000000
    PCM Polarization Energy =               0.0000000000000000
    EFP Energy =                            0.0000000000000000
    Total Energy =                       -348.0979865215253994
    Molecular point group: c1
  Basis Set: 6-31G*
  Basis Set:

  -Total Gradient:
     Atom            X                  Y                   Z
    ------   -----------------  -----------------  -----------------
       1       -0.000015269456    -0.000003841055    -0.000017053536
       2        0.000021971687     0.000011467034     0.000042046056
       3       -0.000744834053     0.002807484849    -0.000052707571
       4       -0.000000099490     0.000000245631     0.000006535627
       5       -0.000131567652    -0.002092517750     0.001133718391
       6        0.000660285035    -0.001910523182    -0.000246340688
       7        0.000011433760     0.000007571962    -0.000001386611
       8        0.000216691409     0.001185818837    -0.000845326861
       9       -0.000001835261    -0.000005588305    -0.000012656341
      10       -0.000000273840     0.000008630834     0.000010156741
      11       -0.000002444317     0.000004327000    -0.000004414650
      12        0.000010832243    -0.000002726667     0.000000777671
      13        0.000001161913    -0.000000826566     0.000001206571
      14       -0.000006042054    -0.000003198296    -0.000005284311
      15        0.000003022970     0.000001552441    -0.000000202974
      16       -0.000009549875    -0.000000714623    -0.000002778586
      17       -0.000006248039    -0.000001281362     0.000001089155
      18        0.000003378733    -0.000003854014    -0.000002625625
      19        0.000000941219     0.000000830880     0.000003614046
      20       -0.000005609153    -0.000000462870    -0.000002963912
      21       -0.000003167013    -0.000001973426    -0.000000816932
      22       -0.000002778768    -0.000000421353    -0.000004585659

  **** Optimization is complete! (in 8 steps) ****
    Final optimized geometry and variables:
    Molecular point group: c1

    Geometry (in Angstrom), charge = 0, multiplicity = 1:

    O           -2.204518398744     1.418636349871    -0.546787776430
    C           -2.082603022509     0.291097287010    -0.175290120705
    C           -0.907069590468    -0.555542037825    -0.630187242451
    C           -3.070239342679    -0.341560440243     0.779564985902
    C            0.366861089034    -0.216155253627     0.161888050434
    H           -0.740427993019    -0.363296909969    -1.684547906769
    H           -1.134640759605    -1.612572438240    -0.522432307421
    C            1.613382410926    -0.865329559119    -0.444823518239
    H            0.480461608858     0.862262830654     0.176772112928
    H            0.253431393479    -0.536459757452     1.195926099983
    C            2.898101181936    -0.647632592113     0.362379876071
    H            1.754272542514    -0.486063642189    -1.455024193184
    H            1.442441262467    -1.935762357983    -0.541652849138
    C            3.361769841400     0.808269524267     0.436301425299
    H            3.688677412350    -1.244133822489    -0.085856247166
    H            2.760171876503    -1.035718908657     1.369575489069
    H            3.494555657962     1.226364139025    -0.557754867599
    H            4.312425961246     0.882683822164     0.955071066978
    H            2.652556190665     1.435112541786     0.966355792282
    H           -3.598505465305    -1.148483513744     0.278618742789
    H           -3.782229441239     0.397686554014     1.119154014186
    H           -2.555181947886    -0.776428939114     1.631350811283

  Mulliken Charges: (a.u.)
   Center  Symbol    Alpha    Beta     Spin     Total
       1     O     4.26217  4.26217  0.00000 -0.52435
       2     C     2.73768  2.73768  0.00000  0.52465
       3     C     3.19981  3.19981  0.00000 -0.39961
       4     C     3.28942  3.28942  0.00000 -0.57884
       5     C     3.16419  3.16419  0.00000 -0.32837
       6     H     0.40117  0.40117  0.00000  0.19766
       7     H     0.41698  0.41698  0.00000  0.16604
       8     C     3.15291  3.15291  0.00000 -0.30583
       9     H     0.40369  0.40369  0.00000  0.19262
      10     H     0.42104  0.42104  0.00000  0.15792
      11     C     3.15339  3.15339  0.00000 -0.30679
      12     H     0.41988  0.41988  0.00000  0.16025
      13     H     0.42195  0.42195  0.00000  0.15610
      14     C     3.24212  3.24212  0.00000 -0.48424
      15     H     0.41953  0.41953  0.00000  0.16094
      16     H     0.42313  0.42313  0.00000  0.15373
      17     H     0.42044  0.42044  0.00000  0.15913
      18     H     0.41833  0.41833  0.00000  0.16333
      19     H     0.41852  0.41852  0.00000  0.16295
      20     H     0.40690  0.40690  0.00000  0.18620
      21     H     0.39712  0.39712  0.00000  0.20575
      22     H     0.40963  0.40963  0.00000  0.18075

   Total alpha = 32.00000, Total beta = 32.00000, Total charge =  0.00000
