  ==> Input File <==

--------------------------------------------------------------------------
set {
	reference rhf
	basis 6-31G*
}

set_num_threads( 4 )
memory 2 gb

molecule MOL {
0 1

O	 -0.291628	 1.323815	 -0.000732
C	 -0.449655	 0.146360	 0.000961
C	 -1.783294	 -0.549321	 -0.000296
O	 0.550821	 -0.724572	 0.000672
H	 -1.863538	 -1.185371	 -0.874187
H	 -2.574672	 0.185258	 -0.002793
H	 -1.866414	 -1.182381	 0.875436
C	 1.753744	 -0.320366	 0.629858
H	 2.158179	 0.557497	 0.147007
H	 2.434024	 -1.151214	 0.526615
H	 1.581518	 -0.104348	 1.674376

	symmetry c1
}
set optking {
	frozen_dihedral = ("
		8 4 2 1
	")
}

ee = optimize('scf')
oeprop('DIPOLE', 'QUADRUPOLE', 'MULLIKEN_CHARGES')
f=open( 'psi4out.xyz', 'w' )
f.write( "11  " )
f.write( str(ee) + "\n" )
f.write( MOL.save_string_xyz() )
f.close()
--------------------------------------------------------------------------

    Molecular point group: c1
  Charge       = 0
  Multiplicity = 1
  Basis Set: 6-31G*
  Basis Set:
  @DF-RHF Final Energy:  -266.83109674440158
    Total Energy =                       -266.8310967444014636
    Molecular point group: c1
  Basis Set: 6-31G*
  Basis Set:
  Basis Set: 6-31G*
  Basis Set:
  @DF-RHF Final Energy:  -266.82763737885648
    Total Energy =                       -266.8276373788565934
  Basis Set: 6-31G*
  Basis Set:
  Basis Set: 6-31G*
  Basis Set:
  @DF-RHF Final Energy:  -266.83149093269799
    Total Energy =                       -266.8314909326981592
  Basis Set: 6-31G*
  Basis Set:
  Basis Set: 6-31G*
  Basis Set:
  @DF-RHF Final Energy:  -266.83155067807013
    Total Energy =                       -266.8315506780697888
  Basis Set: 6-31G*
  Basis Set:
  Basis Set: 6-31G*
  Basis Set:
  @DF-RHF Final Energy:  -266.83155512587848
    Total Energy =                       -266.8315551258785945
  Basis Set: 6-31G*
  Basis Set:
  Basis Set: 6-31G*
  Basis Set:
  @DF-RHF Final Energy:  -266.83155776054684
    Total Energy =                       -266.8315577605467865
  Basis Set: 6-31G*
  Basis Set:
  Charge       = 0
  Multiplicity = 1
  Basis Set: 6-31G*
  Basis Set:

    Orbital Energies (a.u.)
    -----------------------

    Doubly Occupied:

       1A    -20.601348     2A    -20.549036     3A    -11.377179
       4A    -11.284381     5A    -11.234997     6A     -1.468107
       7A     -1.365416     8A     -1.034324     9A     -0.954273
      10A     -0.778083    11A     -0.695238    12A     -0.679720
      13A     -0.675853    14A     -0.598251    15A     -0.592692
      16A     -0.563523    17A     -0.531630    18A     -0.515574
      19A     -0.456910    20A     -0.441590

  @DF-RHF Final Energy:  -266.83155838145910

   => Energetics <=

    Nuclear Repulsion Energy =            182.9756485494597484
    One-Electron Energy =                -726.8181656051431219
    Two-Electron Energy =                 277.0109586742241277
    DFT Exchange-Correlation Energy =       0.0000000000000000
    Empirical Dispersion Energy =           0.0000000000000000
    PCM Polarization Energy =               0.0000000000000000
    EFP Energy =                            0.0000000000000000
    Total Energy =                       -266.8315583814592742
    Molecular point group: c1
  Basis Set: 6-31G*
  Basis Set:

  -Total Gradient:
     Atom            X                  Y                   Z
    ------   -----------------  -----------------  -----------------
       1       -0.000395571385     0.000201695967    -0.009063185590
       2       -0.000525112133    -0.001582653313     0.016431589457
       3        0.000038982861     0.000007627706     0.000050708540
       4        0.003018228309     0.004205724052    -0.013532258396
       5       -0.000016616834     0.000049309098    -0.000028456720
       6       -0.000009841521    -0.000007677723    -0.000010164658
       7        0.000021342180    -0.000023870276    -0.000012508134
       8       -0.002173586483    -0.002893307481     0.006212551554
       9        0.000008431523     0.000020004438    -0.000006866318
      10        0.000003203907    -0.000004549895    -0.000016743599
      11        0.000030539576     0.000027697425    -0.000024666136

  **** Optimization is complete! (in 7 steps) ****
    Final optimized geometry and variables:
    Molecular point group: c1

    Geometry (in Angstrom), charge = 0, multiplicity = 1:

    O           -0.285652446174     1.350577105107    -0.068332604432
    C           -0.433978331001     0.173609833665    -0.094695720684
    C           -1.762176664754    -0.527932062286    -0.166589048262
    O            0.578594105932    -0.690610925524    -0.151654716895
    H           -1.789023845732    -1.167399170584    -1.041221568244
    H           -2.558117053606     0.200206351314    -0.213420288203
    H           -1.888032875340    -1.160671204234     0.704907925225
    C            1.798478460160    -0.293770287308     0.449534478047
    H            2.233045930630     0.544374461664    -0.074944003479
    H            2.451807411090    -1.150143120729     0.390034692976
    H            1.636190090929    -0.023782954719     1.484544636036

  Mulliken Charges: (a.u.)
   Center  Symbol    Alpha    Beta     Spin     Total
       1     O     4.27547  4.27547  0.00000 -0.55094
       2     C     2.62242  2.62242  0.00000  0.75516
       3     C     3.28269  3.28269  0.00000 -0.56537
       4     O     4.30235  4.30235  0.00000 -0.60469
       5     H     0.39828  0.39828  0.00000  0.20345
       6     H     0.39696  0.39696  0.00000  0.20609
       7     H     0.40232  0.40232  0.00000  0.19537
       8     C     3.09306  3.09306  0.00000 -0.18612
       9     H     0.40453  0.40453  0.00000  0.19094
      10     H     0.40730  0.40730  0.00000  0.18540
      11     H     0.41464  0.41464  0.00000  0.17072

   Total alpha = 20.00000, Total beta = 20.00000, Total charge = -0.00000
