  ==> Input File <==

--------------------------------------------------------------------------
set {
	reference rhf
	basis 6-31G*
}

set_num_threads( 1 )
memory 2 gb

molecule MOL {
0 1

O	 -0.682937	 1.318834	 -0.186099
C	 -0.860635	 0.152188	 -0.042321
C	 -2.173363	 -0.477127	 0.338347
O	 0.083258	 -0.765189	 -0.202595
H	 -2.477673	 -1.180929	 -0.427595
H	 -2.923125	 0.290956	 0.455536
H	 -2.058825	 -1.029004	 1.264191
C	 -0.111779	 -1.773251	 -1.191822
C	 0.306671	 -1.290525	 -2.568239
H	 -1.145380	 -2.084253	 -1.182567
H	 0.507205	 -2.596551	 -0.865425
H	 0.218514	 -2.101783	 -3.284353
H	 -0.323809	 -0.474868	 -2.899246
H	 1.338339	 -0.955910	 -2.557770

	symmetry c1
}
set optking {
	frozen_dihedral = ("
		10 8 4 2
	")
}

ee = energy('scf')
oeprop('DIPOLE', 'QUADRUPOLE', 'MULLIKEN_CHARGES')
f=open( 'psi4out.xyz', 'w' )
f.write( "14  " )
f.write( str(ee) + "\n" )
f.write( MOL.save_string_xyz() )
f.close()
--------------------------------------------------------------------------

    Molecular point group: c1

    Geometry (in Angstrom), charge = 0, multiplicity = 1:

       Center              X                  Y                   Z               Mass
    ------------   -----------------  -----------------  -----------------  -----------------
           O         -0.108511539919     1.796057668185     0.465298045978    15.994914619560
           C         -0.286209539919     0.629411668185     0.609076045978    12.000000000000
           C         -1.598937539919     0.000096668185     0.989744045978    12.000000000000
           O          0.657683460081    -0.287965331815     0.448802045978    15.994914619560
           H         -1.903247539919    -0.703705331815     0.223802045978     1.007825032070
           H         -2.348699539919     0.768179668185     1.106933045978     1.007825032070
           H         -1.484399539919    -0.551780331815     1.915588045978     1.007825032070
           C          0.462646460081    -1.296027331815    -0.540424954022    12.000000000000
           C          0.881096460081    -0.813301331815    -1.916841954022    12.000000000000
           H         -0.570954539919    -1.607029331815    -0.531169954022     1.007825032070
           H          1.081630460081    -2.119327331815    -0.214027954022     1.007825032070
           H          0.792939460081    -1.624559331815    -2.632955954022     1.007825032070
           H          0.250616460081     0.002355668185    -2.247848954022     1.007825032070
           H          1.912764460081    -0.478686331815    -1.906372954022     1.007825032070

  Charge       = 0
  Multiplicity = 1
  Basis Set: 6-31G*
  Basis Set:

    Orbital Energies (a.u.)
    -----------------------

    Doubly Occupied:

       1A    -20.591397     2A    -20.551617     3A    -11.376832
       4A    -11.301271     5A    -11.235648     6A    -11.228262
       7A     -1.463146     8A     -1.368547     9A     -1.051002
      10A     -1.014641    11A     -0.894677    12A     -0.772782
      13A     -0.696350    14A     -0.687476    15A     -0.671826
      16A     -0.609846    17A     -0.598473    18A     -0.586050
      19A     -0.550872    20A     -0.546017    21A     -0.525873
      22A     -0.485212    23A     -0.453840    24A     -0.436070

  @DF-RHF Final Energy:  -305.84968522984366

   => Energetics <=

    Nuclear Repulsion Energy =            249.4572129477180908
    One-Electron Energy =                -911.2182896849487861
    Two-Electron Energy =                 355.9113915073872363
    DFT Exchange-Correlation Energy =       0.0000000000000000
    Empirical Dispersion Energy =           0.0000000000000000
    PCM Polarization Energy =               0.0000000000000000
    EFP Energy =                            0.0000000000000000
    Total Energy =                       -305.8496852298434874

  Mulliken Charges: (a.u.)
   Center  Symbol    Alpha    Beta     Spin     Total
       1     O     4.25857  4.25857  0.00000 -0.51713
       2     C     2.62447  2.62447  0.00000  0.75106
       3     C     3.29742  3.29742  0.00000 -0.59485
       4     O     4.30441  4.30441  0.00000 -0.60882
       5     H     0.40670  0.40670  0.00000  0.18659
       6     H     0.39523  0.39523  0.00000  0.20954
       7     H     0.39825  0.39825  0.00000  0.20351
       8     C     3.01080  3.01080  0.00000 -0.02160
       9     C     3.24762  3.24762  0.00000 -0.49524
      10     H     0.42086  0.42086  0.00000  0.15828
      11     H     0.40400  0.40400  0.00000  0.19200
      12     H     0.41739  0.41739  0.00000  0.16521
      13     H     0.41071  0.41071  0.00000  0.17857
      14     H     0.40356  0.40356  0.00000  0.19287

   Total alpha = 24.00000, Total beta = 24.00000, Total charge = -0.00000
