  ==> Input File <==

--------------------------------------------------------------------------
set {
	reference rhf
	basis cc-pvtz
}

set_num_threads( 4 )
memory 2 gb

molecule MOL {
0 1

H	 -3.243634	 1.228643	 -0.374000
C	 -2.688629	 2.008968	 0.141701
O	 -1.332826	 1.946319	 -0.150556
H	 -3.053797	 2.970774	 -0.187644
H	 -2.872389	 1.912663	 1.210271
C	 -0.718530	 0.758693	 0.228682
C	 0.718529	 0.758687	 -0.228709
H	 -0.743785	 0.650267	 1.312922
H	 -1.232080	 -0.096193	 -0.205907
O	 1.401606	 -0.295166	 0.366636
H	 0.748705	 0.673477	 -1.312803
H	 1.176496	 1.708671	 0.046552
C	 2.714315	 -0.441627	 -0.061017
H	 2.765292	 -0.641548	 -1.128869
H	 3.305661	 0.447341	 0.150952
H	 3.143725	 -1.278506	 0.470147

	symmetry c1
}
set optking {
	frozen_dihedral = ("
		3 6 7 11
	")
}

ee = optimize('scf')
oeprop('DIPOLE', 'QUADRUPOLE', 'MULLIKEN_CHARGES')
f=open( 'psi4out.xyz', 'w' )
f.write( "16  " )
f.write( str(ee) + "\n" )
f.write( MOL.save_string_xyz() )
f.close()
--------------------------------------------------------------------------

    Molecular point group: c1
  Charge       = 0
  Multiplicity = 1
  Basis Set: CC-PVTZ
  Basis Set:
  @DF-RHF Final Energy:  -307.09865356025290
    Total Energy =                       -307.0986535602526715
    Molecular point group: c1
  Basis Set: CC-PVTZ
  Basis Set:
  Basis Set: CC-PVTZ
  Basis Set:
  @DF-RHF Final Energy:  -307.09905090058015
    Total Energy =                       -307.0990509005800959
  Basis Set: CC-PVTZ
  Basis Set:
  Basis Set: CC-PVTZ
  Basis Set:
  @DF-RHF Final Energy:  -307.09912422633738
    Total Energy =                       -307.0991242263377217
  Basis Set: CC-PVTZ
  Basis Set:
  Charge       = 0
  Multiplicity = 1
  Basis Set: CC-PVTZ
  Basis Set:

    Orbital Energies (a.u.)
    -----------------------

    Doubly Occupied:

       1A    -20.552570     2A    -20.552305     3A    -11.266030
       4A    -11.265357     5A    -11.264727     6A    -11.264638
       7A     -1.392279     8A     -1.380978     9A     -1.031617
      10A     -0.942193    11A     -0.883320    12A     -0.831810
      13A     -0.694164    14A     -0.676276    15A     -0.661561
      16A     -0.650121    17A     -0.621491    18A     -0.601228
      19A     -0.576429    20A     -0.518345    21A     -0.509285
      22A     -0.485085    23A     -0.468036    24A     -0.421239
      25A     -0.420918

  @DF-RHF Final Energy:  -307.09912654054767

   => Energetics <=

    Nuclear Repulsion Energy =            255.0575023076187051
    One-Electron Energy =                -924.4492540604397846
    Two-Electron Energy =                 362.2926252122735491
    DFT Exchange-Correlation Energy =       0.0000000000000000
    Empirical Dispersion Energy =           0.0000000000000000
    PCM Polarization Energy =               0.0000000000000000
    EFP Energy =                            0.0000000000000000
    Total Energy =                       -307.0991265405475019
    Molecular point group: c1
  Basis Set: CC-PVTZ
  Basis Set:

  -Total Gradient:
     Atom            X                  Y                   Z
    ------   -----------------  -----------------  -----------------
       1       -0.000020500659     0.000006278233    -0.000008413410
       2        0.000023299089    -0.000098075695     0.000029444033
       3        0.000463729461     0.000726919440     0.001368193978
       4        0.000071303818    -0.000008575975    -0.000009752214
       5       -0.000016450974     0.000017417736     0.000011591213
       6       -0.000602593792    -0.001346783537    -0.001727654462
       7        0.000144698367     0.002679582492     0.000240885406
       8        0.000012274697    -0.000021573912    -0.000004865739
       9        0.000007116224    -0.000007233704    -0.000002081177
      10       -0.000065795442     0.000045133712     0.000012071498
      11        0.000071178946    -0.002062295953     0.000126460598
      12       -0.000040653468     0.000000053590    -0.000002074384
      13        0.000000842954     0.000069576002    -0.000057452571
      14        0.000009110602    -0.000012901895    -0.000008096435
      15        0.000016143716    -0.000007573597     0.000011493913
      16       -0.000073703540     0.000020053063     0.000020249757

  **** Optimization is complete! (in 4 steps) ****
    Final optimized geometry and variables:
    Molecular point group: c1

    Geometry (in Angstrom), charge = 0, multiplicity = 1:

    H           -3.276922957884     0.446968549198    -0.342654693662
    C           -2.688537533345     1.234287165301     0.123045301536
    O           -1.345991223852     1.137116204892    -0.220617380094
    H           -3.050287467733     2.191050541390    -0.224220103519
    H           -2.828110324378     1.176597459154     1.200201557904
    C           -0.735598101821    -0.049144501291     0.174157874888
    C            0.701660270570    -0.019432568708    -0.296916658262
    H           -0.751973701950    -0.149568663424     1.256969284373
    H           -1.249247926897    -0.910944018642    -0.246056597912
    O            1.367549618868    -1.089300571207     0.294922449568
    H            0.740337462045    -0.106773612438    -1.380624613781
    H            1.154979960339     0.927321821883    -0.014755533570
    C            2.700171791222    -1.213158877229    -0.077237327652
    H            2.801233058180    -1.374514649393    -1.148142948827
    H            3.272338997417    -0.328380424235     0.192649462004
    H            3.111070354609    -2.065661291378     0.443598918243

  Mulliken Charges: (a.u.)
   Center  Symbol    Alpha    Beta     Spin     Total
       1     H     0.47076  0.47076  0.00000  0.05849
       2     C     3.03132  3.03132  0.00000 -0.06264
       3     O     4.17530  4.17530  0.00000 -0.35059
       4     H     0.44689  0.44689  0.00000  0.10622
       5     H     0.47077  0.47077  0.00000  0.05845
       6     C     2.96354  2.96354  0.00000  0.07293
       7     C     2.96378  2.96378  0.00000  0.07244
       8     H     0.47028  0.47028  0.00000  0.05945
       9     H     0.47109  0.47109  0.00000  0.05782
      10     O     4.17555  4.17555  0.00000 -0.35110
      11     H     0.47139  0.47139  0.00000  0.05723
      12     H     0.46939  0.46939  0.00000  0.06122
      13     C     3.03126  3.03126  0.00000 -0.06252
      14     H     0.47095  0.47095  0.00000  0.05809
      15     H     0.47081  0.47081  0.00000  0.05838
      16     H     0.44693  0.44693  0.00000  0.10614

   Total alpha = 25.00000, Total beta = 25.00000, Total charge = -0.00000
