  ==> Input File <==

--------------------------------------------------------------------------
set {
	reference rhf
	basis 6-31G*
}

set_num_threads( 1 )
memory 2 gb

molecule MOL {
0 1

H	 2.176868	 -0.646004	 -0.217325
O	 1.337496	 -0.537251	 0.205931
C	 0.702312	 0.627605	 -0.264544
C	 -0.714990	 0.596302	 0.266387
H	 0.682322	 0.642550	 -1.350929
H	 1.215941	 1.520383	 0.085680
O	 -1.405996	 -0.526611	 -0.195820
H	 -1.257453	 1.468809	 -0.075599
H	 -0.688972	 0.618407	 1.353696
H	 -0.763474	 -1.166567	 -0.474451

	symmetry c1
}
set optking {
	frozen_dihedral = ("
		5 3 4 7
	")
}

ee = energy('scf')
oeprop('DIPOLE', 'QUADRUPOLE', 'MULLIKEN_CHARGES')
f=open( 'psi4out.xyz', 'w' )
f.write( "10  " )
f.write( str(ee) + "\n" )
f.write( MOL.save_string_xyz() )
f.close()
--------------------------------------------------------------------------

    Molecular point group: c1

    Geometry (in Angstrom), charge = 0, multiplicity = 1:

       Center              X                  Y                   Z               Mass
    ------------   -----------------  -----------------  -----------------  -----------------
           H          2.174802655314    -0.648053659415    -0.209258816419     1.007825032070
           O          1.335430655314    -0.539300659415     0.213997183581    15.994914619560
           C          0.700246655314     0.625555340585    -0.256477816419    12.000000000000
           C         -0.717055344686     0.594252340585     0.274453183581    12.000000000000
           H          0.680256655314     0.640500340585    -1.342862816419     1.007825032070
           H          1.213875655314     1.518333340585     0.093746183581     1.007825032070
           O         -1.408061344686    -0.528660659415    -0.187753816419    15.994914619560
           H         -1.259518344686     1.466759340585    -0.067532816419     1.007825032070
           H         -0.691037344686     0.616357340585     1.361762183581     1.007825032070
           H         -0.765539344686    -1.168616659415    -0.466384816419     1.007825032070

  Charge       = 0
  Multiplicity = 1
  Basis Set: 6-31G*
  Basis Set:

    Orbital Energies (a.u.)
    -----------------------

    Doubly Occupied:

       1A    -20.573941     2A    -20.546181     3A    -11.282481
       4A    -11.267583     5A     -1.386513     6A     -1.350456
       7A     -1.003854     8A     -0.848170     9A     -0.729605
      10A     -0.667009    11A     -0.664525    12A     -0.603365
      13A     -0.573413    14A     -0.543997    15A     -0.480943
      16A     -0.459052    17A     -0.432421

  @DF-RHF Final Energy:  -228.92219080736632

   => Energetics <=

    Nuclear Repulsion Energy =            134.8070971230888233
    One-Electron Energy =                -580.6316144800664460
    Two-Electron Energy =                 216.9023265496115016
    DFT Exchange-Correlation Energy =       0.0000000000000000
    Empirical Dispersion Energy =           0.0000000000000000
    PCM Polarization Energy =               0.0000000000000000
    EFP Energy =                            0.0000000000000000
    Total Energy =                       -228.9221908073660927

  Mulliken Charges: (a.u.)
   Center  Symbol    Alpha    Beta     Spin     Total
       1     H     0.27643  0.27643  0.00000  0.44714
       2     O     4.37311  4.37311  0.00000 -0.74622
       3     C     3.03140  3.03140  0.00000 -0.06279
       4     C     2.98047  2.98047  0.00000  0.03906
       5     H     0.42376  0.42376  0.00000  0.15249
       6     H     0.42300  0.42300  0.00000  0.15399
       7     O     4.37689  4.37689  0.00000 -0.75378
       8     H     0.42166  0.42166  0.00000  0.15667
       9     H     0.42099  0.42099  0.00000  0.15803
      10     H     0.27230  0.27230  0.00000  0.45541

   Total alpha = 17.00000, Total beta = 17.00000, Total charge =  0.00000
