  ==> Input File <==

--------------------------------------------------------------------------
set {
	reference rhf
	basis 6-31G*
}

set_num_threads( 1 )
memory 2 gb

molecule MOL {
0 1

H	 2.503300	 -0.053599	 1.249274
C	 1.951159	 -0.223429	 0.317018
C	 0.692068	 0.589600	 0.160137
O	 2.356283	 -1.003275	 -0.482885
C	 -0.558097	 -0.297372	 0.091132
H	 0.791645	 1.202255	 -0.728243
H	 0.616171	 1.253469	 1.020572
C	 -1.850991	 0.512573	 -0.019058
H	 -0.476753	 -0.965681	 -0.762987
H	 -0.604799	 -0.930658	 0.975228
C	 -3.096943	 -0.368295	 -0.099594
H	 -1.800724	 1.150330	 -0.898172
H	 -1.931651	 1.177355	 0.838044
H	 -3.060452	 -1.020287	 -0.967456
H	 -3.996858	 0.233488	 -0.175704
H	 -3.191959	 -0.995686	 0.782074

	symmetry c1
}
set optking {
	frozen_dihedral = ("
		9 5 8 12,
		6 3 5 9
	")
}

ee = energy('scf')
oeprop('DIPOLE', 'QUADRUPOLE', 'MULLIKEN_CHARGES')
f=open( 'psi4out.xyz', 'w' )
f.write( "16  " )
f.write( str(ee) + "\n" )
f.write( MOL.save_string_xyz() )
f.close()
--------------------------------------------------------------------------

    Molecular point group: c1

    Geometry (in Angstrom), charge = 0, multiplicity = 1:

       Center              X                  Y                   Z               Mass
    ------------   -----------------  -----------------  -----------------  -----------------
           H          2.595134057509     0.090826547433     1.260718060112     1.007825032070
           C          2.042993057509    -0.079003452567     0.328462060112    12.000000000000
           C          0.783902057509     0.734025547433     0.171581060112    12.000000000000
           O          2.448117057509    -0.858849452567    -0.471440939888    15.994914619560
           C         -0.466262942491    -0.152946452567     0.102576060112    12.000000000000
           H          0.883479057509     1.346680547433    -0.716798939888     1.007825032070
           H          0.708005057509     1.397894547433     1.032016060112     1.007825032070
           C         -1.759156942491     0.656998547433    -0.007613939888    12.000000000000
           H         -0.384918942491    -0.821255452567    -0.751542939888     1.007825032070
           H         -0.512964942491    -0.786232452567     0.986672060112     1.007825032070
           C         -3.005108942491    -0.223869452567    -0.088149939888    12.000000000000
           H         -1.708889942491     1.294755547433    -0.886727939888     1.007825032070
           H         -1.839816942491     1.321780547433     0.849488060112     1.007825032070
           H         -2.968617942491    -0.875861452567    -0.956011939888     1.007825032070
           H         -3.905023942491     0.377913547433    -0.164259939888     1.007825032070
           H         -3.100124942491    -0.851260452567     0.793518060112     1.007825032070

  Charge       = 0
  Multiplicity = 1
  Basis Set: 6-31G*
  Basis Set:

    Orbital Energies (a.u.)
    -----------------------

    Doubly Occupied:

       1A    -20.562852     2A    -11.326938     3A    -11.235458
       4A    -11.231377     5A    -11.225633     6A    -11.215454
       7A     -1.402988     8A     -1.092121     9A     -1.016691
      10A     -0.907471    11A     -0.813205    12A     -0.780907
      13A     -0.680530    14A     -0.648050    15A     -0.628050
      16A     -0.602200    17A     -0.578923    18A     -0.547773
      19A     -0.526086    20A     -0.507375    21A     -0.483130
      22A     -0.479091    23A     -0.474609    24A     -0.408042

  @DF-RHF Final Energy:  -270.01801727968461

   => Energetics <=

    Nuclear Repulsion Energy =            230.7367200404967491
    One-Electron Energy =                -822.7596108597531384
    Two-Electron Energy =                 322.0048735395719177
    DFT Exchange-Correlation Energy =       0.0000000000000000
    Empirical Dispersion Energy =           0.0000000000000000
    PCM Polarization Energy =               0.0000000000000000
    EFP Energy =                            0.0000000000000000
    Total Energy =                       -270.0180172796845000

  Mulliken Charges: (a.u.)
   Center  Symbol    Alpha    Beta     Spin     Total
       1     H     0.42877  0.42877  0.00000  0.14246
       2     C     2.84211  2.84211  0.00000  0.31578
       3     C     3.20108  3.20108  0.00000 -0.40216
       4     O     4.23656  4.23656  0.00000 -0.47312
       5     C     3.15761  3.15761  0.00000 -0.31521
       6     H     0.39959  0.39959  0.00000  0.20083
       7     H     0.41761  0.41761  0.00000  0.16479
       8     C     3.15255  3.15255  0.00000 -0.30509
       9     H     0.40597  0.40597  0.00000  0.18807
      10     H     0.41865  0.41865  0.00000  0.16269
      11     C     3.24036  3.24036  0.00000 -0.48072
      12     H     0.42020  0.42020  0.00000  0.15960
      13     H     0.42233  0.42233  0.00000  0.15535
      14     H     0.41875  0.41875  0.00000  0.16249
      15     H     0.41737  0.41737  0.00000  0.16526
      16     H     0.42051  0.42051  0.00000  0.15898

   Total alpha = 24.00000, Total beta = 24.00000, Total charge =  0.00000
