  ==> Input File <==

--------------------------------------------------------------------------
set {
	reference rhf
	basis cc-pvtz
}

set_num_threads( 4 )
memory 2 gb

molecule MOL {
0 1

H	 -0.000342	 -0.223902	 -3.352295
C	 -0.027146	 0.371068	 -2.446756
C	 0.024493	 -0.518541	 -1.216015
H	 -0.932586	 0.964979	 -2.449855
H	 0.819708	 1.049865	 -2.473332
N	 -0.042516	 0.263377	 -0.000000
H	 -0.822211	 -1.197105	 -1.225584
H	 0.921114	 -1.142847	 -1.255206
C	 0.024493	 -0.518541	 1.216015
H	 0.682568	 0.950412	 -0.000000
C	 -1.361033	 -0.934946	 1.680471
H	 0.618231	 -1.403872	 1.013253
H	 0.533333	 0.016660	 2.022157
H	 -1.864624	 -1.507323	 0.911483
H	 -1.299840	 -1.539606	 2.577884
H	 -1.973073	 -0.067762	 1.908576

	symmetry c1
}
set optking {
	frozen_dihedral = ("
		12 9 6 3
	")
}

ee = optimize('scf')
oeprop('DIPOLE', 'QUADRUPOLE', 'MULLIKEN_CHARGES')
f=open( 'psi4out.xyz', 'w' )
f.write( "16  " )
f.write( str(ee) + "\n" )
f.write( MOL.save_string_xyz() )
f.close()
--------------------------------------------------------------------------

    Molecular point group: c1
  Charge       = 0
  Multiplicity = 1
  Basis Set: CC-PVTZ
  Basis Set:
  @DF-RHF Final Energy:  -212.39088168766912
    Total Energy =                       -212.3908816876691503
    Molecular point group: c1
  Basis Set: CC-PVTZ
  Basis Set:
  Basis Set: CC-PVTZ
  Basis Set:
  @DF-RHF Final Energy:  -212.39188109575193
    Total Energy =                       -212.3918810957520691
  Basis Set: CC-PVTZ
  Basis Set:
  Basis Set: CC-PVTZ
  Basis Set:
  @DF-RHF Final Energy:  -212.39206383987357
    Total Energy =                       -212.3920638398737424
  Basis Set: CC-PVTZ
  Basis Set:
  Basis Set: CC-PVTZ
  Basis Set:
  @DF-RHF Final Energy:  -212.39206668153395
    Total Energy =                       -212.3920666815340041
  Basis Set: CC-PVTZ
  Basis Set:
  Charge       = 0
  Multiplicity = 1
  Basis Set: CC-PVTZ
  Basis Set:

    Orbital Energies (a.u.)
    -----------------------

    Doubly Occupied:

       1A    -15.528696     2A    -11.239695     3A    -11.239420
       4A    -11.206618     5A    -11.200910     6A     -1.205298
       7A     -1.025601     8A     -0.966203     9A     -0.843087
      10A     -0.805478    11A     -0.665175    12A     -0.628255
      13A     -0.614052    14A     -0.577839    15A     -0.541245
      16A     -0.528868    17A     -0.507144    18A     -0.494028
      19A     -0.482159    20A     -0.467854    21A     -0.361871

  @DF-RHF Final Energy:  -212.39206691523978

   => Energetics <=

    Nuclear Repulsion Energy =            190.7753444565028360
    One-Electron Energy =                -664.0758302187682602
    Two-Electron Energy =                 260.9084188470256436
    DFT Exchange-Correlation Energy =       0.0000000000000000
    Empirical Dispersion Energy =           0.0000000000000000
    PCM Polarization Energy =               0.0000000000000000
    EFP Energy =                            0.0000000000000000
    Total Energy =                       -212.3920669152398091
    Molecular point group: c1
  Basis Set: CC-PVTZ
  Basis Set:

  -Total Gradient:
     Atom            X                  Y                   Z
    ------   -----------------  -----------------  -----------------
       1       -0.000000487768     0.000000903211    -0.000007222631
       2        0.000002271100    -0.000005272973    -0.000004085323
       3        0.001647865645     0.000177610926     0.000059061289
       4        0.000001078802    -0.000002775481     0.000001995800
       5       -0.000001648969    -0.000004668117     0.000003608195
       6       -0.002800555930    -0.000530014213    -0.000198874888
       7       -0.000004196677    -0.000003507184    -0.000010149528
       8        0.000000017876    -0.000004062135    -0.000004556102
       9        0.002929639440     0.001435856320     0.000760113357
      10       -0.000008173236     0.000013513162    -0.000011331870
      11        0.000015586488    -0.000001190087     0.000019582716
      12       -0.001778576595    -0.001060407813    -0.000608739989
      13       -0.000000441551    -0.000005051609     0.000009261616
      14        0.000002600474    -0.000001702837    -0.000005499825
      15       -0.000006972005    -0.000004405795     0.000001829818
      16        0.000001992907    -0.000004825375    -0.000004992637

  **** Optimization is complete! (in 5 steps) ****
    Final optimized geometry and variables:
    Molecular point group: c1

    Geometry (in Angstrom), charge = 0, multiplicity = 1:

    H            0.289458740959     0.078807415495    -3.207585079289
    C            0.242646863009     0.658932974816    -2.293171921679
    C            0.314987867798    -0.247365671121    -1.075864036511
    H           -0.678579358195     1.227896563722    -2.290781158567
    H            1.070458101210     1.361293405582    -2.305436023488
    N            0.237984636773     0.518343207038     0.151812030366
    H           -0.515818707607    -0.943833844577    -1.099629224137
    H            1.225001729200    -0.850584360252    -1.122929725881
    C            0.290473103320    -0.271098108199     1.371774115845
    H            0.967525063878     1.197436315088     0.157627163129
    C           -1.098429604213    -0.656436069424     1.864800225416
    H            0.877467468991    -1.179851156312     1.231511272523
    H            0.787065964570     0.312106977552     2.138271474593
    H           -1.629761670845    -1.242278112982     1.123571548995
    H           -1.033501946836    -1.249182822796     2.771378869671
    H           -1.685418854906     0.229676716003     2.071869137516

  Mulliken Charges: (a.u.)
   Center  Symbol    Alpha    Beta     Spin     Total
       1     H     0.45430  0.45430  0.00000  0.09140
       2     C     3.14300  3.14300  0.00000 -0.28600
       3     C     3.02405  3.02405  0.00000 -0.04810
       4     H     0.44938  0.44938  0.00000  0.10124
       5     H     0.45940  0.45940  0.00000  0.08121
       6     N     3.63790  3.63790  0.00000 -0.27580
       7     H     0.45779  0.45779  0.00000  0.08442
       8     H     0.47188  0.47188  0.00000  0.05623
       9     C     3.03515  3.03515  0.00000 -0.07030
      10     H     0.44356  0.44356  0.00000  0.11288
      11     C     3.13276  3.13276  0.00000 -0.26553
      12     H     0.47025  0.47025  0.00000  0.05950
      13     H     0.45408  0.45408  0.00000  0.09184
      14     H     0.45705  0.45705  0.00000  0.08591
      15     H     0.45641  0.45641  0.00000  0.08717
      16     H     0.45303  0.45303  0.00000  0.09393

   Total alpha = 21.00000, Total beta = 21.00000, Total charge = -0.00000
