  ==> Input File <==

--------------------------------------------------------------------------
set {
	reference rhf
	basis 6-31G*
}

set_num_threads( 1 )
memory 2 gb

molecule MOL {
0 1

O	 3.064095	 0.522976	 -1.230363
C	 2.614672	 -0.180961	 -0.384460
C	 1.169961	 -0.221285	 0.051401
O	 3.347903	 -1.046386	 0.304773
C	 0.282331	 0.750398	 -0.723234
H	 0.835149	 -1.248215	 -0.051110
H	 1.147885	 -0.006834	 1.116868
C	 -1.165157	 0.797499	 -0.222180
H	 0.298482	 0.488709	 -1.776978
H	 0.714351	 1.742919	 -0.654802
C	 -1.962726	 -0.492985	 -0.431096
H	 -1.674170	 1.607905	 -0.738776
H	 -1.174653	 1.060779	 0.834515
C	 -3.429368	 -0.359731	 -0.016123
H	 -1.910633	 -0.779769	 -1.480315
H	 -1.511484	 -1.307484	 0.130992
C	 -4.234886	 -1.644831	 -0.215598
H	 -3.892271	 0.445358	 -0.584267
H	 -3.482005	 -0.062516	 1.030104
C	 -5.699342	 -1.502204	 0.197593
H	 -4.182519	 -1.943802	 -1.260355
H	 -3.776231	 -2.449713	 0.354999
H	 -6.243703	 -2.428957	 0.044603
H	 -6.196019	 -0.727769	 -0.380126
H	 -5.786470	 -1.236979	 1.247516
C	 4.728119	 -1.109107	 -0.004993
H	 4.882018	 -1.033965	 -1.071845
H	 5.068212	 -2.067527	 0.355250
H	 5.265056	 -0.311663	 0.488280

	symmetry c1
}
set optking {
	frozen_dihedral = ("
		21 17 14 11,
		17 14 11 15,
		15 11 8 5,
		6 3 5 9,
		11 8 5 9,
		1 2 4 26,
		6 3 2 1
	")
}

ee = energy('scf')
oeprop('DIPOLE', 'QUADRUPOLE', 'MULLIKEN_CHARGES')
f=open( 'psi4out.xyz', 'w' )
f.write( "29  " )
f.write( str(ee) + "\n" )
f.write( MOL.save_string_xyz() )
f.close()
--------------------------------------------------------------------------

    Molecular point group: c1

    Geometry (in Angstrom), charge = 0, multiplicity = 1:

       Center              X                  Y                   Z               Mass
    ------------   -----------------  -----------------  -----------------  -----------------
           O          3.137360768984     0.942060939333    -0.988770384850    15.994914619560
           C          2.687937768984     0.238123939333    -0.142867384850    12.000000000000
           C          1.243226768984     0.197799939333     0.292993615150    12.000000000000
           O          3.421168768984    -0.627301060667     0.546365615150    15.994914619560
           C          0.355596768984     1.169482939333    -0.481641384850    12.000000000000
           H          0.908414768984    -0.829130060667     0.190482615150     1.007825032070
           H          1.221150768984     0.412250939333     1.358460615150     1.007825032070
           C         -1.091891231016     1.216583939333     0.019412615150    12.000000000000
           H          0.371747768984     0.907793939333    -1.535385384850     1.007825032070
           H          0.787616768984     2.162003939333    -0.413209384850     1.007825032070
           C         -1.889460231016    -0.073900060667    -0.189503384850    12.000000000000
           H         -1.600904231016     2.026989939333    -0.497183384850     1.007825032070
           H         -1.101387231016     1.479863939333     1.076107615150     1.007825032070
           C         -3.356102231016     0.059353939333     0.225469615150    12.000000000000
           H         -1.837367231016    -0.360684060667    -1.238722384850     1.007825032070
           H         -1.438218231016    -0.888399060667     0.372584615150     1.007825032070
           C         -4.161620231016    -1.225746060667     0.025994615150    12.000000000000
           H         -3.819005231016     0.864442939333    -0.342674384850     1.007825032070
           H         -3.408739231016     0.356568939333     1.271696615150     1.007825032070
           C         -5.626076231016    -1.083119060667     0.439185615150    12.000000000000
           H         -4.109253231016    -1.524717060667    -1.018762384850     1.007825032070
           H         -3.702965231016    -2.030628060667     0.596591615150     1.007825032070
           H         -6.170437231016    -2.009872060667     0.286195615150     1.007825032070
           H         -6.122753231016    -0.308684060667    -0.138533384850     1.007825032070
           H         -5.713204231016    -0.817894060667     1.489108615150     1.007825032070
           C          4.801384768984    -0.690022060667     0.236599615150    12.000000000000
           H          4.955283768984    -0.614880060667    -0.830252384850     1.007825032070
           H          5.141477768984    -1.648442060667     0.596842615150     1.007825032070
           H          5.338321768984     0.107421939333     0.729872615150     1.007825032070

  Charge       = 0
  Multiplicity = 1
  Basis Set: 6-31G*
  Basis Set:

    Orbital Energies (a.u.)
    -----------------------

    Doubly Occupied:

       1A    -20.603356     2A    -20.544936     3A    -11.372306
       4A    -11.279439     5A    -11.234857     6A    -11.219140
       7A    -11.217672     8A    -11.216027     9A    -11.215874
      10A    -11.214477    11A    -11.209083    12A     -1.469156
      13A     -1.362546    14A     -1.098123    15A     -1.066863
      16A     -1.019514    17A     -0.977067    18A     -0.928473
      19A     -0.861586    20A     -0.799257    21A     -0.790491
      22A     -0.763704    23A     -0.701527    24A     -0.681969
      25A     -0.672311    26A     -0.650853    27A     -0.628861
      28A     -0.604486    29A     -0.595273    30A     -0.580277
      31A     -0.567037    32A     -0.549824    33A     -0.533124
      34A     -0.527712    35A     -0.516747    36A     -0.511657
      37A     -0.496435    38A     -0.477873    39A     -0.470210
      40A     -0.462467    41A     -0.458924    42A     -0.455008
      43A     -0.441486    44A     -0.435286

  @DF-RHF Final Energy:  -501.04339292314535

   => Energetics <=

    Nuclear Repulsion Energy =            610.2246866003265495
    One-Electron Energy =               -1891.5695784004858524
    Two-Electron Energy =                 780.3014988770144100
    DFT Exchange-Correlation Energy =       0.0000000000000000
    Empirical Dispersion Energy =           0.0000000000000000
    PCM Polarization Energy =               0.0000000000000000
    EFP Energy =                            0.0000000000000000
    Total Energy =                       -501.0433929231448928

  Mulliken Charges: (a.u.)
   Center  Symbol    Alpha    Beta     Spin     Total
       1     O     4.28614  4.28614  0.00000 -0.57228
       2     C     2.60481  2.60481  0.00000  0.79038
       3     C     3.20992  3.20992  0.00000 -0.41984
       4     O     4.30738  4.30738  0.00000 -0.61475
       5     C     3.15379  3.15379  0.00000 -0.30758
       6     H     0.39880  0.39880  0.00000  0.20241
       7     H     0.40112  0.40112  0.00000  0.19776
       8     C     3.15663  3.15663  0.00000 -0.31326
       9     H     0.41310  0.41310  0.00000  0.17381
      10     H     0.40871  0.40871  0.00000  0.18259
      11     C     3.15507  3.15507  0.00000 -0.31014
      12     H     0.41822  0.41822  0.00000  0.16356
      13     H     0.42386  0.42386  0.00000  0.15229
      14     C     3.15029  3.15029  0.00000 -0.30059
      15     H     0.42261  0.42261  0.00000  0.15477
      16     H     0.42361  0.42361  0.00000  0.15278
      17     C     3.15146  3.15146  0.00000 -0.30292
      18     H     0.42332  0.42332  0.00000  0.15336
      19     H     0.42397  0.42397  0.00000  0.15207
      20     C     3.23935  3.23935  0.00000 -0.47871
      21     H     0.42280  0.42280  0.00000  0.15439
      22     H     0.42343  0.42343  0.00000  0.15314
      23     H     0.41923  0.41923  0.00000  0.16155
      24     H     0.42154  0.42154  0.00000  0.15692
      25     H     0.42182  0.42182  0.00000  0.15635
      26     C     3.09464  3.09464  0.00000 -0.18928
      27     H     0.40234  0.40234  0.00000  0.19531
      28     H     0.40948  0.40948  0.00000  0.18104
      29     H     0.41257  0.41257  0.00000  0.17486

   Total alpha = 44.00000, Total beta = 44.00000, Total charge = -0.00000
