                              Psi4 1.0.54 Driver

  ==> Input File <==

--------------------------------------------------------------------------
set {
	reference rhf
	basis cc-pvtz
}

set_num_threads( 4 )
memory 2 gb

molecule MOL {
0 1

O	 0.749630	 1.305591	 -0.000460
C	 0.576499	 0.134701	 -0.003900
C	 -0.765656	 -0.550508	 -0.002152
O	 1.564816	 -0.744612	 -0.000631
C	 -1.945526	 0.411052	 0.000603
H	 -0.794329	 -1.203792	 -0.868145
H	 -0.791555	 -1.205429	 0.862701
C	 -2.137080	 1.088583	 -1.351870
H	 -1.795673	 1.158281	 0.770399
H	 -2.844578	 -0.127412	 0.274720
H	 -1.259853	 1.661348	 -1.634223
H	 -2.980505	 1.767926	 -1.327596
H	 -2.321652	 0.361000	 -2.135377
C	 2.884339	 -0.237801	 0.002883
H	 3.064150	 0.362814	 -0.876312
H	 3.533055	 -1.098529	 0.004958
H	 3.059365	 0.363432	 0.882614

	symmetry c1
}
set optking {
	frozen_dihedral = ("
		9 5 3 6
	")
}

ee,wfn = optimize('scf', return_wfn=True)
oeprop( wfn, 'DIPOLE', 'QUADRUPOLE', 'MULLIKEN_CHARGES')
f=open( 'psi4out.xyz', 'w' )
f.write( "17  " )
f.write( str(ee) + "\n" )
f.write( MOL.save_string_xyz() )
f.close()
--------------------------------------------------------------------------

    Molecular point group: c1
  Charge       = 0
  Multiplicity = 1
  Basis Set: CC-PVTZ
  Basis Set:
  @DF-RHF Final Energy:  -345.03422714823097
    Total Energy =                       -345.0342271482309684
    Molecular point group: c1
  Basis Set: CC-PVTZ
  Basis Set:
  Basis Set: CC-PVTZ
  Basis Set:
  @DF-RHF Final Energy:  -345.03451472133190
    Total Energy =                       -345.0345147213320729
  Basis Set: CC-PVTZ
  Basis Set:
  Basis Set: CC-PVTZ
  Basis Set:
  @DF-RHF Final Energy:  -345.03308789898205
    Total Energy =                       -345.0330878989821031
  Basis Set: CC-PVTZ
  Basis Set:
  Basis Set: CC-PVTZ
  Basis Set:
  @DF-RHF Final Energy:  -345.03465327783169
    Total Energy =                       -345.0346532778313531
  Basis Set: CC-PVTZ
  Basis Set:
  Basis Set: CC-PVTZ
  Basis Set:
  @DF-RHF Final Energy:  -345.03469038463942
    Total Energy =                       -345.0346903846393047
  Basis Set: CC-PVTZ
  Basis Set:
  Basis Set: CC-PVTZ
  Basis Set:
  @DF-RHF Final Energy:  -345.03470740780267
    Total Energy =                       -345.0347074078023297
  Basis Set: CC-PVTZ
  Basis Set:
  Basis Set: CC-PVTZ
  Basis Set:
  @DF-RHF Final Energy:  -345.03471156963536
    Total Energy =                       -345.0347115696353626
  Basis Set: CC-PVTZ
  Basis Set:
  Charge       = 0
  Multiplicity = 1
  Basis Set: CC-PVTZ
  Basis Set:

    Orbital Energies (a.u.)
    -----------------------

    Doubly Occupied:

       1A    -20.597404     2A    -20.534943     3A    -11.365649
       4A    -11.279154     5A    -11.234494     6A    -11.220361
       7A    -11.206713     8A     -1.473332     9A     -1.366743
      10A     -1.080260    11A     -1.000773    12A     -0.939190
      13A     -0.829860    14A     -0.768182    15A     -0.703479
      16A     -0.685206    17A     -0.675673    18A     -0.620245
      19A     -0.617029    20A     -0.568098    21A     -0.566226
      22A     -0.536479    23A     -0.525238    24A     -0.489331
      25A     -0.484520    26A     -0.482566    27A     -0.460931
      28A     -0.440479

  @DF-RHF Final Energy:  -345.03471175095854

   => Energetics <=

    Nuclear Repulsion Energy =            318.1703281870669571
    One-Electron Energy =               -1100.9049570809147554
    Two-Electron Energy =                 437.6999171428892623
    DFT Exchange-Correlation Energy =       0.0000000000000000
    Empirical Dispersion Energy =           0.0000000000000000
    PCM Polarization Energy =               0.0000000000000000
    EFP Energy =                            0.0000000000000000
    Total Energy =                       -345.0347117509585360
    Molecular point group: c1
  Basis Set: CC-PVTZ
  Basis Set:

  -Total Gradient:
     Atom            X                  Y                   Z
    ------   -----------------  -----------------  -----------------
       1        0.000002362497    -0.000039415786    -0.000005181615
       2       -0.000040611128     0.000059028589     0.000013757934
       3       -0.000539274772    -0.000594709860     0.000483417001
       4        0.000056724140    -0.000007925306    -0.000000303370
       5       -0.000424105333    -0.000478989466     0.000629139887
       6        0.000518656911     0.000582749616    -0.000499414585
       7        0.000001811255    -0.000006940596    -0.000001739272
       8       -0.000012255291     0.000002397682    -0.000000426549
       9        0.000454337749     0.000501420994    -0.000622704790
      10       -0.000006372213     0.000003747491     0.000002201192
      11        0.000001968674     0.000002682023    -0.000000709596
      12        0.000005542414    -0.000003487371     0.000000978833
      13        0.000002613587    -0.000000099889     0.000004828283
      14       -0.000002086015    -0.000016661097    -0.000004340311
      15       -0.000009037313    -0.000007331177     0.000008916918
      16        0.000000638410     0.000008725119     0.000001422800
      17       -0.000010913569    -0.000005190962    -0.000009842761

  **** Optimization is complete! (in 8 steps) ****
    Final optimized geometry and variables:
    Molecular point group: c1

    Geometry (in Angstrom), charge = 0, multiplicity = 1:

    O            0.595632514339     1.094848660290     0.397290649045
    C            0.408334440488    -0.065052899284     0.251402256554
    C           -0.941261541695    -0.740351233380     0.226651674544
    O            1.387060807942    -0.943677009358     0.112952628797
    C           -2.119318427230     0.223783076646     0.138389924497
    H           -0.940767999738    -1.443453894144    -0.598238892678
    H           -0.995270355148    -1.336368788257     1.132134213010
    C           -2.295991356686     0.842101532439    -1.245496805311
    H           -1.987562360775     1.011254432131     0.869300535593
    H           -3.020442018218    -0.316457539589     0.407782291874
    H           -1.423254804975     1.414778749186    -1.532754640082
    H           -3.149249836365     1.509872560353    -1.261188336086
    H           -2.462470114145     0.076742471409    -1.997044669776
    C            2.711678207287    -0.452626194371     0.157265301823
    H            2.880698546261     0.259745371466    -0.636465095825
    H            3.351501598624    -1.310641093870     0.029900243075
    H            2.910356532814     0.023170074397     1.106137955685

  Mulliken Charges: (a.u.)
   Center  Symbol    Alpha    Beta     Spin     Total
       1     O     4.19885  4.19885  0.00000 -0.39770
       2     C     2.80565  2.80565  0.00000  0.38870
       3     C     3.10286  3.10286  0.00000 -0.20571
       4     O     4.14629  4.14629  0.00000 -0.29259
       5     C     3.08490  3.08490  0.00000 -0.16979
       6     H     0.43967  0.43967  0.00000  0.12067
       7     H     0.43474  0.43474  0.00000  0.13053
       8     C     3.15186  3.15186  0.00000 -0.30371
       9     H     0.44546  0.44546  0.00000  0.10908
      10     H     0.44769  0.44769  0.00000  0.10463
      11     H     0.44579  0.44579  0.00000  0.10843
      12     H     0.44784  0.44784  0.00000  0.10432
      13     H     0.45802  0.45802  0.00000  0.08397
      14     C     3.03652  3.03652  0.00000 -0.07304
      15     H     0.45428  0.45428  0.00000  0.09145
      16     H     0.44526  0.44526  0.00000  0.10948
      17     H     0.45436  0.45436  0.00000  0.09128

   Total alpha = 28.00000, Total beta = 28.00000, Total charge =  0.00000

*** Psi4 exiting successfully. Buy a developer a beer!
