  ==> Input File <==

--------------------------------------------------------------------------
set {
	reference rhf
	basis 6-31G*
}

set_num_threads( 1 )
memory 2 gb

molecule MOL {
0 1

H	 -2.798360	 -0.862255	 -0.071053
N	 -1.863561	 -0.715187	 0.256814
C	 -1.344686	 0.554728	 -0.219830
H	 -1.300452	 -1.461917	 -0.101532
C	 0.081427	 0.741154	 0.254071
H	 -1.362155	 0.656231	 -1.305829
H	 -1.952773	 1.354456	 0.191809
O	 0.874168	 -0.245412	 -0.342030
H	 0.444037	 1.730782	 -0.023037
H	 0.121165	 0.653424	 1.337565
C	 0.428279	 -0.662090	 -1.593083
H	 1.113087	 -1.419304	 -1.949962
H	 -0.570924	 -1.090395	 -1.537132
H	 0.411348	 0.161613	 -2.303741

	symmetry c1
}
set optking {
	frozen_dihedral = ("
		8 5 3 6,
		6 3 2 4,
		5 8 11 13
	")
}

ee = energy('scf')
oeprop('DIPOLE', 'QUADRUPOLE', 'MULLIKEN_CHARGES')
f=open( 'psi4out.xyz', 'w' )
f.write( "14  " )
f.write( str(ee) + "\n" )
f.write( MOL.save_string_xyz() )
f.close()
--------------------------------------------------------------------------

    Molecular point group: c1

    Geometry (in Angstrom), charge = 0, multiplicity = 1:

       Center              X                  Y                   Z               Mass
    ------------   -----------------  -----------------  -----------------  -----------------
           H         -2.424377729905    -0.774146146754     0.280475223331     1.007825032070
           N         -1.489578729905    -0.627078146754     0.608342223331    14.003074004780
           C         -0.970703729905     0.642836853246     0.131698223331    12.000000000000
           H         -0.926469729905    -1.373808146754     0.249996223331     1.007825032070
           C          0.455409270095     0.829262853246     0.605599223331    12.000000000000
           H         -0.988172729905     0.744339853246    -0.954300776669     1.007825032070
           H         -1.578790729905     1.442564853246     0.543337223331     1.007825032070
           O          1.248150270095    -0.157303146754     0.009498223331    15.994914619560
           H          0.818019270095     1.818890853246     0.328491223331     1.007825032070
           H          0.495147270095     0.741532853246     1.689093223331     1.007825032070
           C          0.802261270095    -0.573981146754    -1.241554776669    12.000000000000
           H          1.487069270095    -1.331195146754    -1.598433776669     1.007825032070
           H         -0.196941729905    -1.002286146754    -1.185603776669     1.007825032070
           H          0.785330270095     0.249721853246    -1.952212776669     1.007825032070

  Charge       = 0
  Multiplicity = 1
  Basis Set: 6-31G*
  Basis Set:

    Orbital Energies (a.u.)
    -----------------------

    Doubly Occupied:

       1A    -20.556513     2A    -15.539663     3A    -11.267201
       4A    -11.267045     5A    -11.244900     6A     -1.385015
       7A     -1.185676     8A     -0.999303     9A     -0.931638
      10A     -0.804759    11A     -0.709182    12A     -0.686078
      13A     -0.640571    14A     -0.616441    15A     -0.600055
      16A     -0.543659    17A     -0.534598    18A     -0.531167
      19A     -0.454762    20A     -0.415622    21A     -0.389769

  @DF-RHF Final Energy:  -248.09818408575330

   => Energetics <=

    Nuclear Repulsion Energy =            203.2837305427534034
    One-Electron Energy =                -740.1565174032994037
    Two-Electron Energy =                 288.7746027747933226
    DFT Exchange-Correlation Energy =       0.0000000000000000
    Empirical Dispersion Energy =           0.0000000000000000
    PCM Polarization Energy =               0.0000000000000000
    EFP Energy =                            0.0000000000000000
    Total Energy =                       -248.0981840857527345

  Mulliken Charges: (a.u.)
   Center  Symbol    Alpha    Beta     Spin     Total
       1     H     0.33097  0.33097  0.00000  0.33806
       2     N     3.91826  3.91826  0.00000 -0.83652
       3     C     3.10782  3.10782  0.00000 -0.21563
       4     H     0.32093  0.32093  0.00000  0.35813
       5     C     2.97998  2.97998  0.00000  0.04004
       6     H     0.42315  0.42315  0.00000  0.15370
       7     H     0.41258  0.41258  0.00000  0.17485
       8     O     4.30727  4.30727  0.00000 -0.61454
       9     H     0.42786  0.42786  0.00000  0.14428
      10     H     0.40834  0.40834  0.00000  0.18333
      11     C     3.09117  3.09117  0.00000 -0.18234
      12     H     0.40863  0.40863  0.00000  0.18275
      13     H     0.43799  0.43799  0.00000  0.12402
      14     H     0.42506  0.42506  0.00000  0.14987

   Total alpha = 21.00000, Total beta = 21.00000, Total charge = -0.00000
