                              Psi4 1.0.54 Driver

  ==> Input File <==

--------------------------------------------------------------------------
set {
	reference rhf
	basis cc-pvtz
}

set_num_threads( 4 )
memory 2 gb

molecule MOL {
0 1

H	 -2.081484	 1.349793	 -2.875004
C	 -2.557190	 0.552102	 -2.288253
C	 -1.748957	 -0.710886	 -2.163692
O	 -3.629486	 0.721200	 -1.820393
C	 -0.320800	 -0.454782	 -1.673332
H	 -2.277596	 -1.395337	 -1.512999
H	 -1.711777	 -1.154554	 -3.156204
C	 -0.247837	 0.040196	 -0.230469
H	 0.244312	 -1.375725	 -1.767421
H	 0.162027	 0.263925	 -2.331004
C	 1.181757	 0.280428	 0.247371
H	 -0.728805	 -0.686732	 0.418648
H	 -0.819317	 0.958981	 -0.127163
C	 2.151032	 -0.811012	 -0.202643
H	 1.515939	 1.247397	 -0.115449
H	 1.191514	 0.341223	 1.333422
C	 3.580021	 -0.656538	 0.320835
H	 2.170545	 -0.847575	 -1.289412
H	 1.766632	 -1.772905	 0.124928
C	 4.327657	 0.562694	 -0.213579
H	 4.138806	 -1.549270	 0.057813
H	 3.561991	 -0.620783	 1.406976
H	 4.355973	 0.557257	 -1.298551
H	 3.867136	 1.491650	 0.100501
H	 5.351524	 0.571613	 0.142204

	symmetry c1
}
set optking {
	frozen_dihedral = ("
		12 8 11 14
	")
}

ee,wfn = optimize('scf', return_wfn=True)
oeprop( wfn, 'DIPOLE', 'QUADRUPOLE', 'MULLIKEN_CHARGES')
f=open( 'psi4out.xyz', 'w' )
f.write( "25  " )
f.write( str(ee) + "\n" )
f.write( MOL.save_string_xyz() )
f.close()
--------------------------------------------------------------------------

    Molecular point group: c1
  Charge       = 0
  Multiplicity = 1
  Basis Set: CC-PVTZ
  Basis Set:
  @DF-RHF Final Energy:  -387.25448780965201
    Total Energy =                       -387.2544878096516641
    Molecular point group: c1
  Basis Set: CC-PVTZ
  Basis Set:
  Basis Set: CC-PVTZ
  Basis Set:
  @DF-RHF Final Energy:  -387.18294933892707
    Total Energy =                       -387.1829493389271875
  Basis Set: CC-PVTZ
  Basis Set:
  Basis Set: CC-PVTZ
  Basis Set:
  @DF-RHF Final Energy:  -387.24964313246113
    Total Energy =                       -387.2496431324608466
  Basis Set: CC-PVTZ
  Basis Set:
  Basis Set: CC-PVTZ
  Basis Set:
  @DF-RHF Final Energy:  -387.25632662396657
    Total Energy =                       -387.2563266239666291
  Basis Set: CC-PVTZ
  Basis Set:
  @DF-RHF Final Energy:  -387.25662109785748
    Total Energy =                       -387.2566210978582149
  @DF-RHF Final Energy:  -387.25617084067096
    Total Energy =                       -387.2561708406708476
  Basis Set: CC-PVTZ
  Basis Set:
  @DF-RHF Final Energy:  -387.25668142245303
    Total Energy =                       -387.2566814224525160
  Basis Set: CC-PVTZ
  Basis Set:
  Basis Set: CC-PVTZ
  Basis Set:
  @DF-RHF Final Energy:  -387.25667919322024
    Total Energy =                       -387.2566791932199521
  Basis Set: CC-PVTZ
  Basis Set:
  Basis Set: CC-PVTZ
  Basis Set:
  @DF-RHF Final Energy:  -387.25670415038275
    Total Energy =                       -387.2567041503825749
  Basis Set: CC-PVTZ
  Basis Set:
  Charge       = 0
  Multiplicity = 1
  Basis Set: CC-PVTZ
  Basis Set:

    Orbital Energies (a.u.)
    -----------------------

    Doubly Occupied:

       1A    -20.551300     2A    -11.320934     3A    -11.233752
       4A    -11.232621     5A    -11.222295     6A    -11.218304
       7A    -11.217492     8A    -11.216598     9A    -11.209722
      10A     -1.406284    11A     -1.105444    12A     -1.070297
      13A     -1.013536    14A     -0.941302    15A     -0.885266
      16A     -0.824653    17A     -0.792472    18A     -0.770177
      19A     -0.667658    20A     -0.659761    21A     -0.634258
      22A     -0.627676    23A     -0.600054    24A     -0.597789
      25A     -0.587870    26A     -0.546706    27A     -0.540895
      28A     -0.527926    29A     -0.514838    30A     -0.502831
      31A     -0.487628    32A     -0.479225    33A     -0.460056
      34A     -0.452802    35A     -0.448262    36A     -0.411539

  @DF-RHF Final Energy:  -387.25670475719244

   => Energetics <=

    Nuclear Repulsion Energy =            444.1981886281059815
    One-Electron Energy =               -1404.9493369861261272
    Two-Electron Energy =                 573.4944436008277080
    DFT Exchange-Correlation Energy =       0.0000000000000000
    Empirical Dispersion Energy =           0.0000000000000000
    PCM Polarization Energy =               0.0000000000000000
    EFP Energy =                            0.0000000000000000
    Total Energy =                       -387.2567047571924377
    Molecular point group: c1
  Basis Set: CC-PVTZ
  Basis Set:

  -Total Gradient:
     Atom            X                  Y                   Z
    ------   -----------------  -----------------  -----------------
       1        0.000014598843     0.000001860571    -0.000024436120
       2        0.000093196832     0.000051098269    -0.000069098184
       3        0.000017488610    -0.000019633209     0.000024228550
       4       -0.000137145144    -0.000022361760     0.000050757728
       5        0.000005159834     0.000050009778    -0.000034493902
       6       -0.000034944945    -0.000004223742     0.000022632875
       7        0.000016189701    -0.000049154342    -0.000003447028
       8        0.003479756890    -0.004000882140    -0.003679454513
       9        0.000023449560    -0.000054016738    -0.000024336828
      10        0.000003885658     0.000030521769     0.000000598108
      11       -0.001139723303    -0.000764057718     0.005276748339
      12       -0.002672924442     0.003593529606     0.001855513213
      13        0.000004856955     0.000046450456     0.000031833001
      14        0.000333571002     0.001133276413    -0.003459637237
      15       -0.000028023387    -0.000002667880    -0.000025461530
      16       -0.000016918891     0.000012376005     0.000029008752
      17       -0.000038160610     0.000030737899     0.000044591097
      18        0.000006117495    -0.000006286351    -0.000049515825
      19       -0.000010958223    -0.000057058767     0.000006494739
      20        0.000022121424     0.000005880830     0.000003468971
      21        0.000007229907    -0.000017450576     0.000004168727
      22        0.000011357752     0.000025248918     0.000035465775
      23       -0.000000896693    -0.000009221243    -0.000039208306
      24        0.000009456170     0.000017731039     0.000010876406
      25        0.000031258999     0.000008292913     0.000012703194

  **** Optimization is complete! (in 10 steps) ****
    Final optimized geometry and variables:
    Molecular point group: c1

    Geometry (in Angstrom), charge = 0, multiplicity = 1:

    H           -2.528965145171     0.272900499640    -2.251394958348
    C           -2.862073205709    -0.451448549911    -1.495514808175
    C           -1.831961973266    -1.475072432524    -1.101180875357
    O           -3.962106650384    -0.394894039484    -1.066361575030
    C           -0.485443936291    -0.851811682019    -0.720646593354
    H           -2.234726588530    -2.076724632113    -0.296579999391
    H           -1.694251573918    -2.122623663286    -1.964457366088
    C           -0.545525400699    -0.048750002070     0.576609460489
    H            0.242803405477    -1.648055752977    -0.635661282714
    H           -0.143434091614    -0.212756851697    -1.531817674099
    C            0.735556599717     0.705821535056     0.955319538650
    H           -0.849822692649    -0.690184395337     1.399645170460
    H           -1.343492523074     0.685518227706     0.498382658661
    C            2.032552590795    -0.092910481393     0.818409278331
    H            0.804569785877     1.595150108219     0.336202212282
    H            0.634411960728     1.057382654530     1.977618874394
    C            3.265262160492     0.607995574795     1.393852464364
    H            2.215784798108    -0.322254907809    -0.226793587596
    H            1.916610793994    -1.048511611832     1.324573252436
    C            3.667298040992     1.890099924153     0.668531433846
    H            4.099638181955    -0.085847378754     1.360873301465
    H            3.095305235970     0.826946785550     2.444616957961
    H            3.831917654590     1.704702067179    -0.388317664152
    H            2.910571152303     2.660362798980     0.755343956860
    H            4.587026834836     2.290617955326     1.079197384644

  Mulliken Charges: (a.u.)
   Center  Symbol    Alpha    Beta     Spin     Total
       1     H     0.46402  0.46402  0.00000  0.07197
       2     C     2.90610  2.90610  0.00000  0.18780
       3     C     3.08661  3.08661  0.00000 -0.17321
       4     O     4.16587  4.16587  0.00000 -0.33175
       5     C     3.12197  3.12197  0.00000 -0.24395
       6     H     0.44284  0.44284  0.00000  0.11432
       7     H     0.44009  0.44009  0.00000  0.11983
       8     C     3.09800  3.09800  0.00000 -0.19601
       9     H     0.43865  0.43865  0.00000  0.12271
      10     H     0.44855  0.44855  0.00000  0.10291
      11     C     3.10043  3.10043  0.00000 -0.20086
      12     H     0.44751  0.44751  0.00000  0.10497
      13     H     0.44408  0.44408  0.00000  0.11185
      14     C     3.09966  3.09966  0.00000 -0.19931
      15     H     0.45087  0.45087  0.00000  0.09827
      16     H     0.44613  0.44613  0.00000  0.10774
      17     C     3.09028  3.09028  0.00000 -0.18056
      18     H     0.45117  0.45117  0.00000  0.09766
      19     H     0.44845  0.44845  0.00000  0.10310
      20     C     3.15320  3.15320  0.00000 -0.30639
      21     H     0.44805  0.44805  0.00000  0.10389
      22     H     0.45372  0.45372  0.00000  0.09256
      23     H     0.45544  0.45544  0.00000  0.08912
      24     H     0.45281  0.45281  0.00000  0.09437
      25     H     0.44551  0.44551  0.00000  0.10897

   Total alpha = 36.00000, Total beta = 36.00000, Total charge = -0.00000

*** Psi4 exiting successfully. Buy a developer a beer!
