  ==> Input File <==

--------------------------------------------------------------------------
set {
	reference rhf
	basis 6-31G*
}

set_num_threads( 4 )
memory 2 gb

molecule MOL {
0 1

H	 -1.254611	 0.704788	 0.948585
C	 -0.790252	 0.431209	 0.000000
N	 0.538815	 0.649616	 0.000000
O	 -1.426053	 -0.009469	 -0.911466
C	 1.521968	 -0.411503	 0.000000
H	 0.852804	 1.592852	 0.000000
H	 2.150599	 -0.357004	 -0.881901
H	 0.999455	 -1.354525	 0.000000
H	 2.150599	 -0.357004	 0.881901

	symmetry c1
}
set optking {
	frozen_dihedral = ("
		1 2 3 6
	")
}

ee = optimize('scf')
oeprop('DIPOLE', 'QUADRUPOLE', 'MULLIKEN_CHARGES')
f=open( 'psi4out.xyz', 'w' )
f.write( "9  " )
f.write( str(ee) + "\n" )
f.write( MOL.save_string_xyz() )
f.close()
--------------------------------------------------------------------------

    Molecular point group: c1
  Charge       = 0
  Multiplicity = 1
  Basis Set: 6-31G*
  Basis Set:
  @DF-RHF Final Energy:  -207.92238766804343
    Total Energy =                       -207.9223876680433989
    Molecular point group: c1
  Basis Set: 6-31G*
  Basis Set:
  Basis Set: 6-31G*
  Basis Set:
  @DF-RHF Final Energy:  -207.92955178211773
    Total Energy =                       -207.9295517821178123
  Basis Set: 6-31G*
  Basis Set:
  Basis Set: 6-31G*
  Basis Set:
  @DF-RHF Final Energy:  -207.93571560604926
    Total Energy =                       -207.9357156060492287
  Basis Set: 6-31G*
  Basis Set:
  Basis Set: 6-31G*
  Basis Set:
  @DF-RHF Final Energy:  -207.94342180775885
    Total Energy =                       -207.9434218077587957
  Basis Set: 6-31G*
  Basis Set:
  @DF-RHF Final Energy:  -207.94325098362887
    Total Energy =                       -207.9432509836289285
  @DF-RHF Final Energy:  -207.94563206024958
    Total Energy =                       -207.9456320602496078
  @DF-RHF Final Energy:  -207.94683382197528
    Total Energy =                       -207.9468338219752752
  Basis Set: 6-31G*
  Basis Set:
  @DF-RHF Final Energy:  -207.94746158778619
    Total Energy =                       -207.9474615877861083
  Basis Set: 6-31G*
  Basis Set:
  Basis Set: 6-31G*
  Basis Set:
  @DF-RHF Final Energy:  -207.94779272865637
    Total Energy =                       -207.9477927286564238
  Basis Set: 6-31G*
  Basis Set:
  Basis Set: 6-31G*
  Basis Set:
  @DF-RHF Final Energy:  -207.94786592276967
    Total Energy =                       -207.9478659227697221
  Basis Set: 6-31G*
  Basis Set:
  Charge       = 0
  Multiplicity = 1
  Basis Set: 6-31G*
  Basis Set:

    Orbital Energies (a.u.)
    -----------------------

    Doubly Occupied:

       1A    -20.554346     2A    -15.582625     3A    -11.350827
       4A    -11.252927     5A     -1.410778     6A     -1.229405
       7A     -0.952611     8A     -0.807740     9A     -0.730587
      10A     -0.651025    11A     -0.644362    12A     -0.571585
      13A     -0.548521    14A     -0.531373    15A     -0.439725
      16A     -0.409392

  @DF-RHF Final Energy:  -207.94786798448189

   => Energetics <=

    Nuclear Repulsion Energy =            122.7462238541049402
    One-Electron Energy =                -526.0525251458359435
    Two-Electron Energy =                 195.3584333072491859
    DFT Exchange-Correlation Energy =       0.0000000000000000
    Empirical Dispersion Energy =           0.0000000000000000
    PCM Polarization Energy =               0.0000000000000000
    EFP Energy =                            0.0000000000000000
    Total Energy =                       -207.9478679844818316
    Molecular point group: c1
  Basis Set: 6-31G*
  Basis Set:

  -Total Gradient:
     Atom            X                  Y                   Z
    ------   -----------------  -----------------  -----------------
       1       -0.002451815374    -0.010282760175     0.007210236636
       2        0.004865054113     0.012462982810    -0.012474663634
       3       -0.007721770501     0.001843250918     0.017417173049
       4       -0.000153124390    -0.000102896075    -0.000096378584
       5        0.000061100142    -0.000044022876    -0.000039904792
       6        0.005397360007    -0.003926721803    -0.012005456628
       7        0.000023433242    -0.000017705555    -0.000014561938
       8       -0.000006558791     0.000049637999    -0.000005120974
       9       -0.000013678450     0.000018234757     0.000008676867

  **** Optimization is complete! (in 11 steps) ****
    Final optimized geometry and variables:
    Molecular point group: c1

    Geometry (in Angstrom), charge = 0, multiplicity = 1:

    H           -1.542743201487     0.977534490243     0.648518373485
    C           -0.806201258996     0.404234973810     0.085454428621
    N            0.468991883887     0.480284332085     0.628403946775
    O           -1.135849787263    -0.341216430518    -0.779776683137
    C            1.412950213689    -0.513855677567     0.121242628564
    H            0.861789527989     1.395149177372     0.506551910064
    H            1.584786477325    -0.435191187357    -0.947131386701
    H            1.031083586932    -1.502611474277     0.329459274962
    H            2.351050633717    -0.387532437575     0.645852663736

  Mulliken Charges: (a.u.)
   Center  Symbol    Alpha    Beta     Spin     Total
       1     H     0.41658  0.41658  0.00000  0.16684
       2     C     2.76939  2.76939  0.00000  0.46122
       3     N     3.86271  3.86271  0.00000 -0.72542
       4     O     4.25283  4.25283  0.00000 -0.50566
       5     C     3.15267  3.15267  0.00000 -0.30535
       6     H     0.31653  0.31653  0.00000  0.36694
       7     H     0.41323  0.41323  0.00000  0.17355
       8     H     0.40216  0.40216  0.00000  0.19567
       9     H     0.41390  0.41390  0.00000  0.17221

   Total alpha = 16.00000, Total beta = 16.00000, Total charge = -0.00000
