                              Psi4 1.0.54 Driver

  ==> Input File <==

--------------------------------------------------------------------------
set {
	reference rhf
	basis cc-pvtz
}

set_num_threads( 4 )
memory 2 gb

molecule MOL {
0 1

H	 -1.627267	 1.836069	 -0.326994
C	 -1.860987	 0.776610	 -0.350770
O	 -0.775228	 0.000056	 -0.739966
H	 -2.636086	 0.619844	 -1.087517
H	 -2.253198	 0.486765	 0.618659
C	 0.406133	 -0.000384	 0.036994
C	 1.526415	 -0.003194	 -0.997339
C	 0.498772	 1.259027	 0.900673
C	 0.495883	 -1.257378	 0.904465
H	 1.452279	 0.872071	 -1.630204
H	 1.451276	 -0.881020	 -1.626529
H	 2.497919	 -0.002741	 -0.517601
H	 0.368981	 2.144239	 0.289753
H	 1.470064	 1.313479	 1.377660
H	 -0.248448	 1.271586	 1.684297
H	 0.363971	 -2.144195	 0.296316
H	 1.467114	 -1.312636	 1.381470
H	 -0.251246	 -1.265768	 1.688235

	symmetry c1
}
set optking {
	frozen_dihedral = ("
		2 3 6 7
	")
}

ee,wfn = optimize('scf', return_wfn=True)
oeprop( wfn, 'DIPOLE', 'QUADRUPOLE', 'MULLIKEN_CHARGES')
f=open( 'psi4out.xyz', 'w' )
f.write( "18  " )
f.write( str(ee) + "\n" )
f.write( MOL.save_string_xyz() )
f.close()
--------------------------------------------------------------------------

    Molecular point group: c1
  Charge       = 0
  Multiplicity = 1
  Basis Set: CC-PVTZ
  Basis Set:
  @DF-RHF Final Energy:  -271.27172744362645
    Total Energy =                       -271.2717274436263892
    Molecular point group: c1
  Basis Set: CC-PVTZ
  Basis Set:
  Basis Set: CC-PVTZ
  Basis Set:
  @DF-RHF Final Energy:  -271.25769480620329
    Total Energy =                       -271.2576948062031761
  Basis Set: CC-PVTZ
  Basis Set:
  Basis Set: CC-PVTZ
  Basis Set:
  @DF-RHF Final Energy:  -271.27311309956065
    Total Energy =                       -271.2731130995607600
  Basis Set: CC-PVTZ
  Basis Set:
  Basis Set: CC-PVTZ
  Basis Set:
  @DF-RHF Final Energy:  -271.27350738766756
    Total Energy =                       -271.2735073876676211
  Basis Set: CC-PVTZ
  Basis Set:
  @DF-RHF Final Energy:  -271.27339476546842
    Total Energy =                       -271.2733947654684243
  Basis Set: CC-PVTZ
  Basis Set:
  @DF-RHF Final Energy:  -271.27366665340020
    Total Energy =                       -271.2736666534002552
  Basis Set: CC-PVTZ
  Basis Set:
  Basis Set: CC-PVTZ
  Basis Set:
  @DF-RHF Final Energy:  -271.27366769988043
    Total Energy =                       -271.2736676998805478
  Basis Set: CC-PVTZ
  Basis Set:
  Basis Set: CC-PVTZ
  Basis Set:
  @DF-RHF Final Energy:  -271.27366936964052
    Total Energy =                       -271.2736693696407997
  Basis Set: CC-PVTZ
  Basis Set:
  Charge       = 0
  Multiplicity = 1
  Basis Set: CC-PVTZ
  Basis Set:

    Orbital Energies (a.u.)
    -----------------------

    Doubly Occupied:

       1A    -20.538009     2A    -11.280553     3A    -11.259315
       4A    -11.210944     5A    -11.203427     6A    -11.201935
       7A     -1.370548     8A     -1.075307     9A     -0.950597
      10A     -0.937177    11A     -0.912145    12A     -0.752481
      13A     -0.657656    14A     -0.648123    15A     -0.638733
      16A     -0.585621    17A     -0.576430    18A     -0.550669
      19A     -0.540297    20A     -0.526404    21A     -0.515393
      22A     -0.492304    23A     -0.484571    24A     -0.442333
      25A     -0.401068

  @DF-RHF Final Energy:  -271.27367012013480

   => Energetics <=

    Nuclear Repulsion Energy =            272.2668834133380074
    One-Electron Energy =                -907.5770250131558896
    Two-Electron Energy =                 364.0364714796830299
    DFT Exchange-Correlation Energy =       0.0000000000000000
    Empirical Dispersion Energy =           0.0000000000000000
    PCM Polarization Energy =               0.0000000000000000
    EFP Energy =                            0.0000000000000000
    Total Energy =                       -271.2736701201347955
    Molecular point group: c1
  Basis Set: CC-PVTZ
  Basis Set:

  -Total Gradient:
     Atom            X                  Y                   Z
    ------   -----------------  -----------------  -----------------
       1       -0.000000418647     0.000001727579     0.000001109753
       2        0.000999675738     0.001808622881    -0.002512161884
       3       -0.001507489935    -0.002040315327     0.003594780783
       4        0.000000185450     0.000001478241    -0.000000994110
       5        0.000000735877    -0.000001555220     0.000010301117
       6        0.000598694369    -0.002231277803    -0.000240488206
       7       -0.000034345734     0.002464694315    -0.000840136806
       8       -0.000002374593     0.000027373027     0.000036934495
       9       -0.000024861602     0.000016640124     0.000006277332
      10       -0.000003259232     0.000009275103    -0.000000755009
      11        0.000003311443    -0.000018884783    -0.000017718667
      12        0.000007111234    -0.000004630676     0.000002141775
      13       -0.000000557738    -0.000023511216     0.000016982890
      14       -0.000050399067    -0.000009502905    -0.000017069903
      15        0.000027408903    -0.000001121957    -0.000019204814
      16       -0.000000701448    -0.000004255923    -0.000002564966
      17       -0.000022310425     0.000009397903    -0.000021000314
      18        0.000009595407    -0.000004153363     0.000003566536

  **** Optimization is complete! (in 9 steps) ****
    Final optimized geometry and variables:
    Molecular point group: c1

    Geometry (in Angstrom), charge = 0, multiplicity = 1:

    H           -1.755765890688     1.482243179897    -0.802256658273
    C           -1.931802933892     0.481058168785    -0.424479025892
    O           -0.829293726310    -0.350420221436    -0.578962648728
    H           -2.734299597141     0.039431102123    -0.998352657129
    H           -2.258958396786     0.553933227922     0.609548737110
    C            0.392790730262    -0.092725295039     0.095068149296
    C            1.485338357287    -0.412154888236    -0.920793573018
    C            0.544234687297     1.359879902489     0.551732391832
    C            0.467624072562    -1.033321359080     1.295961486198
    H            1.423110204758     0.265465611930    -1.763201545404
    H            1.365307959731    -1.422106611111    -1.292240779845
    H            2.470385053786    -0.323404068823    -0.476786174057
    H            0.480501527461     2.046538507055    -0.283139178722
    H            1.517511844593     1.486122244908     1.009007531385
    H           -0.200197071872     1.640259699250     1.285708849267
    H            0.370992320210    -2.060808785106     0.968963968342
    H            1.409123289926    -0.925158306899     1.822608912205
    H           -0.335161616348    -0.825724579401     1.994492108801

  Mulliken Charges: (a.u.)
   Center  Symbol    Alpha    Beta     Spin     Total
       1     H     0.46772  0.46772  0.00000  0.06455
       2     C     3.04182  3.04182  0.00000 -0.08365
       3     O     4.19777  4.19777  0.00000 -0.39554
       4     H     0.44254  0.44254  0.00000  0.11493
       5     H     0.47027  0.47027  0.00000  0.05945
       6     C     2.87239  2.87239  0.00000  0.25521
       7     C     3.14024  3.14024  0.00000 -0.28048
       8     C     3.17620  3.17620  0.00000 -0.35240
       9     C     3.14507  3.14507  0.00000 -0.29014
      10     H     0.45197  0.45197  0.00000  0.09607
      11     H     0.44758  0.44758  0.00000  0.10485
      12     H     0.45910  0.45910  0.00000  0.08180
      13     H     0.44525  0.44525  0.00000  0.10949
      14     H     0.44309  0.44309  0.00000  0.11382
      15     H     0.44437  0.44437  0.00000  0.11126
      16     H     0.44803  0.44803  0.00000  0.10395
      17     H     0.45547  0.45547  0.00000  0.08905
      18     H     0.45111  0.45111  0.00000  0.09778

   Total alpha = 25.00000, Total beta = 25.00000, Total charge = -0.00000

*** Psi4 exiting successfully. Buy a developer a beer!
