  ==> Input File <==

--------------------------------------------------------------------------
set {
	reference rhf
	basis cc-pvtz
}

set_num_threads( 4 )
memory 2 gb

molecule MOL {
0 1

H	 2.646708	 0.758099	 0.000000
O	 2.258158	 -0.097743	 0.000000
C	 0.911162	 -0.015915	 0.000000
C	 0.297347	 0.442235	 1.154180
C	 0.147962	 -0.369485	 -1.096784
H	 0.905206	 0.711965	 1.995164
C	 -1.076299	 0.542476	 1.200238
H	 0.624182	 -0.725055	 -1.992571
C	 -1.230301	 -0.263697	 -1.036284
H	 -1.546533	 0.898158	 2.097328
C	 -1.851801	 0.191207	 0.107713
H	 -1.815511	 -0.540398	 -1.892610
H	 -2.920212	 0.271920	 0.151066

	symmetry c1
}
set optking {
	frozen_dihedral = ("
		4 3 2 1
	")
}

ee = optimize('scf')
oeprop('DIPOLE', 'QUADRUPOLE', 'MULLIKEN_CHARGES')
f=open( 'psi4out.xyz', 'w' )
f.write( "13  " )
f.write( str(ee) + "\n" )
f.write( MOL.save_string_xyz() )
f.close()
--------------------------------------------------------------------------

    Molecular point group: c1
  Charge       = 0
  Multiplicity = 1
  Basis Set: CC-PVTZ
  Basis Set:
  @DF-RHF Final Energy:  -305.66552210096671
    Total Energy =                       -305.6655221009665411
    Molecular point group: c1
  Basis Set: CC-PVTZ
  Basis Set:
  Basis Set: CC-PVTZ
  Basis Set:
  @DF-RHF Final Energy:  -305.66668241855979
    Total Energy =                       -305.6666824185599580
  Basis Set: CC-PVTZ
  Basis Set:
  Basis Set: CC-PVTZ
  Basis Set:
  @DF-RHF Final Energy:  -305.66675623794185
    Total Energy =                       -305.6667562379417973
  Basis Set: CC-PVTZ
  Basis Set:
  Basis Set: CC-PVTZ
  Basis Set:
  @DF-RHF Final Energy:  -305.66676465143149
    Total Energy =                       -305.6667646514317767
  Basis Set: CC-PVTZ
  Basis Set:
  Charge       = 0
  Multiplicity = 1
  Basis Set: CC-PVTZ
  Basis Set:

    Orbital Energies (a.u.)
    -----------------------

    Doubly Occupied:

       1A    -20.572690     2A    -11.289769     3A    -11.233771
       4A    -11.233061     5A    -11.226156     6A    -11.225014
       7A    -11.224160     8A     -1.399849     9A     -1.153241
      10A     -1.022365    11A     -1.008361    12A     -0.841145
      13A     -0.828227    14A     -0.738492    15A     -0.684725
      16A     -0.651819    17A     -0.630868    18A     -0.597346
      19A     -0.591977    20A     -0.529703    21A     -0.517492
      22A     -0.498062    23A     -0.473550    24A     -0.341960
      25A     -0.327537

  @DF-RHF Final Energy:  -305.66676628941309

   => Energetics <=

    Nuclear Repulsion Energy =            273.3677926512780232
    One-Electron Energy =                -956.3864378124146697
    Two-Electron Energy =                 377.3518788717234429
    DFT Exchange-Correlation Energy =       0.0000000000000000
    Empirical Dispersion Energy =           0.0000000000000000
    PCM Polarization Energy =               0.0000000000000000
    EFP Energy =                            0.0000000000000000
    Total Energy =                       -305.6667662894132036
    Molecular point group: c1
  Basis Set: CC-PVTZ
  Basis Set:

  -Total Gradient:
     Atom            X                  Y                   Z
    ------   -----------------  -----------------  -----------------
       1       -0.000067755817     0.000056584479    -0.001609858751
       2        0.000168628409    -0.000654166424     0.002216037124
       3       -0.000123808452     0.001645489507    -0.001162692442
       4       -0.000087930968    -0.001105673910     0.000457603497
       5        0.000202788966     0.000012220261     0.000039613203
       6       -0.000037363127    -0.000005360716    -0.000015746617
       7        0.000100947998     0.000056627628     0.000030955465
       8        0.000045145711    -0.000000544038     0.000016644143
       9       -0.000182246878     0.000068821481     0.000093679446
      10       -0.000041826022    -0.000012303590    -0.000002618858
      11        0.000009345099    -0.000077161502    -0.000136044159
      12        0.000019434300     0.000002075857     0.000017115484
      13       -0.000005359218     0.000013390966     0.000055312468

  **** Optimization is complete! (in 5 steps) ****
    Final optimized geometry and variables:
    Molecular point group: c1

    Geometry (in Angstrom), charge = 0, multiplicity = 1:

    H            2.681376352294     0.649439883639    -0.076816787178
    O            2.261575435646    -0.192504336039    -0.088304159801
    C            0.903899813758    -0.053741383441    -0.035864453603
    C            0.284702083140     0.387396677819     1.118795956571
    C            0.149979100274    -0.420525850865    -1.132746464993
    H            0.882053921134     0.645482966332     1.972306664891
    C           -1.093024931544     0.480337392366     1.164251604028
    H            0.649102151311    -0.774005824327    -2.013647236807
    C           -1.228531085941    -0.333885776995    -1.075824507228
    H           -1.571175338637     0.825977947412     2.060964295755
    C           -1.855465612127     0.120245259541     0.068795626047
    H           -1.812037401080    -0.620726978858    -1.929816772278
    H           -2.925336694279     0.187854349380     0.109575124992

  Mulliken Charges: (a.u.)
   Center  Symbol    Alpha    Beta     Spin     Total
       1     H     0.38710  0.38710  0.00000  0.22581
       2     O     4.19082  4.19082  0.00000 -0.38165
       3     C     2.87157  2.87157  0.00000  0.25685
       4     C     3.11637  3.11637  0.00000 -0.23275
       5     C     3.10716  3.10716  0.00000 -0.21432
       6     H     0.41995  0.41995  0.00000  0.16011
       7     C     3.06885  3.06885  0.00000 -0.13770
       8     H     0.41636  0.41636  0.00000  0.16729
       9     C     3.06703  3.06703  0.00000 -0.13405
      10     H     0.42185  0.42185  0.00000  0.15630
      11     C     3.08807  3.08807  0.00000 -0.17614
      12     H     0.42171  0.42171  0.00000  0.15658
      13     H     0.42316  0.42316  0.00000  0.15367

   Total alpha = 25.00000, Total beta = 25.00000, Total charge = -0.00000
