  ==> Input File <==

--------------------------------------------------------------------------
set {
	reference rhf
	basis 6-31G*
}

set_num_threads( 4 )
memory 2 gb

molecule MOL {
0 1

H	 2.511345	 -1.624651	 0.891098
O	 2.826016	 -1.159218	 0.122261
C	 2.077727	 -0.067559	 -0.035091
C	 0.624473	 -0.343591	 0.253101
O	 2.542965	 0.974826	 -0.363729
C	 -0.265902	 0.883932	 0.072916
H	 0.324016	 -1.163849	 -0.390541
H	 0.565024	 -0.726111	 1.268924
C	 -1.728698	 0.646073	 0.462102
H	 -0.209144	 1.219470	 -0.958188
H	 0.135059	 1.692851	 0.673903
C	 -2.482460	 -0.343073	 -0.431425
H	 -2.245265	 1.602650	 0.432430
H	 -1.779332	 0.308348	 1.496285
C	 -3.960546	 -0.461025	 -0.060175
H	 -2.395034	 -0.026811	 -1.468912
H	 -2.024850	 -1.327147	 -0.371646
H	 -4.472726	 -1.168004	 -0.705284
H	 -4.465146	 0.496508	 -0.151489
H	 -4.081218	 -0.800940	 0.964585

	symmetry c1
}
set optking {
	frozen_dihedral = ("
		1 2 3 5
	")
}

ee = optimize('scf')
oeprop('DIPOLE', 'QUADRUPOLE', 'MULLIKEN_CHARGES')
f=open( 'psi4out.xyz', 'w' )
f.write( "20  " )
f.write( str(ee) + "\n" )
f.write( MOL.save_string_xyz() )
f.close()
--------------------------------------------------------------------------

    Molecular point group: c1
  Charge       = 0
  Multiplicity = 1
  Basis Set: 6-31G*
  Basis Set:
  @DF-RHF Final Energy:  -383.93125587804332
    Total Energy =                       -383.9312558780435438
    Molecular point group: c1
  Basis Set: 6-31G*
  Basis Set:
  Basis Set: 6-31G*
  Basis Set:
  @DF-RHF Final Energy:  -383.93265618883561
    Total Energy =                       -383.9326561888356082
  Basis Set: 6-31G*
  Basis Set:
  Basis Set: 6-31G*
  Basis Set:
  @DF-RHF Final Energy:  -383.93277923966389
    Total Energy =                       -383.9327792396636596
  Basis Set: 6-31G*
  Basis Set:
  Basis Set: 6-31G*
  Basis Set:
  @DF-RHF Final Energy:  -383.93263751736822
    Total Energy =                       -383.9326375173681072
  Basis Set: 6-31G*
  Basis Set:
  Basis Set: 6-31G*
  Basis Set:
  @DF-RHF Final Energy:  -383.93281011226901
    Total Energy =                       -383.9328101122688395
  Basis Set: 6-31G*
  Basis Set:
  Charge       = 0
  Multiplicity = 1
  Basis Set: 6-31G*
  Basis Set:

    Orbital Energies (a.u.)
    -----------------------

    Doubly Occupied:

       1A    -20.605077     2A    -20.553436     3A    -11.380684
       4A    -11.249571     5A    -11.227734     6A    -11.224985
       7A    -11.224274     8A    -11.215764     9A     -1.464254
      10A     -1.369779    11A     -1.100277    12A     -1.043216
      13A     -0.960146    14A     -0.865838    15A     -0.825788
      16A     -0.791327    17A     -0.718680    18A     -0.669938
      19A     -0.658883    20A     -0.635797    21A     -0.618516
      22A     -0.594457    23A     -0.564040    24A     -0.555378
      25A     -0.549069    26A     -0.513998    27A     -0.501230
      28A     -0.482521    29A     -0.473170    30A     -0.470332
      31A     -0.461929    32A     -0.441145

  @DF-RHF Final Energy:  -383.93281054236422

   => Energetics <=

    Nuclear Repulsion Energy =            375.5757821475087894
    One-Electron Energy =               -1266.9947176189939455
    Two-Electron Energy =                 507.4861249291208765
    DFT Exchange-Correlation Energy =       0.0000000000000000
    Empirical Dispersion Energy =           0.0000000000000000
    PCM Polarization Energy =               0.0000000000000000
    EFP Energy =                            0.0000000000000000
    Total Energy =                       -383.9328105423642796
    Molecular point group: c1
  Basis Set: 6-31G*
  Basis Set:

  -Total Gradient:
     Atom            X                  Y                   Z
    ------   -----------------  -----------------  -----------------
       1        0.004306090345     0.003904797994     0.003861692275
       2       -0.005102854141    -0.004099514037    -0.002316067238
       3       -0.000111455123    -0.001421632498    -0.007351950744
       4        0.000028617507    -0.000018842091    -0.000049524135
       5        0.000927909817     0.001620917935     0.005806804176
       6        0.000004029335     0.000002492194    -0.000013567018
       7        0.000023475548     0.000030095508     0.000042749649
       8        0.000002694176     0.000007651331     0.000027363872
       9       -0.000005537967    -0.000018628969     0.000006018692
      10       -0.000000728525    -0.000024103445    -0.000003217595
      11       -0.000014456408     0.000000792823    -0.000021852128
      12       -0.000021404102     0.000010446442     0.000012258782
      13       -0.000013821655     0.000004443249     0.000022962446
      14        0.000012776190    -0.000023858827    -0.000008729079
      15       -0.000000227540     0.000013717764    -0.000011771524
      16        0.000008158051    -0.000005796568    -0.000011578964
      17       -0.000043929474     0.000015784242     0.000010321935
      18       -0.000001439383     0.000002151441    -0.000002920618
      19       -0.000001685805    -0.000000381052     0.000003179376
      20        0.000003789136    -0.000000533433    -0.000002172158

  **** Optimization is complete! (in 6 steps) ****
    Final optimized geometry and variables:
    Molecular point group: c1

    Geometry (in Angstrom), charge = 0, multiplicity = 1:

    H            2.667449305531    -1.639003453050     0.891195399425
    O            2.900560893900    -1.133949069927     0.123126844244
    C            2.088692234586    -0.071162005119    -0.042254965902
    C            0.628296163577    -0.342532553371     0.253081554349
    O            2.524620521706     0.967515300659    -0.394675101162
    C           -0.262964864184     0.884201714032     0.070534193831
    H            0.322287513974    -1.164034629318    -0.387559577783
    H            0.553040562709    -0.715803052052     1.274604321098
    C           -1.726672590192     0.649197786699     0.457910974805
    H           -0.202071498752     1.215090327846    -0.961285546735
    H            0.139369609489     1.693814442866     0.669352639763
    C           -2.483807315595    -0.333572068217    -0.439846976240
    H           -2.239396312406     1.607766244839     0.431109251873
    H           -1.780249821835     0.308694030898     1.491253376017
    C           -3.963655564384    -0.443152196105    -0.073208659166
    H           -2.391118896363    -0.015859207439    -1.476269752323
    H           -2.032711864518    -1.320932373220    -0.381132296185
    H           -4.478097606047    -1.145609729461    -0.721325038629
    H           -4.461863697519     0.517638811431    -0.164359025635
    H           -4.089810441287    -0.784148890847     0.950567537813

  Mulliken Charges: (a.u.)
   Center  Symbol    Alpha    Beta     Spin     Total
       1     H     0.26953  0.26953  0.00000  0.46094
       2     O     4.35845  4.35845  0.00000 -0.71690
       3     C     2.61398  2.61398  0.00000  0.77204
       4     C     3.22897  3.22897  0.00000 -0.45793
       5     O     4.25515  4.25515  0.00000 -0.51030
       6     C     3.15292  3.15292  0.00000 -0.30583
       7     H     0.39633  0.39633  0.00000  0.20734
       8     H     0.41321  0.41321  0.00000  0.17359
       9     C     3.15619  3.15619  0.00000 -0.31238
      10     H     0.40898  0.40898  0.00000  0.18205
      11     H     0.40712  0.40712  0.00000  0.18575
      12     C     3.15472  3.15472  0.00000 -0.30943
      13     H     0.41653  0.41653  0.00000  0.16693
      14     H     0.42478  0.42478  0.00000  0.15043
      15     C     3.23933  3.23933  0.00000 -0.47866
      16     H     0.42012  0.42012  0.00000  0.15976
      17     H     0.42440  0.42440  0.00000  0.15120
      18     H     0.41776  0.41776  0.00000  0.16448
      19     H     0.41989  0.41989  0.00000  0.16023
      20     H     0.42165  0.42165  0.00000  0.15669

   Total alpha = 32.00000, Total beta = 32.00000, Total charge = -0.00000
