  ==> Input File <==

--------------------------------------------------------------------------
set {
	reference rhf
	basis 6-31G*
}

set_num_threads( 1 )
memory 2 gb

molecule MOL {
0 1

H	 -2.604828	 -0.038787	 -0.655291
O	 -2.035884	 -0.060112	 0.102722
C	 -0.955155	 0.788182	 -0.092531
C	 0.353668	 0.040312	 -0.004810
H	 -0.985057	 1.290372	 -1.054184
H	 -0.974469	 1.533190	 0.688632
F	 0.394464	 -0.937475	 -0.903053
F	 1.368604	 0.853376	 -0.249821
F	 0.546173	 -0.502608	 1.179981

	symmetry c1
}
set optking {
	frozen_dihedral = ("
		7 4 3 5
	")
}

ee = energy('scf')
oeprop('DIPOLE', 'QUADRUPOLE', 'MULLIKEN_CHARGES')
f=open( 'psi4out.xyz', 'w' )
f.write( "9  " )
f.write( str(ee) + "\n" )
f.write( MOL.save_string_xyz() )
f.close()
--------------------------------------------------------------------------

    Molecular point group: c1

    Geometry (in Angstrom), charge = 0, multiplicity = 1:

       Center              X                  Y                   Z               Mass
    ------------   -----------------  -----------------  -----------------  -----------------
           H         -2.599730560097    -0.045191243919    -0.654902014965     1.007825032070
           O         -2.030786560097    -0.066516243919     0.103110985035    15.994914619560
           C         -0.950057560097     0.781777756081    -0.092142014965    12.000000000000
           C          0.358765439903     0.033907756081    -0.004421014965    12.000000000000
           H         -0.979959560097     1.283967756081    -1.053795014965     1.007825032070
           H         -0.969371560097     1.526785756081     0.689020985035     1.007825032070
           F          0.399561439903    -0.943879243919    -0.902664014965    18.998403224000
           F          1.373701439903     0.846971756081    -0.249432014965    18.998403224000
           F          0.551270439903    -0.509012243919     1.180369985035    18.998403224000

  Charge       = 0
  Multiplicity = 1
  Basis Set: 6-31G*
  Basis Set:

    Orbital Energies (a.u.)
    -----------------------

    Doubly Occupied:

       1A    -26.340205     2A    -26.334524     3A    -26.331400
       4A    -20.589189     5A    -11.496370     6A    -11.309508
       7A     -1.733630     8A     -1.633976     9A     -1.627942
      10A     -1.401683    11A     -1.046870    12A     -0.917889
      13A     -0.825247    14A     -0.822652    15A     -0.788907
      16A     -0.736273    17A     -0.705818    18A     -0.697411
      19A     -0.660970    20A     -0.652291    21A     -0.635509
      22A     -0.631557    23A     -0.598319    24A     -0.532786
      25A     -0.477618

  @DF-RHF Final Energy:  -450.65919948972294

   => Energetics <=

    Nuclear Repulsion Energy =            276.3195587037940868
    One-Electron Energy =               -1174.9005459981074182
    Two-Electron Energy =                 447.9217878045900534
    DFT Exchange-Correlation Energy =       0.0000000000000000
    Empirical Dispersion Energy =           0.0000000000000000
    PCM Polarization Energy =               0.0000000000000000
    EFP Energy =                            0.0000000000000000
    Total Energy =                       -450.6591994897232780

  Mulliken Charges: (a.u.)
   Center  Symbol    Alpha    Beta     Spin     Total
       1     H     0.27092  0.27092  0.00000  0.45816
       2     O     4.36179  4.36179  0.00000 -0.72358
       3     C     3.05755  3.05755  0.00000 -0.11511
       4     C     2.45483  2.45483  0.00000  1.09034
       5     H     0.40995  0.40995  0.00000  0.18010
       6     H     0.40316  0.40316  0.00000  0.19369
       7     F     4.68355  4.68355  0.00000 -0.36711
       8     F     4.68252  4.68252  0.00000 -0.36504
       9     F     4.67573  4.67573  0.00000 -0.35146

   Total alpha = 25.00000, Total beta = 25.00000, Total charge = -0.00000
