  ==> Input File <==

--------------------------------------------------------------------------
set {
	reference rhf
	basis 6-31G*
}

set_num_threads( 1 )
memory 2 gb

molecule MOL {
0 1

O	 -1.088634	 -1.047909	 -2.097023
C	 -1.750253	 -1.119319	 -1.111236
C	 -2.984888	 -1.974850	 -0.988710
O	 -1.481751	 -0.454642	 0.000584
H	 -2.715314	 -3.005231	 -1.187475
H	 -3.434885	 -1.895151	 -0.010145
H	 -3.696047	 -1.670033	 -1.747142
C	 -0.334255	 0.388708	 0.000906
C	 0.891947	 -0.504646	 0.000751
H	 -0.365390	 1.025305	 -0.873475
H	 -0.365484	 1.024911	 0.875569
C	 2.191998	 0.301789	 0.000897
H	 0.855148	 -1.151283	 -0.871571
H	 0.855132	 -1.151660	 0.872805
C	 3.441114	 -0.581407	 0.000108
H	 2.215074	 0.954890	 -0.869742
H	 2.215465	 0.953923	 0.872248
C	 4.739576	 0.224112	 -0.001102
H	 3.419457	 -1.233487	 -0.870178
H	 3.420834	 -1.233096	 0.870717
H	 4.804918	 0.861552	 -0.878265
H	 5.606527	 -0.429058	 -0.001824
H	 4.806469	 0.861674	 0.875853

	symmetry c1
}
set optking {
	frozen_dihedral = ("
		13 9 8 10,
		16 12 9 13,
		19 15 12 16,
		1 2 4 8
	")
}

ee = energy('scf')
oeprop('DIPOLE', 'QUADRUPOLE', 'MULLIKEN_CHARGES')
f=open( 'psi4out.xyz', 'w' )
f.write( "23  " )
f.write( str(ee) + "\n" )
f.write( MOL.save_string_xyz() )
f.close()
--------------------------------------------------------------------------

    Molecular point group: c1

    Geometry (in Angstrom), charge = 0, multiplicity = 1:

       Center              X                  Y                   Z               Mass
    ------------   -----------------  -----------------  -----------------  -----------------
           O         -1.480561889831    -0.514817265898    -1.622934298786    15.994914619560
           C         -2.142180889831    -0.586227265898    -0.637147298786    12.000000000000
           C         -3.376815889831    -1.441758265898    -0.514621298786    12.000000000000
           O         -1.873678889831     0.078449734102     0.474672701214    15.994914619560
           H         -3.107241889831    -2.472139265898    -0.713386298786     1.007825032070
           H         -3.826812889831    -1.362059265898     0.463943701214     1.007825032070
           H         -4.087974889831    -1.136941265898    -1.273053298786     1.007825032070
           C         -0.726182889831     0.921799734102     0.474994701214    12.000000000000
           C          0.500019110169     0.028445734102     0.474839701214    12.000000000000
           H         -0.757317889831     1.558396734102    -0.399386298786     1.007825032070
           H         -0.757411889831     1.558002734102     1.349657701214     1.007825032070
           C          1.800070110169     0.834880734102     0.474985701214    12.000000000000
           H          0.463220110169    -0.618191265898    -0.397482298786     1.007825032070
           H          0.463204110169    -0.618568265898     1.346893701214     1.007825032070
           C          3.049186110169    -0.048315265898     0.474196701214    12.000000000000
           H          1.823146110169     1.487981734102    -0.395653298786     1.007825032070
           H          1.823537110169     1.487014734102     1.346336701214     1.007825032070
           C          4.347648110169     0.757203734102     0.472986701214    12.000000000000
           H          3.027529110169    -0.700395265898    -0.396089298786     1.007825032070
           H          3.028906110169    -0.700004265898     1.344805701214     1.007825032070
           H          4.412990110169     1.394643734102    -0.404176298786     1.007825032070
           H          5.214599110169     0.104033734102     0.472264701214     1.007825032070
           H          4.414541110169     1.394765734102     1.349941701214     1.007825032070

  Charge       = 0
  Multiplicity = 1
  Basis Set: 6-31G*
  Basis Set:

    Orbital Energies (a.u.)
    -----------------------

    Doubly Occupied:

       1A    -20.603335     2A    -20.541548     3A    -11.376599
       4A    -11.282172     5A    -11.233502     6A    -11.217707
       7A    -11.216395     8A    -11.213218     9A    -11.208959
      10A     -1.470199    11A     -1.362634    12A     -1.088188
      13A     -1.040210    14A     -1.000446    15A     -0.929626
      16A     -0.849504    17A     -0.796528    18A     -0.764683
      19A     -0.702083    20A     -0.680792    21A     -0.656346
      22A     -0.645402    23A     -0.602537    24A     -0.589741
      25A     -0.582662    26A     -0.571137    27A     -0.552310
      28A     -0.535425    29A     -0.520065    30A     -0.517323
      31A     -0.483537    32A     -0.474428    33A     -0.470958
      34A     -0.465237    35A     -0.435535    36A     -0.433380

  @DF-RHF Final Energy:  -422.97492893587827

   => Energetics <=

    Nuclear Repulsion Energy =            461.9511729322080669
    One-Electron Energy =               -1491.6235393991366891
    Two-Electron Energy =                 606.6974375310501273
    DFT Exchange-Correlation Energy =       0.0000000000000000
    Empirical Dispersion Energy =           0.0000000000000000
    PCM Polarization Energy =               0.0000000000000000
    EFP Energy =                            0.0000000000000000
    Total Energy =                       -422.9749289358785518

  Mulliken Charges: (a.u.)
   Center  Symbol    Alpha    Beta     Spin     Total
       1     O     4.28497  4.28497  0.00000 -0.56993
       2     C     2.61548  2.61548  0.00000  0.76904
       3     C     3.28774  3.28774  0.00000 -0.57548
       4     O     4.31091  4.31091  0.00000 -0.62181
       5     H     0.39779  0.39779  0.00000  0.20442
       6     H     0.39900  0.39900  0.00000  0.20200
       7     H     0.39717  0.39717  0.00000  0.20566
       8     C     3.00262  3.00262  0.00000 -0.00525
       9     C     3.17638  3.17638  0.00000 -0.35277
      10     H     0.40675  0.40675  0.00000  0.18650
      11     H     0.40797  0.40797  0.00000  0.18407
      12     C     3.15993  3.15993  0.00000 -0.31985
      13     H     0.39397  0.39397  0.00000  0.21206
      14     H     0.41870  0.41870  0.00000  0.16260
      15     C     3.15131  3.15131  0.00000 -0.30263
      16     H     0.41991  0.41991  0.00000  0.16019
      17     H     0.42545  0.42545  0.00000  0.14909
      18     C     3.23968  3.23968  0.00000 -0.47935
      19     H     0.41955  0.41955  0.00000  0.16090
      20     H     0.42285  0.42285  0.00000  0.15430
      21     H     0.42091  0.42091  0.00000  0.15819
      22     H     0.41874  0.41874  0.00000  0.16252
      23     H     0.42224  0.42224  0.00000  0.15553

   Total alpha = 36.00000, Total beta = 36.00000, Total charge =  0.00000
