  ==> Input File <==

--------------------------------------------------------------------------
set {
	reference rhf
	basis 6-31G*
}

set_num_threads( 1 )
memory 2 gb

molecule MOL {
0 1

O	 -1.448904	 0.337868	 2.578750
C	 -0.620349	 1.039576	 2.083234
C	 0.647897	 0.448932	 1.492472
C	 -0.802311	 2.538021	 1.988745
C	 0.379448	 -0.143569	 0.099626
H	 0.987340	 -0.335519	 2.160094
H	 1.428071	 1.202344	 1.431440
C	 1.631333	 -0.777471	 -0.511575
H	 -0.413882	 -0.876792	 0.191262
H	 0.011602	 0.636159	 -0.565549
C	 2.915987	 -0.544314	 0.291766
H	 1.766672	 -0.399098	 -1.523130
H	 1.471257	 -1.849544	 -0.605828
C	 3.373361	 0.914346	 0.347591
H	 3.708709	 -1.142521	 -0.150311
H	 2.780642	 -0.921148	 1.303579
H	 3.506512	 1.320010	 -0.651625
H	 4.322697	 0.999599	 0.867103
H	 2.660624	 1.545032	 0.868198
H	 -0.062504	 3.035724	 2.610228
H	 -1.793686	 2.812325	 2.321486
H	 -0.646984	 2.880654	 0.969784

	symmetry c1
}
set optking {
	frozen_dihedral = ("
		6 3 2 1,
		6 3 5 8,
		12 8 11 15
	")
}

ee = energy('scf')
oeprop('DIPOLE', 'QUADRUPOLE', 'MULLIKEN_CHARGES')
f=open( 'psi4out.xyz', 'w' )
f.write( "22  " )
f.write( str(ee) + "\n" )
f.write( MOL.save_string_xyz() )
f.close()
--------------------------------------------------------------------------

    Molecular point group: c1

    Geometry (in Angstrom), charge = 0, multiplicity = 1:

       Center              X                  Y                   Z               Mass
    ------------   -----------------  -----------------  -----------------  -----------------
           O         -2.211457254434    -0.153675833103     1.526660369072    15.994914619560
           C         -1.382902254434     0.548032166897     1.031144369072    12.000000000000
           C         -0.114656254434    -0.042611833103     0.440382369072    12.000000000000
           C         -1.564864254434     2.046477166897     0.936655369072    12.000000000000
           C         -0.383105254434    -0.635112833103    -0.952463630928    12.000000000000
           H          0.224786745566    -0.827062833103     1.108004369072     1.007825032070
           H          0.665517745566     0.710800166897     0.379350369072     1.007825032070
           C          0.868779745566    -1.269014833103    -1.563664630928    12.000000000000
           H         -1.176435254434    -1.368335833103    -0.860827630928     1.007825032070
           H         -0.750951254434     0.144615166897    -1.617638630928     1.007825032070
           C          2.153433745566    -1.035857833103    -0.760323630928    12.000000000000
           H          1.004118745566    -0.890641833103    -2.575219630928     1.007825032070
           H          0.708703745566    -2.341087833103    -1.657917630928     1.007825032070
           C          2.610807745566     0.422802166897    -0.704498630928    12.000000000000
           H          2.946155745566    -1.634064833103    -1.202400630928     1.007825032070
           H          2.018088745566    -1.412691833103     0.251489369072     1.007825032070
           H          2.743958745566     0.828466166897    -1.703714630928     1.007825032070
           H          3.560143745566     0.508055166897    -0.184986630928     1.007825032070
           H          1.898070745566     1.053488166897    -0.183891630928     1.007825032070
           H         -0.825057254434     2.544180166897     1.558138369072     1.007825032070
           H         -2.556239254434     2.320781166897     1.269396369072     1.007825032070
           H         -1.409537254434     2.389110166897    -0.082305630928     1.007825032070

  Charge       = 0
  Multiplicity = 1
  Basis Set: 6-31G*
  Basis Set:

    Orbital Energies (a.u.)
    -----------------------

    Doubly Occupied:

       1A    -20.544500     2A    -11.321384     3A    -11.227969
       4A    -11.227176     5A    -11.222910     6A    -11.222168
       7A    -11.221394     8A    -11.214786     9A     -1.390487
      10A     -1.103519    11A     -1.036810    12A     -0.997928
      13A     -0.950241    14A     -0.860843    15A     -0.780417
      16A     -0.738976    17A     -0.670189    18A     -0.656160
      19A     -0.622086    20A     -0.606144    21A     -0.603144
      22A     -0.582540    23A     -0.565278    24A     -0.549702
      25A     -0.541998    26A     -0.521191    27A     -0.504128
      28A     -0.487574    29A     -0.469366    30A     -0.453142
      31A     -0.448246    32A     -0.393834

  @DF-RHF Final Energy:  -348.06825668470350

   => Energetics <=

    Nuclear Repulsion Energy =            387.4208253321396001
    One-Electron Energy =               -1239.5057225068744629
    Two-Electron Energy =                 504.0166404900310795
    DFT Exchange-Correlation Energy =       0.0000000000000000
    Empirical Dispersion Energy =           0.0000000000000000
    PCM Polarization Energy =               0.0000000000000000
    EFP Energy =                            0.0000000000000000
    Total Energy =                       -348.0682566847037265

  Mulliken Charges: (a.u.)
   Center  Symbol    Alpha    Beta     Spin     Total
       1     O     4.26375  4.26375  0.00000 -0.52750
       2     C     2.73049  2.73049  0.00000  0.53903
       3     C     3.20875  3.20875  0.00000 -0.41750
       4     C     3.29077  3.29077  0.00000 -0.58154
       5     C     3.16453  3.16453  0.00000 -0.32906
       6     H     0.39995  0.39995  0.00000  0.20010
       7     H     0.42132  0.42132  0.00000  0.15736
       8     C     3.15581  3.15581  0.00000 -0.31161
       9     H     0.40187  0.40187  0.00000  0.19627
      10     H     0.41886  0.41886  0.00000  0.16228
      11     C     3.16341  3.16341  0.00000 -0.32682
      12     H     0.41920  0.41920  0.00000  0.16159
      13     H     0.41529  0.41529  0.00000  0.16942
      14     C     3.24182  3.24182  0.00000 -0.48365
      15     H     0.41481  0.41481  0.00000  0.17038
      16     H     0.41890  0.41890  0.00000  0.16221
      17     H     0.42013  0.42013  0.00000  0.15974
      18     H     0.41672  0.41672  0.00000  0.16656
      19     H     0.41875  0.41875  0.00000  0.16251
      20     H     0.40781  0.40781  0.00000  0.18439
      21     H     0.39694  0.39694  0.00000  0.20612
      22     H     0.41015  0.41015  0.00000  0.17971

   Total alpha = 32.00000, Total beta = 32.00000, Total charge =  0.00000
