                              Psi4 1.0.54 Driver

  ==> Input File <==

--------------------------------------------------------------------------
set {
	reference rhf
	basis cc-pvtz
}

set_num_threads( 4 )
memory 2 gb

molecule MOL {
0 1

H	 -2.412117	 -0.631061	 0.880171
N	 -1.641110	 0.002194	 0.869705
C	 -0.561396	 -0.500007	 0.035200
H	 -1.338680	 0.113938	 1.814896
C	 0.575129	 0.507849	 -0.048832
H	 -0.961424	 -0.669886	 -0.958951
H	 -0.166223	 -1.456435	 0.380886
C	 1.951750	 -0.141983	 0.035101
H	 0.478254	 1.061643	 -0.975981
H	 0.467676	 1.231891	 0.755499
H	 2.101550	 -0.848142	 -0.774949
H	 2.738260	 0.600794	 -0.026526
H	 2.078939	 -0.679792	 0.968824

	symmetry c1
}
set optking {
	frozen_dihedral = ("
		6 3 5 9
	")
}

ee,wfn = optimize('scf', return_wfn=True)
oeprop( wfn, 'DIPOLE', 'QUADRUPOLE', 'MULLIKEN_CHARGES')
f=open( 'psi4out.xyz', 'w' )
f.write( "13  " )
f.write( str(ee) + "\n" )
f.write( MOL.save_string_xyz() )
f.close()
--------------------------------------------------------------------------

    Molecular point group: c1
  Charge       = 0
  Multiplicity = 1
  Basis Set: CC-PVTZ
  Basis Set:
  @DF-RHF Final Energy:  -173.34724837974684
    Total Energy =                       -173.3472483797468442
    Molecular point group: c1
  Basis Set: CC-PVTZ
  Basis Set:
  Basis Set: CC-PVTZ
  Basis Set:
  @DF-RHF Final Energy:  -173.34762944295909
    Total Energy =                       -173.3476294429591462
  Basis Set: CC-PVTZ
  Basis Set:
  Basis Set: CC-PVTZ
  Basis Set:
  @DF-RHF Final Energy:  -173.34772815917074
    Total Energy =                       -173.3477281591708561
  Basis Set: CC-PVTZ
  Basis Set:
  Basis Set: CC-PVTZ
  Basis Set:
  @DF-RHF Final Energy:  -173.34773003692717
    Total Energy =                       -173.3477300369272029
  Basis Set: CC-PVTZ
  Basis Set:
  Charge       = 0
  Multiplicity = 1
  Basis Set: CC-PVTZ
  Basis Set:

    Orbital Energies (a.u.)
    -----------------------

    Doubly Occupied:

       1A    -15.526542     2A    -11.238670     3A    -11.210579
       4A    -11.207029     5A     -1.177163     6A     -1.034357
       7A     -0.898931     8A     -0.799790     9A     -0.668335
      10A     -0.620265    11A     -0.606263    12A     -0.565776
      13A     -0.536739    14A     -0.489787    15A     -0.478302
      16A     -0.465859    17A     -0.383427

  @DF-RHF Final Energy:  -173.34773037353588

   => Energetics <=

    Nuclear Repulsion Energy =            131.8904667826092520
    One-Electron Energy =                -494.6607697087163160
    Two-Electron Energy =                 189.4225725525711539
    DFT Exchange-Correlation Energy =       0.0000000000000000
    Empirical Dispersion Energy =           0.0000000000000000
    PCM Polarization Energy =               0.0000000000000000
    EFP Energy =                            0.0000000000000000
    Total Energy =                       -173.3477303735359385
    Molecular point group: c1
  Basis Set: CC-PVTZ
  Basis Set:

  -Total Gradient:
     Atom            X                  Y                   Z
    ------   -----------------  -----------------  -----------------
       1       -0.000016025395     0.000006727946     0.000011170162
       2        0.000013011442    -0.000032423066    -0.000017344575
       3        0.004064263161    -0.004620098662    -0.001183403279
       4        0.000003882993    -0.000003638893    -0.000014577668
       5       -0.003705717597     0.004339832769     0.002602697995
       6       -0.002835106701     0.003209177252     0.000586784569
       7        0.000002767987     0.000026405358    -0.000001324417
       8       -0.000004524086     0.000012422990     0.000019087119
       9        0.002463340480    -0.002921909089    -0.002001564154
      10        0.000001431559    -0.000015158243     0.000004723519
      11       -0.000010224396    -0.000006601423    -0.000002334058
      12        0.000011744266     0.000004634460    -0.000003769515
      13        0.000011156290     0.000000628601    -0.000000145700

  **** Optimization is complete! (in 5 steps) ****
    Final optimized geometry and variables:
    Molecular point group: c1

    Geometry (in Angstrom), charge = 0, multiplicity = 1:

    H           -2.500835928446    -0.579596078997     0.588038830047
    N           -1.725903440566     0.049242100450     0.603354959961
    C           -0.619010118647    -0.463949539996    -0.193710448867
    H           -1.455892713955     0.161106912180     1.558376483513
    C            0.522334087238     0.560409350890    -0.268607398469
    H           -1.016678520870    -0.637408433995    -1.186486880538
    H           -0.237946911830    -1.413570368417     0.179265378658
    C            1.905994795684    -0.084154174877    -0.228288162798
    H            0.440184183656     1.124912408958    -1.190377792159
    H            0.423953083016     1.266019066076     0.548016089404
    H            2.032563420448    -0.793072968345    -1.040356954022
    H            2.687871194968     0.661166376840    -0.318682180636
    H            2.063840565144    -0.620265005815     0.701909326498

  Mulliken Charges: (a.u.)
   Center  Symbol    Alpha    Beta     Spin     Total
       1     H     0.42946  0.42946  0.00000  0.14107
       2     N     3.69050  3.69050  0.00000 -0.38099
       3     C     3.02852  3.02852  0.00000 -0.05704
       4     H     0.43085  0.43085  0.00000  0.13829
       5     C     3.08057  3.08057  0.00000 -0.16114
       6     H     0.45615  0.45615  0.00000  0.08769
       7     H     0.46602  0.46602  0.00000  0.06796
       8     C     3.15113  3.15113  0.00000 -0.30226
       9     H     0.45248  0.45248  0.00000  0.09504
      10     H     0.45239  0.45239  0.00000  0.09521
      11     H     0.45550  0.45550  0.00000  0.08900
      12     H     0.44926  0.44926  0.00000  0.10149
      13     H     0.45717  0.45717  0.00000  0.08567

   Total alpha = 17.00000, Total beta = 17.00000, Total charge =  0.00000

*** Psi4 exiting successfully. Buy a developer a beer!
