  ==> Input File <==

--------------------------------------------------------------------------
set {
	reference rhf
	basis 6-31G*
}

set_num_threads( 1 )
memory 2 gb

molecule MOL {
0 1

O	 1.698118	 1.117631	 0.641886
C	 1.705091	 0.115954	 0.001797
C	 0.594002	 -0.354984	 -0.904606
O	 2.721346	 -0.737485	 -0.000216
C	 -0.601160	 0.592583	 -0.941345
H	 1.018994	 -0.491339	 -1.895314
H	 0.300407	 -1.346305	 -0.570237
C	 -1.710616	 0.091830	 -1.867311
H	 -0.268815	 1.575068	 -1.261436
H	 -0.988869	 0.718383	 0.064719
C	 -2.917097	 1.030876	 -1.916864
H	 -1.314656	 -0.035726	 -2.873761
H	 -2.037936	 -0.894713	 -1.542538
C	 -4.025806	 0.529403	 -2.841277
H	 -2.592221	 2.016186	 -2.243606
H	 -3.314296	 1.158603	 -0.912346
H	 -3.668300	 0.424414	 -3.861757
H	 -4.866632	 1.215901	 -2.854814
H	 -4.395815	 -0.440276	 -2.520143
C	 4.024888	 -0.184556	 -0.001949
H	 4.179030	 0.422472	 -0.882452
H	 4.701782	 -1.024608	 -0.003642
H	 4.181981	 0.421185	 0.878906

	symmetry c1
}
set optking {
	frozen_dihedral = ("
		15 11 8 12,
		9 5 8 12,
		1 2 3 6,
		9 5 3 6
	")
}

ee = energy('scf')
oeprop('DIPOLE', 'QUADRUPOLE', 'MULLIKEN_CHARGES')
f=open( 'psi4out.xyz', 'w' )
f.write( "23  " )
f.write( str(ee) + "\n" )
f.write( MOL.save_string_xyz() )
f.close()
--------------------------------------------------------------------------

    Molecular point group: c1

    Geometry (in Angstrom), charge = 0, multiplicity = 1:

       Center              X                  Y                   Z               Mass
    ------------   -----------------  -----------------  -----------------  -----------------
           O          1.495316950646     0.874109292976     1.503026681114    15.994914619560
           C          1.502289950646    -0.127567707024     0.862937681114    12.000000000000
           C          0.391200950646    -0.598505707024    -0.043465318886    12.000000000000
           O          2.518544950646    -0.981006707024     0.860924681114    15.994914619560
           C         -0.803961049354     0.349061292976    -0.080204318886    12.000000000000
           H          0.816192950646    -0.734860707024    -1.034173318886     1.007825032070
           H          0.097605950646    -1.589826707024     0.290903681114     1.007825032070
           C         -1.913417049354    -0.151691707024    -1.006170318886    12.000000000000
           H         -0.471616049354     1.331546292976    -0.400295318886     1.007825032070
           H         -1.191670049354     0.474861292976     0.925859681114     1.007825032070
           C         -3.119898049354     0.787354292976    -1.055723318886    12.000000000000
           H         -1.517457049354    -0.279247707024    -2.012620318886     1.007825032070
           H         -2.240737049354    -1.138234707024    -0.681397318886     1.007825032070
           C         -4.228607049354     0.285881292976    -1.980136318886    12.000000000000
           H         -2.795022049354     1.772664292976    -1.382465318886     1.007825032070
           H         -3.517097049354     0.915081292976    -0.051205318886     1.007825032070
           H         -3.871101049354     0.180892292976    -3.000616318886     1.007825032070
           H         -5.069433049354     0.972379292976    -1.993673318886     1.007825032070
           H         -4.598616049354    -0.683797707024    -1.659002318886     1.007825032070
           C          3.822086950646    -0.428077707024     0.859191681114    12.000000000000
           H          3.976228950646     0.178950292976    -0.021311318886     1.007825032070
           H          4.498980950646    -1.268129707024     0.857498681114     1.007825032070
           H          3.979179950646     0.177663292976     1.740046681114     1.007825032070

  Charge       = 0
  Multiplicity = 1
  Basis Set: 6-31G*
  Basis Set:

    Orbital Energies (a.u.)
    -----------------------

    Doubly Occupied:

       1A    -20.595993     2A    -20.548541     3A    -11.372889
       4A    -11.285030     5A    -11.235804     6A    -11.219209
       7A    -11.218054     8A    -11.216645     9A    -11.209833
      10A     -1.467012    11A     -1.363601    12A     -1.093185
      13A     -1.042912    14A     -0.986739    15A     -0.934770
      16A     -0.845107    17A     -0.795313    18A     -0.767503
      19A     -0.696593    20A     -0.681885    21A     -0.672183
      22A     -0.650883    23A     -0.610103    24A     -0.603251
      25A     -0.574759    26A     -0.564314    27A     -0.554522
      28A     -0.530836    29A     -0.510992    30A     -0.507757
      31A     -0.484903    32A     -0.470561    33A     -0.467239
      34A     -0.464840    35A     -0.452149    36A     -0.432008

  @DF-RHF Final Energy:  -422.96774901262893

   => Energetics <=

    Nuclear Repulsion Energy =            452.3969708855967156
    One-Electron Energy =               -1472.4737620310881994
    Two-Electron Energy =                 597.1090421328631237
    DFT Exchange-Correlation Energy =       0.0000000000000000
    Empirical Dispersion Energy =           0.0000000000000000
    PCM Polarization Energy =               0.0000000000000000
    EFP Energy =                            0.0000000000000000
    Total Energy =                       -422.9677490126283601

  Mulliken Charges: (a.u.)
   Center  Symbol    Alpha    Beta     Spin     Total
       1     O     4.27737  4.27737  0.00000 -0.55475
       2     C     2.60493  2.60493  0.00000  0.79014
       3     C     3.21000  3.21000  0.00000 -0.41999
       4     O     4.30964  4.30964  0.00000 -0.61929
       5     C     3.15310  3.15310  0.00000 -0.30621
       6     H     0.40357  0.40357  0.00000  0.19286
       7     H     0.39946  0.39946  0.00000  0.20108
       8     C     3.15317  3.15317  0.00000 -0.30634
       9     H     0.41254  0.41254  0.00000  0.17493
      10     H     0.41111  0.41111  0.00000  0.17779
      11     C     3.15152  3.15152  0.00000 -0.30304
      12     H     0.42456  0.42456  0.00000  0.15088
      13     H     0.42374  0.42374  0.00000  0.15252
      14     C     3.23957  3.23957  0.00000 -0.47915
      15     H     0.42155  0.42155  0.00000  0.15690
      16     H     0.42112  0.42112  0.00000  0.15777
      17     H     0.42199  0.42199  0.00000  0.15602
      18     H     0.41846  0.41846  0.00000  0.16309
      19     H     0.42171  0.42171  0.00000  0.15658
      20     C     3.09501  3.09501  0.00000 -0.19003
      21     H     0.41694  0.41694  0.00000  0.16611
      22     H     0.40646  0.40646  0.00000  0.18708
      23     H     0.40248  0.40248  0.00000  0.19504

   Total alpha = 36.00000, Total beta = 36.00000, Total charge =  0.00000
