  ==> Input File <==

--------------------------------------------------------------------------
set {
	reference rhf
	basis 6-31G*
}

set_num_threads( 4 )
memory 2 gb

molecule MOL {
0 1

H	 -3.420663	 1.227371	 -1.044276
O	 -3.452007	 0.283848	 -0.965577
C	 -3.181085	 -0.079926	 0.364119
C	 -1.765924	 0.277073	 0.805136
H	 -3.327791	 -1.152017	 0.410903
H	 -3.905698	 0.375695	 1.036898
C	 -0.677518	 -0.398609	 -0.029934
H	 -1.643381	 1.359694	 0.761808
H	 -1.654007	 0.001388	 1.852367
C	 0.738264	 -0.016055	 0.406407
H	 -0.820374	 -0.143421	 -1.075487
H	 -0.796948	 -1.478566	 0.039513
C	 1.822310	 -0.700873	 -0.430227
H	 0.847784	 1.064012	 0.344120
H	 0.877039	 -0.277018	 1.454855
C	 3.258539	 -0.418425	 0.025433
H	 1.712387	 -0.405462	 -1.472505
H	 1.656589	 -1.775829	 -0.401546
C	 3.701673	 1.037110	 -0.134112
H	 3.932024	 -1.051937	 -0.546730
H	 3.371412	 -0.718334	 1.065393
H	 3.587919	 1.368865	 -1.162770
H	 4.746833	 1.153672	 0.135869
H	 3.127026	 1.708352	 0.495474

	symmetry c1
}
set optking {
	frozen_dihedral = ("
		7 4 3 2
	")
}

ee = optimize('scf')
oeprop('DIPOLE', 'QUADRUPOLE', 'MULLIKEN_CHARGES')
f=open( 'psi4out.xyz', 'w' )
f.write( "24  " )
f.write( str(ee) + "\n" )
f.write( MOL.save_string_xyz() )
f.close()
--------------------------------------------------------------------------

    Molecular point group: c1
  Charge       = 0
  Multiplicity = 1
  Basis Set: 6-31G*
  Basis Set:
  @DF-RHF Final Energy:  -349.24762679648080
    Total Energy =                       -349.2476267964808585
    Molecular point group: c1
  Basis Set: 6-31G*
  Basis Set:
  Charge       = 0
  Multiplicity = 1
  Basis Set: 6-31G*
  Basis Set:

    Orbital Energies (a.u.)
    -----------------------

    Doubly Occupied:

       1A    -20.553650     2A    -11.267718     3A    -11.217465
       4A    -11.214057     5A    -11.212431     6A    -11.211570
       7A    -11.211075     8A    -11.207387     9A     -1.360214
      10A     -1.088530    11A     -1.048280    12A     -0.985657
      13A     -0.915057    14A     -0.850460    15A     -0.800642
      16A     -0.776281    17A     -0.679104    18A     -0.653727
      19A     -0.625417    20A     -0.619624    21A     -0.596931
      22A     -0.584687    23A     -0.557423    24A     -0.541133
      25A     -0.514596    26A     -0.508757    27A     -0.499654
      28A     -0.472515    29A     -0.467581    30A     -0.459619
      31A     -0.455404    32A     -0.450799    33A     -0.419136

  @DF-RHF Final Energy:  -349.24762676918493

   => Energetics <=

    Nuclear Repulsion Energy =            384.5266133443647618
    One-Electron Energy =               -1235.4953143413345060
    Two-Electron Energy =                 501.7210742277850954
    DFT Exchange-Correlation Energy =       0.0000000000000000
    Empirical Dispersion Energy =           0.0000000000000000
    PCM Polarization Energy =               0.0000000000000000
    EFP Energy =                            0.0000000000000000
    Total Energy =                       -349.2476267691847056
    Molecular point group: c1
  Basis Set: 6-31G*
  Basis Set:

  -Total Gradient:
     Atom            X                  Y                   Z
    ------   -----------------  -----------------  -----------------
       1       -0.000000575960    -0.000012574611     0.000025343689
       2        0.000054188297    -0.000261165118    -0.000142777058
       3       -0.000114970528     0.000468807970     0.000075500558
       4        0.000049212447    -0.000337247048     0.000184656508
       5        0.000007966087     0.000029712982    -0.000050657908
       6       -0.000013225325    -0.000041164219     0.000038489773
       7        0.000021561141     0.000189076929    -0.000176527473
       8       -0.000022994103    -0.000016642086    -0.000014900767
       9        0.000018923870     0.000019170221     0.000014803212
      10       -0.000002173074    -0.000041221436     0.000031231583
      11        0.000022806478    -0.000016393835    -0.000002281008
      12       -0.000022914941     0.000015905001     0.000025327045
      13        0.000006873557     0.000015992288    -0.000019223502
      14       -0.000004165652    -0.000006818439     0.000011504725
      15        0.000002159505    -0.000014210514     0.000014567194
      16       -0.000005290901     0.000017628100    -0.000013151940
      17       -0.000002929620    -0.000007035168    -0.000003763584
      18        0.000017646660     0.000004845351     0.000005598574
      19        0.000005678467    -0.000002517747    -0.000005149708
      20       -0.000002114067    -0.000006626973     0.000000552043
      21       -0.000011635211     0.000005026909    -0.000000109753
      22       -0.000002562101     0.000001933541     0.000000326324
      23        0.000001797963    -0.000001063437    -0.000002648481
      24       -0.000003262985    -0.000003418662     0.000003289956

  **** Optimization is complete! (in 2 steps) ****
    Final optimized geometry and variables:
    Molecular point group: c1

    Geometry (in Angstrom), charge = 0, multiplicity = 1:

    H           -3.421179681195     1.206435403194    -1.035672839582
    O           -3.451659261985     0.263132563775    -0.954257255896
    C           -3.180072005179    -0.096646458628     0.376399980848
    C           -1.764495919088     0.260500442869     0.816291955266
    H           -3.326293111863    -1.168622264618     0.425038199911
    H           -3.904483738245     0.359648872745     1.048864388894
    C           -0.676305210971    -0.418270848003    -0.016593230762
    H           -1.640791770983     1.342822711644     0.768726265439
    H           -1.653167739687    -0.011080459125     1.864661088416
    C            0.739528055242    -0.039785107153     0.423085618696
    H           -0.815928496869    -0.162669751503    -1.062375984439
    H           -0.799026569084    -1.497891734554     0.052262873605
    C            1.823466695520    -0.720183675815    -0.417298869046
    H            0.850054702106     1.040506230984     0.367546331569
    H            0.877471370552    -0.307355016541     1.469998557280
    C            3.259899134668    -0.436423927084     0.036812831273
    H            1.711342031320    -0.421974842246    -1.458508258601
    H            1.659740656405    -1.795543617242    -0.391579368113
    C            3.701270372989     1.019657452550    -0.122502453574
    H            3.933345120658    -1.068931671539    -0.536431780177
    H            3.374226606401    -0.736729316605     1.076504196105
    H            3.585686728989     1.351915981896    -1.150781405448
    H            4.746718603338     1.137127026066     0.145989073239
    H            3.126803876979     1.689892154242     0.508297816646

  Mulliken Charges: (a.u.)
   Center  Symbol    Alpha    Beta     Spin     Total
       1     H     0.28340  0.28340  0.00000  0.43320
       2     O     4.36824  4.36824  0.00000 -0.73648
       3     C     2.99608  2.99608  0.00000  0.00784
       4     C     3.16935  3.16935  0.00000 -0.33869
       5     H     0.41635  0.41635  0.00000  0.16730
       6     H     0.42812  0.42812  0.00000  0.14376
       7     C     3.15151  3.15151  0.00000 -0.30302
       8     H     0.42834  0.42834  0.00000  0.14332
       9     H     0.42228  0.42228  0.00000  0.15544
      10     C     3.15360  3.15360  0.00000 -0.30721
      11     H     0.41220  0.41220  0.00000  0.17561
      12     H     0.42355  0.42355  0.00000  0.15290
      13     C     3.15225  3.15225  0.00000 -0.30449
      14     H     0.42301  0.42301  0.00000  0.15397
      15     H     0.42542  0.42542  0.00000  0.14916
      16     C     3.15231  3.15231  0.00000 -0.30462
      17     H     0.42366  0.42366  0.00000  0.15267
      18     H     0.42205  0.42205  0.00000  0.15591
      19     C     3.24102  3.24102  0.00000 -0.48205
      20     H     0.42105  0.42105  0.00000  0.15789
      21     H     0.42378  0.42378  0.00000  0.15245
      22     H     0.42230  0.42230  0.00000  0.15539
      23     H     0.41953  0.41953  0.00000  0.16093
      24     H     0.42059  0.42059  0.00000  0.15882

   Total alpha = 33.00000, Total beta = 33.00000, Total charge =  0.00000
