                              Psi4 1.0.54 Driver

  ==> Input File <==

--------------------------------------------------------------------------
set {
	reference rhf
	basis cc-pvtz
}

set_num_threads( 4 )
memory 2 gb

molecule MOL {
0 1

H	 -2.498963	 -0.741158	 -0.729149
O	 -2.346257	 -0.289210	 0.080372
C	 -1.183935	 0.486039	 -0.009831
C	 0.062853	 -0.375310	 0.027457
H	 -1.178881	 1.094526	 -0.908634
H	 -1.184406	 1.155156	 0.838676
O	 0.880071	 0.083234	 1.053781
H	 0.583124	 -0.318631	 -0.930145
H	 -0.217861	 -1.414485	 0.185221
C	 2.055031	 -0.638760	 1.225292
H	 2.674984	 -0.607013	 0.332025
H	 2.601049	 -0.193006	 2.043737
H	 1.850384	 -1.679428	 1.465396

	symmetry c1
}
set optking {
	frozen_dihedral = ("
		8 4 3 5
	")
}

ee,wfn = optimize('scf', return_wfn=True)
oeprop( wfn, 'DIPOLE', 'QUADRUPOLE', 'MULLIKEN_CHARGES')
f=open( 'psi4out.xyz', 'w' )
f.write( "13  " )
f.write( str(ee) + "\n" )
f.write( MOL.save_string_xyz() )
f.close()
--------------------------------------------------------------------------

    Molecular point group: c1
  Charge       = 0
  Multiplicity = 1
  Basis Set: CC-PVTZ
  Basis Set:
  @DF-RHF Final Energy:  -268.05534552274679
    Total Energy =                       -268.0553455227468476
    Molecular point group: c1
  Basis Set: CC-PVTZ
  Basis Set:
  Basis Set: CC-PVTZ
  Basis Set:
  @DF-RHF Final Energy:  -268.05589506272509
    Total Energy =                       -268.0558950627248578
  Basis Set: CC-PVTZ
  Basis Set:
  Basis Set: CC-PVTZ
  Basis Set:
  @DF-RHF Final Energy:  -268.05609502477819
    Total Energy =                       -268.0560950247784149
  Basis Set: CC-PVTZ
  Basis Set:
  Basis Set: CC-PVTZ
  Basis Set:
  @DF-RHF Final Energy:  -268.05609828060761
    Total Energy =                       -268.0560982806076709
  Basis Set: CC-PVTZ
  Basis Set:
  Charge       = 0
  Multiplicity = 1
  Basis Set: CC-PVTZ
  Basis Set:

    Orbital Energies (a.u.)
    -----------------------

    Doubly Occupied:

       1A    -20.553514     2A    -20.550254     3A    -11.269107
       4A    -11.267924     5A    -11.265573     6A     -1.388958
       7A     -1.366078     8A     -1.016233     9A     -0.912904
      10A     -0.843411    11A     -0.707239    12A     -0.669457
      13A     -0.666614    14A     -0.642983    15A     -0.588046
      16A     -0.569915    17A     -0.545055    18A     -0.492485
      19A     -0.481839    20A     -0.440388    21A     -0.421389

  @DF-RHF Final Energy:  -268.05609865683584

   => Energetics <=

    Nuclear Repulsion Energy =            190.3960140133785615
    One-Electron Energy =                -743.5854928837004536
    Two-Electron Energy =                 285.1333802134859638
    DFT Exchange-Correlation Energy =       0.0000000000000000
    Empirical Dispersion Energy =           0.0000000000000000
    PCM Polarization Energy =               0.0000000000000000
    EFP Energy =                            0.0000000000000000
    Total Energy =                       -268.0560986568358999
    Molecular point group: c1
  Basis Set: CC-PVTZ
  Basis Set:

  -Total Gradient:
     Atom            X                  Y                   Z
    ------   -----------------  -----------------  -----------------
       1       -0.000006060188    -0.000014676030    -0.000001917338
       2        0.000047970193     0.000036476600    -0.000019805260
       3        0.001473730348     0.002267775807     0.001532795849
       4       -0.001587789599    -0.002361936417    -0.001154735178
       5       -0.001003817008    -0.001502591792    -0.001046415803
       6        0.000004671060     0.000000967313     0.000000223557
       7       -0.000045306383    -0.000011475279    -0.000042470186
       8        0.001103881981     0.001599997441     0.000731909812
       9       -0.000002118096    -0.000000980642     0.000002336828
      10        0.000023771279    -0.000021819284    -0.000007327965
      11        0.000000603903     0.000002339249     0.000002419640
      12       -0.000013878810     0.000003727240    -0.000002198629
      13        0.000004341316     0.000002195794     0.000005184673

  **** Optimization is complete! (in 5 steps) ****
    Final optimized geometry and variables:
    Molecular point group: c1

    Geometry (in Angstrom), charge = 0, multiplicity = 1:

    H           -2.420666709195    -0.495577872078    -1.230312081061
    O           -2.254560685668    -0.080311113418    -0.404247005177
    C           -1.062050480585     0.656762131438    -0.459769295554
    C            0.189065649185    -0.224722919824    -0.419825043011
    H           -1.059298660230     1.282915764473    -1.346109282713
    H           -1.050881592751     1.295947965468     0.408895999639
    O            1.021069719555     0.216006065655     0.608512378683
    H            0.733070374267    -0.175521023859    -1.362163981333
    H           -0.111143068127    -1.255504395935    -0.249923709497
    C            2.207507059040    -0.495931650006     0.730150390913
    H            2.810506811924    -0.423630756602    -0.172651507981
    H            2.763567327622    -0.073686880155     1.554342912760
    H            2.021314731959    -1.547763846592     0.935485423434

  Mulliken Charges: (a.u.)
   Center  Symbol    Alpha    Beta     Spin     Total
       1     H     0.39542  0.39542  0.00000  0.20917
       2     O     4.19974  4.19974  0.00000 -0.39948
       3     C     2.97418  2.97418  0.00000  0.05164
       4     C     2.97159  2.97159  0.00000  0.05682
       5     H     0.46797  0.46797  0.00000  0.06406
       6     H     0.44893  0.44893  0.00000  0.10215
       7     O     4.17252  4.17252  0.00000 -0.34505
       8     H     0.47897  0.47897  0.00000  0.04207
       9     H     0.47188  0.47188  0.00000  0.05625
      10     C     3.02960  3.02960  0.00000 -0.05920
      11     H     0.47236  0.47236  0.00000  0.05528
      12     H     0.44590  0.44590  0.00000  0.10820
      13     H     0.47095  0.47095  0.00000  0.05809

   Total alpha = 21.00000, Total beta = 21.00000, Total charge =  0.00000

*** Psi4 exiting successfully. Buy a developer a beer!
