                              Psi4 1.0.54 Driver

  ==> Input File <==

--------------------------------------------------------------------------
set {
	reference rhf
	basis cc-pvtz
}

set_num_threads( 4 )
memory 2 gb

molecule MOL {
0 1

H	 -3.050005	 1.818473	 -0.610664
C	 -2.299552	 1.258694	 -0.091264
C	 -2.105997	 -0.000418	 -0.398703
H	 -1.722581	 1.747102	 0.669237
O	 -1.189946	 -0.765863	 0.237511
H	 -2.672637	 -0.497437	 -1.164874
C	 0.026572	 -0.995256	 -0.379403
C	 1.057223	 0.049888	 -0.004615
H	 -0.054361	 -1.010670	 -1.459674
H	 0.397526	 -1.952058	 -0.044198
F	 2.203233	 -0.234060	 -0.590375
F	 0.698147	 1.254887	 -0.392621
F	 1.266440	 0.094219	 1.288722

	symmetry c1
}
set optking {
	frozen_dihedral = ("
		6 3 5 7
	")
}

ee,wfn = optimize('scf', return_wfn=True)
oeprop( wfn, 'DIPOLE', 'QUADRUPOLE', 'MULLIKEN_CHARGES')
f=open( 'psi4out.xyz', 'w' )
f.write( "13  " )
f.write( str(ee) + "\n" )
f.write( MOL.save_string_xyz() )
f.close()
--------------------------------------------------------------------------

    Molecular point group: c1
  Charge       = 0
  Multiplicity = 1
  Basis Set: CC-PVTZ
  Basis Set:
  @DF-RHF Final Energy:  -527.73623779049728
    Total Energy =                       -527.7362377904972845
    Molecular point group: c1
  Basis Set: CC-PVTZ
  Basis Set:
  Basis Set: CC-PVTZ
  Basis Set:
  @DF-RHF Final Energy:  -527.73703700511692
    Total Energy =                       -527.7370370051170312
  Basis Set: CC-PVTZ
  Basis Set:
  Basis Set: CC-PVTZ
  Basis Set:
  @DF-RHF Final Energy:  -527.73729472721016
    Total Energy =                       -527.7372947272098145
  Basis Set: CC-PVTZ
  Basis Set:
  Basis Set: CC-PVTZ
  Basis Set:
  @DF-RHF Final Energy:  -527.73746666904640
    Total Energy =                       -527.7374666690461709
  Basis Set: CC-PVTZ
  Basis Set:
  @DF-RHF Final Energy:  -527.73758257595341
    Total Energy =                       -527.7375825759534109
  Basis Set: CC-PVTZ
  Basis Set:
  @DF-RHF Final Energy:  -527.73763297529126
    Total Energy =                       -527.7376329752911488
  Basis Set: CC-PVTZ
  Basis Set:
  Basis Set: CC-PVTZ
  Basis Set:
  @DF-RHF Final Energy:  -527.73765438513806
    Total Energy =                       -527.7376543851378301
  Basis Set: CC-PVTZ
  Basis Set:
  Basis Set: CC-PVTZ
  Basis Set:
  @DF-RHF Final Energy:  -527.73766048416485
    Total Energy =                       -527.7376604841648486
  Basis Set: CC-PVTZ
  Basis Set:
  Charge       = 0
  Multiplicity = 1
  Basis Set: CC-PVTZ
  Basis Set:

    Orbital Energies (a.u.)
    -----------------------

    Doubly Occupied:

       1A    -26.337201     2A    -26.335396     3A    -26.333549
       4A    -20.592187     5A    -11.493367     6A    -11.314812
       7A    -11.294436     8A    -11.225962     9A     -1.745731
      10A     -1.642104    11A     -1.640513    12A     -1.431095
      13A     -1.082509    14A     -1.022424    15A     -0.929014
      16A     -0.840115    17A     -0.835280    18A     -0.813975
      19A     -0.794151    20A     -0.721938    21A     -0.716743
      22A     -0.697410    23A     -0.675847    24A     -0.667704
      25A     -0.657271    26A     -0.649802    27A     -0.646240
      28A     -0.592462    29A     -0.566197    30A     -0.531285
      31A     -0.469681    32A     -0.380791

  @DF-RHF Final Energy:  -527.73766142730301

   => Energetics <=

    Nuclear Repulsion Energy =            415.9419422700710243
    One-Electron Energy =               -1556.0048267741567543
    Two-Electron Energy =                 612.3252230767825495
    DFT Exchange-Correlation Energy =       0.0000000000000000
    Empirical Dispersion Energy =           0.0000000000000000
    PCM Polarization Energy =               0.0000000000000000
    EFP Energy =                            0.0000000000000000
    Total Energy =                       -527.7376614273032374
    Molecular point group: c1
  Basis Set: CC-PVTZ
  Basis Set:

  -Total Gradient:
     Atom            X                  Y                   Z
    ------   -----------------  -----------------  -----------------
       1       -0.000007309837     0.000005521141    -0.000003533422
       2        0.000005359290     0.000007893104     0.000009370712
       3        0.002111792518     0.001352351479    -0.002232635430
       4        0.000008811311     0.000017177257     0.000007150087
       5       -0.001386029401    -0.002608698361    -0.000083635980
       6       -0.001364509419    -0.000449395929     0.001834187079
       7        0.000627658898     0.001694075020     0.000467623882
       8        0.000112706146    -0.000118323161     0.000029665235
       9       -0.000002832305    -0.000004521700    -0.000012147949
      10       -0.000003863149    -0.000017754787     0.000000320343
      11       -0.000018281777    -0.000010860816     0.000019236523
      12       -0.000082060559     0.000136710098    -0.000027659411
      13       -0.000001441714    -0.000004173344    -0.000007941675

  **** Optimization is complete! (in 9 steps) ****
    Final optimized geometry and variables:
    Molecular point group: c1

    Geometry (in Angstrom), charge = 0, multiplicity = 1:

    H           -3.523193397864     1.485649353987    -0.600326399007
    C           -2.646558901661     1.096812265393    -0.121436211968
    C           -2.316737635796    -0.158558502713    -0.291914160153
    H           -2.065653666114     1.752445896634     0.496907417944
    O           -1.261166402855    -0.747146421885     0.340114482034
    H           -2.908500175714    -0.833683661828    -0.885452901124
    C           -0.113805053528    -0.985098505869    -0.407162825665
    C            1.001728112883    -0.048716699549     0.004530306019
    H           -0.278207699634    -0.858321048413    -1.469313764742
    H            0.229469519571    -1.993331118180    -0.220447795300
    F            2.084575149925    -0.323493863066    -0.696457150981
    F            0.699758959267     1.213000582844    -0.207221534244
    F            1.304940582380    -0.176393063375     1.274830215798

  Mulliken Charges: (a.u.)
   Center  Symbol    Alpha    Beta     Spin     Total
       1     H     0.42435  0.42435  0.00000  0.15131
       2     C     3.16725  3.16725  0.00000 -0.33450
       3     C     2.98887  2.98887  0.00000  0.02226
       4     H     0.41878  0.41878  0.00000  0.16243
       5     O     4.16611  4.16611  0.00000 -0.33222
       6     H     0.42675  0.42675  0.00000  0.14650
       7     C     2.99930  2.99930  0.00000  0.00140
       8     C     2.67432  2.67432  0.00000  0.65136
       9     H     0.46014  0.46014  0.00000  0.07972
      10     H     0.44162  0.44162  0.00000  0.11676
      11     F     4.61344  4.61344  0.00000 -0.22688
      12     F     4.61055  4.61055  0.00000 -0.22109
      13     F     4.60853  4.60853  0.00000 -0.21705

   Total alpha = 32.00000, Total beta = 32.00000, Total charge =  0.00000

*** Psi4 exiting successfully. Buy a developer a beer!
