  ==> Input File <==

--------------------------------------------------------------------------
set {
	reference rhf
	basis 6-31G*
}

set_num_threads( 4 )
memory 2 gb

molecule MOL {
0 1

H	 1.148083	 -1.049780	 0.784252
O	 1.319262	 -0.618148	 -0.041729
C	 0.709265	 0.639550	 -0.033818
C	 1.495235	 1.702151	 0.688476
H	 -0.252138	 0.506309	 0.449043
H	 0.503171	 0.976094	 -1.049342
C	 2.579143	 1.491015	 1.407732
H	 1.106111	 2.703598	 0.587629
H	 2.984040	 0.504753	 1.544751
H	 3.091944	 2.299390	 1.897163

	symmetry c1
}
set optking {
	frozen_dihedral = ("
		5 3 2 1
	")
}

ee = optimize('scf')
oeprop('DIPOLE', 'QUADRUPOLE', 'MULLIKEN_CHARGES')
f=open( 'psi4out.xyz', 'w' )
f.write( "10  " )
f.write( str(ee) + "\n" )
f.write( MOL.save_string_xyz() )
f.close()
--------------------------------------------------------------------------

    Molecular point group: c1
  Charge       = 0
  Multiplicity = 1
  Basis Set: 6-31G*
  Basis Set:
  @DF-RHF Final Energy:  -191.91425793876328
    Total Energy =                       -191.9142579387632850
    Molecular point group: c1
  Basis Set: 6-31G*
  Basis Set:
  Basis Set: 6-31G*
  Basis Set:
  @DF-RHF Final Energy:  -191.91600029122861
    Total Energy =                       -191.9160002912285563
  Basis Set: 6-31G*
  Basis Set:
  Basis Set: 6-31G*
  Basis Set:
  @DF-RHF Final Energy:  -191.91644793694735
    Total Energy =                       -191.9164479369473497
  Basis Set: 6-31G*
  Basis Set:
  Basis Set: 6-31G*
  Basis Set:
  @DF-RHF Final Energy:  -191.91656910842053
    Total Energy =                       -191.9165691084205605
  Basis Set: 6-31G*
  Basis Set:
  Basis Set: 6-31G*
  Basis Set:
  @DF-RHF Final Energy:  -191.91661791680610
    Total Energy =                       -191.9166179168061319
  Basis Set: 6-31G*
  Basis Set:
  Basis Set: 6-31G*
  Basis Set:
  @DF-RHF Final Energy:  -191.91661908087860
    Total Energy =                       -191.9166190808786041
  Basis Set: 6-31G*
  Basis Set:
  Charge       = 0
  Multiplicity = 1
  Basis Set: 6-31G*
  Basis Set:

    Orbital Energies (a.u.)
    -----------------------

    Doubly Occupied:

       1A    -20.560619     2A    -11.278677     3A    -11.227061
       4A    -11.214990     5A     -1.368917     6A     -1.055222
       7A     -0.926530     8A     -0.764282     9A     -0.693884
      10A     -0.657118    11A     -0.613226    12A     -0.571630
      13A     -0.526937    14A     -0.498792    15A     -0.445001
      16A     -0.361269

  @DF-RHF Final Energy:  -191.91661969796272

   => Energetics <=

    Nuclear Repulsion Energy =            119.2958640448407834
    One-Electron Energy =                -496.8966591628197875
    Two-Electron Energy =                 185.6841754200162882
    DFT Exchange-Correlation Energy =       0.0000000000000000
    Empirical Dispersion Energy =           0.0000000000000000
    PCM Polarization Energy =               0.0000000000000000
    EFP Energy =                            0.0000000000000000
    Total Energy =                       -191.9166196979627443
    Molecular point group: c1
  Basis Set: 6-31G*
  Basis Set:

  -Total Gradient:
     Atom            X                  Y                   Z
    ------   -----------------  -----------------  -----------------
       1       -0.001503950531    -0.000734253193    -0.000905191634
       2        0.001968318822     0.001055133325     0.001529489902
       3       -0.000995070608    -0.000608878614    -0.002188592418
       4        0.000009973617    -0.000025036077     0.000037311786
       5        0.000527972006     0.000325956840     0.001552565513
       6       -0.000001273535    -0.000017549116    -0.000013166542
       7       -0.000001759431     0.000015973275    -0.000001036283
       8       -0.000006706421    -0.000002710769    -0.000006237341
       9       -0.000002641508    -0.000010264700     0.000003806916
      10        0.000005137589     0.000001629034    -0.000008949899

  **** Optimization is complete! (in 7 steps) ****
    Final optimized geometry and variables:
    Molecular point group: c1

    Geometry (in Angstrom), charge = 0, multiplicity = 1:

    H           -0.468543872550    -1.783098568369     0.329293126709
    O           -0.197148331822    -1.356528355656    -0.470820338071
    C           -0.781311731432    -0.086982057605    -0.542205532946
    C           -0.032873459664     0.969648624181     0.227716233483
    H           -1.810963792052    -0.113728223310    -0.188080729853
    H           -0.815966565810     0.182831625627    -1.591735209502
    C            1.110467330651     0.786817450301     0.855863515320
    H           -0.503220852636     1.941128984606     0.239073562292
    H            1.608932821701    -0.164963611761     0.850359763054
    H            1.590868676655     1.588659026718     1.387299876415

  Mulliken Charges: (a.u.)
   Center  Symbol    Alpha    Beta     Spin     Total
       1     H     0.27933  0.27933  0.00000  0.44133
       2     O     4.36709  4.36709  0.00000 -0.73418
       3     C     3.00311  3.00311  0.00000 -0.00623
       4     C     3.09133  3.09133  0.00000 -0.18267
       5     H     0.42617  0.42617  0.00000  0.14767
       6     H     0.40943  0.40943  0.00000  0.18115
       7     C     3.19475  3.19475  0.00000 -0.38951
       8     H     0.41198  0.41198  0.00000  0.17604
       9     H     0.40422  0.40422  0.00000  0.19155
      10     H     0.41257  0.41257  0.00000  0.17485

   Total alpha = 16.00000, Total beta = 16.00000, Total charge =  0.00000
