  ==> Input File <==

--------------------------------------------------------------------------
set {
	reference rhf
	basis 6-31G*
}

set_num_threads( 4 )
memory 2 gb

molecule MOL {
0 1

H	 3.303027	 -0.411356	 0.000000
C	 2.242446	 -0.233621	 0.000000
C	 1.362551	 -1.309095	 -0.000000
C	 1.762153	 1.065339	 -0.000000
H	 1.743084	 -2.314441	 -0.000000
C	 -0.000085	 -1.084403	 -0.000000
H	 2.445816	 1.894706	 0.000000
C	 0.394911	 1.289429	 0.000000
H	 -0.696698	 -1.901643	 -0.000000
C	 -0.488460	 0.219100	 0.000000
H	 0.015459	 2.296883	 0.000000
C	 -1.949954	 0.470334	 0.000000
O	 -2.781584	 -0.381627	 0.000000
H	 -2.238022	 1.526388	 0.000000

	symmetry c1
}
set optking {
	frozen_dihedral = ("
		8 10 12 14
	")
}

ee = optimize('scf')
oeprop('DIPOLE', 'QUADRUPOLE', 'MULLIKEN_CHARGES')
f=open( 'psi4out.xyz', 'w' )
f.write( "14  " )
f.write( str(ee) + "\n" )
f.write( MOL.save_string_xyz() )
f.close()
--------------------------------------------------------------------------

    Molecular point group: c1
  Charge       = 0
  Multiplicity = 1
  Basis Set: 6-31G*
  Basis Set:

    Orbital Energies (a.u.)
    -----------------------

    Doubly Occupied:

       1A    -20.561793     2A    -11.331145     3A    -11.254349
       4A    -11.251553     5A    -11.247553     6A    -11.245687
       7A    -11.245169     8A    -11.243257     9A     -1.402519
      10A     -1.171237    11A     -1.047342    12A     -1.031602
      13A     -0.889393    14A     -0.844040    15A     -0.790640
      16A     -0.720809    17A     -0.677786    18A     -0.651434
      19A     -0.619097    20A     -0.614551    21A     -0.602323
      22A     -0.555462    23A     -0.526147    24A     -0.506555
      25A     -0.501133    26A     -0.421518    27A     -0.350180
      28A     -0.346747

  @DF-RHF Final Energy:  -343.43295337148396

   => Energetics <=

    Nuclear Repulsion Energy =            323.2326389781947569
    One-Electron Energy =               -1106.0291415150181820
    Two-Electron Energy =                 439.3635491653395775
    DFT Exchange-Correlation Energy =       0.0000000000000000
    Empirical Dispersion Energy =           0.0000000000000000
    PCM Polarization Energy =               0.0000000000000000
    EFP Energy =                            0.0000000000000000
    Total Energy =                       -343.4329533714839044
    Molecular point group: c1
  Basis Set: 6-31G*
  Basis Set:

  -Total Gradient:
     Atom            X                  Y                   Z
    ------   -----------------  -----------------  -----------------
       1       -0.000026238900    -0.000015990121     0.000000000000
       2       -0.000066637075    -0.000240949142     0.000000000000
       3        0.000270074518     0.000065956205    -0.000000000000
       4       -0.000233598309     0.000108121028    -0.000000000000
       5        0.000010361005    -0.000012794168     0.000000000000
       6       -0.000104262633     0.000241618966     0.000000000000
       7        0.000009159811    -0.000009323036     0.000000000000
       8        0.000199738979     0.000109132967    -0.000000000000
       9       -0.000007957744    -0.000058237557    -0.000000000000
      10       -0.000056880426    -0.000155020254    -0.000000000000
      11       -0.000023799613    -0.000066116014     0.000000000000
      12        0.000011715218     0.000052147518     0.000000000000
      13       -0.000005297462    -0.000072099480    -0.000000000000
      14        0.000023622642     0.000053553088    -0.000000000000

  **** Optimization is complete! (in 1 steps) ****
    Final optimized geometry and variables:
    Molecular point group: c1

    Geometry (in Angstrom), charge = 0, multiplicity = 1:

    H            3.303027069115    -0.411355766182     0.000000000000
    C            2.242446069115    -0.233620766182     0.000000000000
    C            1.362551069115    -1.309094766182     0.000000000000
    C            1.762153069115     1.065339233818     0.000000000000
    H            1.743084069115    -2.314440766182     0.000000000000
    C           -0.000084930885    -1.084402766182     0.000000000000
    H            2.445816069115     1.894706233818     0.000000000000
    C            0.394911069115     1.289429233818     0.000000000000
    H           -0.696697930885    -1.901642766182     0.000000000000
    C           -0.488459930885     0.219100233818     0.000000000000
    H            0.015459069115     2.296883233818     0.000000000000
    C           -1.949953930885     0.470334233818     0.000000000000
    O           -2.781583930885    -0.381626766182     0.000000000000
    H           -2.238021930885     1.526388233818     0.000000000000

  Mulliken Charges: (a.u.)
   Center  Symbol    Alpha    Beta     Spin     Total
       1     H     0.39408  0.39408  0.00000  0.21184
       2     C     3.09105  3.09105  0.00000 -0.18210
       3     C     3.10436  3.10436  0.00000 -0.20872
       4     C     3.10459  3.10459  0.00000 -0.20917
       5     H     0.39390  0.39390  0.00000  0.21219
       6     C     3.08762  3.08762  0.00000 -0.17524
       7     H     0.39465  0.39465  0.00000  0.21069
       8     C     3.10199  3.10199  0.00000 -0.20398
       9     H     0.37714  0.37714  0.00000  0.24571
      10     C     3.05397  3.05397  0.00000 -0.10794
      11     H     0.39239  0.39239  0.00000  0.21522
      12     C     2.83197  2.83197  0.00000  0.33606
      13     O     4.24907  4.24907  0.00000 -0.49814
      14     H     0.42321  0.42321  0.00000  0.15358

   Total alpha = 28.00000, Total beta = 28.00000, Total charge = -0.00000
