  ==> Input File <==

--------------------------------------------------------------------------
set {
	reference rhf
	basis cc-pvtz
}

set_num_threads( 4 )
memory 2 gb

molecule MOL {
0 1

H	 2.699791	 -0.976740	 -0.137153
N	 2.326826	 -0.066186	 0.000000
C	 0.934676	 -0.005420	 0.000000
H	 2.759356	 0.387906	 0.770546
C	 0.226436	 -0.001077	 -1.195129
C	 0.226436	 -0.001077	 1.195129
H	 0.759091	 -0.011439	 -2.128123
C	 -1.153391	 0.009141	 -1.189028
H	 0.759091	 -0.011439	 2.128123
C	 -1.153391	 0.009141	 1.189028
H	 -1.680905	 0.012964	 -2.124348
C	 -1.857876	 0.014675	 0.000000
H	 -1.680905	 0.012964	 2.124348
H	 -2.930222	 0.022904	 0.000000

	symmetry c1
}
set optking {
	frozen_dihedral = ("
		1 2 3 5
	")
}

ee = optimize('scf')
oeprop('DIPOLE', 'QUADRUPOLE', 'MULLIKEN_CHARGES')
f=open( 'psi4out.xyz', 'w' )
f.write( "14  " )
f.write( str(ee) + "\n" )
f.write( MOL.save_string_xyz() )
f.close()
--------------------------------------------------------------------------

    Molecular point group: c1
  Charge       = 0
  Multiplicity = 1
  Basis Set: CC-PVTZ
  Basis Set:
  @DF-RHF Final Energy:  -285.82759972166326
    Total Energy =                       -285.8275997216633186
    Molecular point group: c1
  Basis Set: CC-PVTZ
  Basis Set:
  Basis Set: CC-PVTZ
  Basis Set:
  @DF-RHF Final Energy:  -285.82936548996423
    Total Energy =                       -285.8293654899644594
  Basis Set: CC-PVTZ
  Basis Set:
  Basis Set: CC-PVTZ
  Basis Set:
  @DF-RHF Final Energy:  -285.82965961530584
    Total Energy =                       -285.8296596153058999
  Basis Set: CC-PVTZ
  Basis Set:
  Basis Set: CC-PVTZ
  Basis Set:
  @DF-RHF Final Energy:  -285.82967875302950
    Total Energy =                       -285.8296787530296115
  Basis Set: CC-PVTZ
  Basis Set:
  Charge       = 0
  Multiplicity = 1
  Basis Set: CC-PVTZ
  Basis Set:

    Orbital Energies (a.u.)
    -----------------------

    Doubly Occupied:

       1A    -15.548816     2A    -11.264066     3A    -11.228443
       4A    -11.227354     5A    -11.221805     6A    -11.219676
       7A    -11.218195     8A     -1.216825     9A     -1.132136
      10A     -1.015494    11A     -0.989928    12A     -0.831963
      13A     -0.811768    14A     -0.706477    15A     -0.673609
      16A     -0.650180    17A     -0.618091    18A     -0.594559
      19A     -0.585011    20A     -0.514927    21A     -0.504785
      22A     -0.492693    23A     -0.433220    24A     -0.336701
      25A     -0.313952

  @DF-RHF Final Energy:  -285.82968056159473

   => Energetics <=

    Nuclear Repulsion Energy =            273.2420998107475043
    One-Electron Energy =                -927.4422052857167955
    Two-Electron Energy =                 368.3704249133744497
    DFT Exchange-Correlation Energy =       0.0000000000000000
    Empirical Dispersion Energy =           0.0000000000000000
    PCM Polarization Energy =               0.0000000000000000
    EFP Energy =                            0.0000000000000000
    Total Energy =                       -285.8296805615948415
    Molecular point group: c1
  Basis Set: CC-PVTZ
  Basis Set:

  -Total Gradient:
     Atom            X                  Y                   Z
    ------   -----------------  -----------------  -----------------
       1        0.000135828883    -0.000751859304     0.003428333709
       2       -0.000172358684     0.002181416922    -0.004340408853
       3       -0.000019124169    -0.004051810079     0.000523815878
       4        0.000020195631    -0.000006401026     0.000065710618
       5        0.000201072603     0.002660431970     0.000163109452
       6       -0.000175852947    -0.000029658046     0.000138952647
       7        0.000000718054     0.000006276900    -0.000020244269
       8       -0.000190606337    -0.000064401605     0.000146779809
       9        0.000004777014     0.000013701893    -0.000006977530
      10        0.000207708862    -0.000019192341     0.000107459726
      11        0.000022592198     0.000013080934     0.000006515440
      12       -0.000004023476     0.000051841846    -0.000228449218
      13       -0.000023109537    -0.000001191378    -0.000014445793
      14       -0.000007818097    -0.000002236687     0.000029848386

  **** Optimization is complete! (in 5 steps) ****
    Final optimized geometry and variables:
    Molecular point group: c1

    Geometry (in Angstrom), charge = 0, multiplicity = 1:

    H            2.726192027255    -0.903791917048    -0.225529056659
    N            2.346785518547     0.000315839657    -0.036052898798
    C            0.928393802275    -0.021727675636     0.001393293674
    H            2.726533617906     0.303640849496     0.834460705621
    C            0.225990238096    -0.007722022695    -1.194229558300
    C            0.221838597695     0.007288352812     1.192849207395
    H            0.771938525011     0.005261089057    -2.117862779803
    C           -1.154176618543    -0.001127386093    -1.194451672426
    H            0.753890732411     0.005005525583     2.126388160949
    C           -1.160595964427     0.037684184134     1.188911794599
    H           -1.682759615172     0.002399950246    -2.128886067755
    C           -1.856630878278     0.025591973376    -0.003181477278
    H           -1.691787417452     0.063650347299     2.121535386544
    H           -2.929328667735     0.043322338873    -0.005485171019

  Mulliken Charges: (a.u.)
   Center  Symbol    Alpha    Beta     Spin     Total
       1     H     0.42150  0.42150  0.00000  0.15700
       2     N     3.69041  3.69041  0.00000 -0.38081
       3     C     2.89342  2.89342  0.00000  0.21316
       4     H     0.42510  0.42510  0.00000  0.14980
       5     C     3.10817  3.10817  0.00000 -0.21634
       6     C     3.11347  3.11347  0.00000 -0.22694
       7     H     0.42173  0.42173  0.00000  0.15655
       8     C     3.06333  3.06333  0.00000 -0.12666
       9     H     0.43111  0.43111  0.00000  0.13777
      10     C     3.06846  3.06846  0.00000 -0.13692
      11     H     0.42360  0.42360  0.00000  0.15279
      12     C     3.09159  3.09159  0.00000 -0.18317
      13     H     0.42394  0.42394  0.00000  0.15212
      14     H     0.42418  0.42418  0.00000  0.15165

   Total alpha = 25.00000, Total beta = 25.00000, Total charge = -0.00000
