  ==> Input File <==

--------------------------------------------------------------------------
set {
	reference rhf
	basis cc-pvtz
}

set_num_threads( 4 )
memory 2 gb

molecule MOL {
0 1

H	 2.527441	 2.217142	 -0.914757
N	 1.757596	 1.585634	 -0.979200
C	 1.860978	 0.530248	 0.016256
H	 1.764559	 1.206105	 -1.902919
C	 0.644130	 -0.381765	 -0.031064
H	 1.918116	 1.000011	 0.992455
H	 2.764426	 -0.070877	 -0.095032
C	 -0.678115	 0.376691	 0.025731
H	 0.693998	 -0.977147	 -0.936845
H	 0.693309	 -1.082142	 0.800523
C	 -1.900706	 -0.535531	 -0.022488
H	 -0.725296	 1.079516	 -0.802982
H	 -0.715474	 0.974884	 0.933278
C	 -3.220513	 0.226854	 0.028039
H	 -1.865036	 -1.134397	 -0.928236
H	 -1.857948	 -1.236381	 0.806820
H	 -3.309098	 0.911849	 -0.808725
H	 -4.066838	 -0.449485	 -0.008086
H	 -3.301685	 0.809374	 0.939860

	symmetry c1
}
set optking {
	frozen_dihedral = ("
		6 3 5 9
	")
}

ee = optimize('scf')
oeprop('DIPOLE', 'QUADRUPOLE', 'MULLIKEN_CHARGES')
f=open( 'psi4out.xyz', 'w' )
f.write( "19  " )
f.write( str(ee) + "\n" )
f.write( MOL.save_string_xyz() )
f.close()
--------------------------------------------------------------------------

    Molecular point group: c1
  Charge       = 0
  Multiplicity = 1
  Basis Set: CC-PVTZ
  Basis Set:
  @DF-RHF Final Energy:  -251.44627897642138
    Total Energy =                       -251.4462789764211266
    Molecular point group: c1
  Basis Set: CC-PVTZ
  Basis Set:
  Basis Set: CC-PVTZ
  Basis Set:
  @DF-RHF Final Energy:  -251.44674949985367
    Total Energy =                       -251.4467494998538086
  Basis Set: CC-PVTZ
  Basis Set:
  Basis Set: CC-PVTZ
  Basis Set:
  @DF-RHF Final Energy:  -251.44697025357448
    Total Energy =                       -251.4469702535743068
  Basis Set: CC-PVTZ
  Basis Set:
  Basis Set: CC-PVTZ
  Basis Set:
  @DF-RHF Final Energy:  -251.44697692781898
    Total Energy =                       -251.4469769278188664
  Basis Set: CC-PVTZ
  Basis Set:
  Charge       = 0
  Multiplicity = 1
  Basis Set: CC-PVTZ
  Basis Set:

    Orbital Energies (a.u.)
    -----------------------

    Doubly Occupied:

       1A    -15.527391     2A    -11.239014     3A    -11.208867
       4A    -11.207361     5A    -11.201381     6A    -11.201338
       7A     -1.179219     8A     -1.068159     9A     -0.996574
      10A     -0.903549    11A     -0.811815    12A     -0.780512
      13A     -0.668019    14A     -0.632710    15A     -0.621784
      16A     -0.586026    17A     -0.564083    18A     -0.548109
      19A     -0.530117    20A     -0.493726    21A     -0.478756
      22A     -0.463103    23A     -0.455448    24A     -0.449192
      25A     -0.381894

  @DF-RHF Final Energy:  -251.44697728474890

   => Energetics <=

    Nuclear Repulsion Energy =            249.4666115142123033
    One-Electron Energy =                -833.4308923219093685
    Two-Electron Energy =                 332.5173035229480547
    DFT Exchange-Correlation Energy =       0.0000000000000000
    Empirical Dispersion Energy =           0.0000000000000000
    PCM Polarization Energy =               0.0000000000000000
    EFP Energy =                            0.0000000000000000
    Total Energy =                       -251.4469772847489821
    Molecular point group: c1
  Basis Set: CC-PVTZ
  Basis Set:

  -Total Gradient:
     Atom            X                  Y                   Z
    ------   -----------------  -----------------  -----------------
       1        0.000010017151    -0.000004196830    -0.000008681289
       2       -0.000018232573     0.000010739423     0.000010325717
       3       -0.001527223721     0.002168287822    -0.000861103630
       4       -0.000002788339    -0.000002960525    -0.000010255227
       5       -0.001302131753     0.001970798752    -0.001531913284
       6        0.001487834014    -0.002161918545     0.000979805356
       7        0.000003000726     0.000010627984    -0.000003437332
       8        0.000008423458    -0.000002846468     0.000018677742
       9        0.001361270151    -0.002005777732     0.001405676708
      10       -0.000007702167     0.000002118472    -0.000000095264
      11       -0.000006834924    -0.000000768940     0.000013066683
      12        0.000001005633     0.000006641507    -0.000006479024
      13       -0.000014027520     0.000002826602    -0.000001683835
      14       -0.000000487783    -0.000001374482    -0.000003700599
      15        0.000006439261     0.000004913751     0.000002072354
      16       -0.000000728670     0.000003005481     0.000001078667
      17       -0.000000144071     0.000002188427    -0.000000966818
      18        0.000001569029     0.000000656378    -0.000003575515
      19        0.000000742096    -0.000002961081     0.000001188592

  **** Optimization is complete! (in 5 steps) ****
    Final optimized geometry and variables:
    Molecular point group: c1

    Geometry (in Angstrom), charge = 0, multiplicity = 1:

    H            2.873671334822     1.866320311966    -0.710574952828
    N            2.087023398732     1.262008003593    -0.816897071605
    C            2.090130950098     0.219024518479     0.196345040501
    H            2.140858564490     0.867075280728    -1.732977167791
    C            0.854114736112    -0.670888506649     0.118798044658
    H            2.131878852322     0.688618877298     1.173632889984
    H            2.971363011736    -0.420550679908     0.134636078354
    C           -0.477603004366     0.069058743940     0.189138044864
    H            0.904222203829    -1.275439494206    -0.785240767496
    H            0.912955370161    -1.381277483721     0.940080390338
    C           -1.681624451283    -0.868597387314     0.167382479240
    H           -0.547633372247     0.771588699435    -0.632328917405
    H           -0.503519720690     0.665656779249     1.098398344429
    C           -3.014630948854    -0.131021403838     0.238302945633
    H           -1.652308586571    -1.469815546693    -0.737757036810
    H           -1.613034771231    -1.566995495934     0.997449585710
    H           -3.128818929073     0.550524286574    -0.598019966916
    H           -3.849358964680    -0.822620432281     0.218188978683
    H           -3.090492445348     0.452419811630     1.149950710757

  Mulliken Charges: (a.u.)
   Center  Symbol    Alpha    Beta     Spin     Total
       1     H     0.42913  0.42913  0.00000  0.14175
       2     N     3.68862  3.68862  0.00000 -0.37724
       3     C     3.03905  3.03905  0.00000 -0.07811
       4     H     0.43105  0.43105  0.00000  0.13791
       5     C     3.09787  3.09787  0.00000 -0.19574
       6     H     0.45589  0.45589  0.00000  0.08823
       7     H     0.46025  0.46025  0.00000  0.07950
       8     C     3.07709  3.07709  0.00000 -0.15418
       9     H     0.45560  0.45560  0.00000  0.08879
      10     H     0.45236  0.45236  0.00000  0.09528
      11     C     3.08411  3.08411  0.00000 -0.16822
      12     H     0.44778  0.44778  0.00000  0.10443
      13     H     0.45844  0.45844  0.00000  0.08312
      14     C     3.14961  3.14961  0.00000 -0.29921
      15     H     0.45638  0.45638  0.00000  0.08725
      16     H     0.45649  0.45649  0.00000  0.08702
      17     H     0.45498  0.45498  0.00000  0.09005
      18     H     0.44980  0.44980  0.00000  0.10040
      19     H     0.45552  0.45552  0.00000  0.08896

   Total alpha = 25.00000, Total beta = 25.00000, Total charge = -0.00000
