  ==> Input File <==

--------------------------------------------------------------------------
set {
	reference rhf
	basis 6-31G*
}

set_num_threads( 1 )
memory 2 gb

molecule MOL {
0 1

H	 -0.434924	 -0.255714	 -2.185323
C	 -0.671662	 -0.935574	 -1.369305
O	 -1.392607	 -0.295399	 -0.366433
H	 -1.286350	 -1.739312	 -1.750493
H	 0.258781	 -1.354867	 -0.988651
C	 -0.719715	 0.768384	 0.229244
C	 0.719720	 0.768376	 -0.229267
H	 -1.185038	 1.714362	 -0.050570
H	 -0.750528	 0.687237	 1.313896
O	 1.392611	 -0.295398	 0.366430
H	 0.750534	 0.687200	 -1.313918
H	 1.185043	 1.714359	 0.050526
C	 2.706965	 -0.449871	 -0.062409
H	 2.756559	 -0.644779	 -1.131878
H	 3.305899	 0.433456	 0.155466
H	 3.125548	 -1.294566	 0.467107

	symmetry c1
}
set optking {
	frozen_dihedral = ("
		3 6 7 11,
		7 10 13 14
	")
}

ee = energy('scf')
oeprop('DIPOLE', 'QUADRUPOLE', 'MULLIKEN_CHARGES')
f=open( 'psi4out.xyz', 'w' )
f.write( "16  " )
f.write( str(ee) + "\n" )
f.write( MOL.save_string_xyz() )
f.close()
--------------------------------------------------------------------------

    Molecular point group: c1

    Geometry (in Angstrom), charge = 0, multiplicity = 1:

       Center              X                  Y                   Z               Mass
    ------------   -----------------  -----------------  -----------------  -----------------
           H         -0.792539446117    -0.170367411125    -1.933766066044     1.007825032070
           C         -1.029277446117    -0.850227411125    -1.117748066044    12.000000000000
           O         -1.750222446117    -0.210052411125    -0.114876066044    15.994914619560
           H         -1.643965446117    -1.653965411125    -1.498936066044     1.007825032070
           H         -0.098834446117    -1.269520411125    -0.737094066044     1.007825032070
           C         -1.077330446117     0.853730588875     0.480800933956    12.000000000000
           C          0.362104553883     0.853722588875     0.022289933956    12.000000000000
           H         -1.542653446117     1.799708588875     0.200986933956     1.007825032070
           H         -1.108143446117     0.772583588875     1.565452933956     1.007825032070
           O          1.034995553883    -0.210051411125     0.617986933956    15.994914619560
           H          0.392918553883     0.772546588875    -1.062361066044     1.007825032070
           H          0.827427553883     1.799705588875     0.302082933956     1.007825032070
           C          2.349349553883    -0.364524411125     0.189147933956    12.000000000000
           H          2.398943553883    -0.559432411125    -0.880321066044     1.007825032070
           H          2.948283553883     0.518802588875     0.407022933956     1.007825032070
           H          2.767932553883    -1.209219411125     0.718663933956     1.007825032070

  Charge       = 0
  Multiplicity = 1
  Basis Set: 6-31G*
  Basis Set:

    Orbital Energies (a.u.)
    -----------------------

    Doubly Occupied:

       1A    -20.566444     2A    -20.547947     3A    -11.274273
       4A    -11.272505     5A    -11.268095     6A    -11.252357
       7A     -1.401058     8A     -1.370946     9A     -1.027621
      10A     -0.954876    11A     -0.905893    12A     -0.807714
      13A     -0.712229    14A     -0.690920    15A     -0.658507
      16A     -0.636665    17A     -0.620380    18A     -0.592754
      19A     -0.555004    20A     -0.541063    21A     -0.522999
      22A     -0.498239    23A     -0.444925    24A     -0.430144
      25A     -0.399854

  @DF-RHF Final Energy:  -306.95068334780325

   => Energetics <=

    Nuclear Repulsion Energy =            272.0381100487381332
    One-Electron Energy =                -958.0707288441972196
    Two-Electron Energy =                 379.0819354476557237
    DFT Exchange-Correlation Energy =       0.0000000000000000
    Empirical Dispersion Energy =           0.0000000000000000
    PCM Polarization Energy =               0.0000000000000000
    EFP Energy =                            0.0000000000000000
    Total Energy =                       -306.9506833478033059

  Mulliken Charges: (a.u.)
   Center  Symbol    Alpha    Beta     Spin     Total
       1     H     0.43223  0.43223  0.00000  0.13555
       2     C     3.10158  3.10158  0.00000 -0.20316
       3     O     4.30765  4.30765  0.00000 -0.61531
       4     H     0.41105  0.41105  0.00000  0.17790
       5     H     0.40424  0.40424  0.00000  0.19152
       6     C     2.97551  2.97551  0.00000  0.04897
       7     C     3.03625  3.03625  0.00000 -0.07250
       8     H     0.42699  0.42699  0.00000  0.14602
       9     H     0.41349  0.41349  0.00000  0.17302
      10     O     4.30091  4.30091  0.00000 -0.60183
      11     H     0.42119  0.42119  0.00000  0.15763
      12     H     0.42093  0.42093  0.00000  0.15813
      13     C     3.08271  3.08271  0.00000 -0.16542
      14     H     0.43031  0.43031  0.00000  0.13939
      15     H     0.42630  0.42630  0.00000  0.14739
      16     H     0.40866  0.40866  0.00000  0.18268

   Total alpha = 25.00000, Total beta = 25.00000, Total charge =  0.00000
