  ==> Input File <==

--------------------------------------------------------------------------
set {
	reference rhf
	basis 6-31G*
}

set_num_threads( 1 )
memory 2 gb

molecule MOL {
0 1

O	 3.225979	 0.970355	 -0.599647
C	 2.701189	 0.057885	 -0.047330
C	 1.245376	 -0.013843	 0.345420
O	 3.347903	 -1.046386	 0.304773
C	 0.796012	 -1.422268	 0.728211
H	 1.098787	 0.693943	 1.154581
H	 0.665859	 0.367766	 -0.491379
C	 -0.702851	 -1.531712	 1.028088
H	 1.368537	 -1.760455	 1.586677
H	 1.046157	 -2.097391	 -0.082997
C	 -1.169069	 -0.771800	 2.273193
H	 -0.945406	 -2.584511	 1.152603
H	 -1.271312	 -1.191728	 0.163639
C	 -2.647916	 -1.001507	 2.591385
H	 -0.565912	 -1.078763	 3.126301
H	 -0.998797	 0.294962	 2.146707
C	 -3.126209	 -0.242857	 3.830666
H	 -2.824287	 -2.066471	 2.732729
H	 -3.250911	 -0.704774	 1.734621
C	 -4.603080	 -0.480659	 4.143723
H	 -2.524043	 -0.537441	 4.687555
H	 -2.954743	 0.822249	 3.689494
H	 -4.912054	 0.070086	 5.026798
H	 -4.800879	 -1.533439	 4.324619
H	 -5.234757	 -0.163816	 3.318575
C	 4.728119	 -1.109107	 -0.004993
H	 4.882018	 -1.033965	 -1.071845
H	 5.068212	 -2.067527	 0.355250
H	 5.265056	 -0.311663	 0.488280

	symmetry c1
}
set optking {
	frozen_dihedral = ("
		21 17 14 11,
		17 14 11 15,
		15 11 8 5,
		6 3 5 9,
		11 8 5 9,
		2 4 26 27,
		1 2 4 26
	")
}

ee = energy('scf')
oeprop('DIPOLE', 'QUADRUPOLE', 'MULLIKEN_CHARGES')
f=open( 'psi4out.xyz', 'w' )
f.write( "29  " )
f.write( str(ee) + "\n" )
f.write( MOL.save_string_xyz() )
f.close()
--------------------------------------------------------------------------

    Molecular point group: c1

    Geometry (in Angstrom), charge = 0, multiplicity = 1:

       Center              X                  Y                   Z               Mass
    ------------   -----------------  -----------------  -----------------  -----------------
           O          2.841272782879     1.567367059457    -1.916611305457    15.994914619560
           C          2.316482782879     0.654897059457    -1.364294305457    12.000000000000
           C          0.860669782879     0.583169059457    -0.971544305457    12.000000000000
           O          2.963196782879    -0.449373940543    -1.012191305457    15.994914619560
           C          0.411305782879    -0.825255940543    -0.588753305457    12.000000000000
           H          0.714080782879     1.290955059457    -0.162383305457     1.007825032070
           H          0.281152782879     0.964778059457    -1.808343305457     1.007825032070
           C         -1.087557217121    -0.934699940543    -0.288876305457    12.000000000000
           H          0.983830782879    -1.163442940543     0.269712694543     1.007825032070
           H          0.661450782879    -1.500378940543    -1.399961305457     1.007825032070
           C         -1.553775217121    -0.174787940543     0.956228694543    12.000000000000
           H         -1.330112217121    -1.987498940543    -0.164361305457     1.007825032070
           H         -1.656018217121    -0.594715940543    -1.153325305457     1.007825032070
           C         -3.032622217121    -0.404494940543     1.274420694543    12.000000000000
           H         -0.950618217121    -0.481750940543     1.809336694543     1.007825032070
           H         -1.383503217121     0.891974059457     0.829742694543     1.007825032070
           C         -3.510915217121     0.354155059457     2.513701694543    12.000000000000
           H         -3.208993217121    -1.469458940543     1.415764694543     1.007825032070
           H         -3.635617217121    -0.107761940543     0.417656694543     1.007825032070
           C         -4.987786217121     0.116353059457     2.826758694543    12.000000000000
           H         -2.908749217121     0.059571059457     3.370590694543     1.007825032070
           H         -3.339449217121     1.419261059457     2.372529694543     1.007825032070
           H         -5.296760217121     0.667098059457     3.709833694543     1.007825032070
           H         -5.185585217121    -0.936426940543     3.007654694543     1.007825032070
           H         -5.619463217121     0.433196059457     2.001610694543     1.007825032070
           C          4.343412782879    -0.512094940543    -1.321957305457    12.000000000000
           H          4.497311782879    -0.436952940543    -2.388809305457     1.007825032070
           H          4.683505782879    -1.470514940543    -0.961714305457     1.007825032070
           H          4.880349782879     0.285349059457    -0.828684305457     1.007825032070

  Charge       = 0
  Multiplicity = 1
  Basis Set: 6-31G*
  Basis Set:

    Orbital Energies (a.u.)
    -----------------------

    Doubly Occupied:

       1A    -20.604861     2A    -20.542187     3A    -11.372268
       4A    -11.280977     5A    -11.234651     6A    -11.221159
       7A    -11.218541     8A    -11.216980     9A    -11.216353
      10A    -11.215185    11A    -11.209448    12A     -1.469614
      13A     -1.361529    14A     -1.100318    15A     -1.069167
      16A     -1.019474    17A     -0.972152    18A     -0.931725
      19A     -0.864568    20A     -0.799411    21A     -0.790720
      22A     -0.772622    23A     -0.699010    24A     -0.683229
      25A     -0.670085    26A     -0.651673    27A     -0.628561
      28A     -0.604980    29A     -0.589685    30A     -0.577047
      31A     -0.567857    32A     -0.545650    33A     -0.537409
      34A     -0.530512    35A     -0.523484    36A     -0.513988
      37A     -0.499205    38A     -0.481298    39A     -0.471364
      40A     -0.463882    41A     -0.462704    42A     -0.454158
      43A     -0.443142    44A     -0.425340

  @DF-RHF Final Energy:  -501.04020016929837

   => Energetics <=

    Nuclear Repulsion Energy =            614.7804250018149332
    One-Electron Energy =               -1900.6249925687861833
    Two-Electron Energy =                 784.8043673976727632
    DFT Exchange-Correlation Energy =       0.0000000000000000
    Empirical Dispersion Energy =           0.0000000000000000
    PCM Polarization Energy =               0.0000000000000000
    EFP Energy =                            0.0000000000000000
    Total Energy =                       -501.0402001692986005

  Mulliken Charges: (a.u.)
   Center  Symbol    Alpha    Beta     Spin     Total
       1     O     4.28852  4.28852  0.00000 -0.57704
       2     C     2.60222  2.60222  0.00000  0.79557
       3     C     3.21570  3.21570  0.00000 -0.43140
       4     O     4.30485  4.30485  0.00000 -0.60970
       5     C     3.15255  3.15255  0.00000 -0.30511
       6     H     0.39682  0.39682  0.00000  0.20636
       7     H     0.39875  0.39875  0.00000  0.20250
       8     C     3.15616  3.15616  0.00000 -0.31231
       9     H     0.41160  0.41160  0.00000  0.17680
      10     H     0.41384  0.41384  0.00000  0.17232
      11     C     3.15522  3.15522  0.00000 -0.31045
      12     H     0.41918  0.41918  0.00000  0.16163
      13     H     0.42335  0.42335  0.00000  0.15329
      14     C     3.15030  3.15030  0.00000 -0.30061
      15     H     0.42311  0.42311  0.00000  0.15377
      16     H     0.42298  0.42298  0.00000  0.15403
      17     C     3.15154  3.15154  0.00000 -0.30308
      18     H     0.42364  0.42364  0.00000  0.15273
      19     H     0.42357  0.42357  0.00000  0.15285
      20     C     3.23940  3.23940  0.00000 -0.47879
      21     H     0.42301  0.42301  0.00000  0.15398
      22     H     0.42296  0.42296  0.00000  0.15407
      23     H     0.41907  0.41907  0.00000  0.16186
      24     H     0.42174  0.42174  0.00000  0.15652
      25     H     0.42161  0.42161  0.00000  0.15678
      26     C     3.09193  3.09193  0.00000 -0.18387
      27     H     0.40863  0.40863  0.00000  0.18274
      28     H     0.40893  0.40893  0.00000  0.18214
      29     H     0.40878  0.40878  0.00000  0.18243

   Total alpha = 44.00000, Total beta = 44.00000, Total charge =  0.00000
