  ==> Input File <==

--------------------------------------------------------------------------
set {
	reference rhf
	basis 6-31G*
}

set_num_threads( 4 )
memory 2 gb

molecule MOL {
0 1

H	 1.396590	 -1.006091	 2.171986
O	 0.713728	 -0.449292	 1.826495
C	 1.135793	 0.118896	 0.612333
C	 0.031547	 1.023609	 0.088541
H	 1.340072	 -0.658870	 -0.121316
H	 2.056827	 0.680046	 0.753433
C	 -1.134819	 0.293262	 -0.585751
H	 0.474374	 1.714721	 -0.623187
H	 -0.338529	 1.620940	 0.920081
C	 -1.917817	 -0.639439	 0.339494
H	 -0.758119	 -0.268455	 -1.433105
H	 -1.813832	 1.041889	 -0.986690
H	 -2.777680	 -1.057197	 -0.174994
H	 -1.310268	 -1.471279	 0.680599
H	 -2.283753	 -0.111424	 1.216626

	symmetry c1
}
set optking {
	frozen_dihedral = ("
		2 3 4 8
	")
}

ee = optimize('scf')
oeprop('DIPOLE', 'QUADRUPOLE', 'MULLIKEN_CHARGES')
f=open( 'psi4out.xyz', 'w' )
f.write( "15  " )
f.write( str(ee) + "\n" )
f.write( MOL.save_string_xyz() )
f.close()
--------------------------------------------------------------------------

    Molecular point group: c1
  Charge       = 0
  Multiplicity = 1
  Basis Set: 6-31G*
  Basis Set:
  @DF-RHF Final Energy:  -232.14183498916753
    Total Energy =                       -232.1418349891674779
    Molecular point group: c1
  Basis Set: 6-31G*
  Basis Set:
  Basis Set: 6-31G*
  Basis Set:
  @DF-RHF Final Energy:  -232.14219496704007
    Total Energy =                       -232.1421949670400409
  Basis Set: 6-31G*
  Basis Set:
  Basis Set: 6-31G*
  Basis Set:
  @DF-RHF Final Energy:  -232.14226017483790
    Total Energy =                       -232.1422601748379293
  Basis Set: 6-31G*
  Basis Set:
  Basis Set: 6-31G*
  Basis Set:
  @DF-RHF Final Energy:  -232.14226998321413
    Total Energy =                       -232.1422699832140779
  Basis Set: 6-31G*
  Basis Set:
  Basis Set: 6-31G*
  Basis Set:
  @DF-RHF Final Energy:  -232.14227820738722
    Total Energy =                       -232.1422782073872781
  Basis Set: 6-31G*
  Basis Set:
  Charge       = 0
  Multiplicity = 1
  Basis Set: 6-31G*
  Basis Set:

    Orbital Energies (a.u.)
    -----------------------

    Doubly Occupied:

       1A    -20.553767     2A    -11.268824     3A    -11.213019
       4A    -11.211942     5A    -11.195980     6A     -1.360260
       7A     -1.062577     8A     -0.969488     9A     -0.862644
      10A     -0.779034    11A     -0.702871    12A     -0.646498
      13A     -0.604684    14A     -0.575730    15A     -0.550907
      16A     -0.538540    17A     -0.505759    18A     -0.471838
      19A     -0.467150    20A     -0.453326    21A     -0.426789

  @DF-RHF Final Energy:  -232.14227843617138

   => Energetics <=

    Nuclear Repulsion Energy =            192.2444990358714278
    One-Electron Energy =                -695.9303021400885427
    Two-Electron Energy =                 271.5435246680456203
    DFT Exchange-Correlation Energy =       0.0000000000000000
    Empirical Dispersion Energy =           0.0000000000000000
    PCM Polarization Energy =               0.0000000000000000
    EFP Energy =                            0.0000000000000000
    Total Energy =                       -232.1422784361715230
    Molecular point group: c1
  Basis Set: 6-31G*
  Basis Set:

  -Total Gradient:
     Atom            X                  Y                   Z
    ------   -----------------  -----------------  -----------------
       1       -0.000004265120     0.000005224074    -0.000006735391
       2        0.000341363692     0.000790280819     0.000525594301
       3       -0.000428749585    -0.000860836807    -0.000500581328
       4       -0.000158997632    -0.000763376662    -0.001004776728
       5        0.000005431214     0.000005260359    -0.000022276866
       6       -0.000027028041    -0.000005295888    -0.000000409962
       7        0.000064048819    -0.000003521175    -0.000004628676
       8        0.000189282305     0.000819265343     0.000944329209
       9       -0.000015266366    -0.000001706278     0.000018999824
      10       -0.000005829611     0.000037107642    -0.000002147154
      11       -0.000002120142    -0.000004407377     0.000032462154
      12        0.000024634300     0.000023041062     0.000001360307
      13        0.000015655582    -0.000004925525     0.000008751732
      14        0.000001335687    -0.000034802865     0.000007964044
      15        0.000000504899    -0.000001306724     0.000002094530

  **** Optimization is complete! (in 6 steps) ****
    Final optimized geometry and variables:
    Molecular point group: c1

    Geometry (in Angstrom), charge = 0, multiplicity = 1:

    H            1.683642414230    -1.077858235867     1.615470681373
    O            0.982632527716    -0.518070557260     1.313085095462
    C            1.359752899084     0.098230193611     0.106754540993
    C            0.220885504214     0.976395906581    -0.393917571095
    H            1.615924686854    -0.648384692135    -0.644042817908
    H            2.242554238416     0.714150238134     0.267807754343
    C           -0.936909357565     0.241693727492    -1.079471361586
    H            0.642642560153     1.694523700206    -1.093849438319
    H           -0.150033988941     1.552801340397     0.449667282595
    C           -1.778455513581    -0.647632237189    -0.162785696659
    H           -0.541960517546    -0.353934169407    -1.900707138999
    H           -1.584568878627     0.987390895131    -1.534659267409
    H           -2.608183770238    -1.081592119566    -0.713496874044
    H           -1.193907443971    -1.452938614855     0.262487792039
    H           -2.190206938515    -0.073951226717     0.662251656326

  Mulliken Charges: (a.u.)
   Center  Symbol    Alpha    Beta     Spin     Total
       1     H     0.28107  0.28107  0.00000  0.43786
       2     O     4.36851  4.36851  0.00000 -0.73702
       3     C     2.99708  2.99708  0.00000  0.00583
       4     C     3.16145  3.16145  0.00000 -0.32290
       5     H     0.43236  0.43236  0.00000  0.13529
       6     H     0.42940  0.42940  0.00000  0.14121
       7     C     3.15415  3.15415  0.00000 -0.30830
       8     H     0.42217  0.42217  0.00000  0.15567
       9     H     0.41256  0.41256  0.00000  0.17488
      10     C     3.23566  3.23566  0.00000 -0.47133
      11     H     0.42610  0.42610  0.00000  0.14780
      12     H     0.42189  0.42189  0.00000  0.15622
      13     H     0.42593  0.42593  0.00000  0.14813
      14     H     0.41011  0.41011  0.00000  0.17978
      15     H     0.42156  0.42156  0.00000  0.15687

   Total alpha = 21.00000, Total beta = 21.00000, Total charge = -0.00000
