  ==> Input File <==

--------------------------------------------------------------------------
set {
	reference rhf
	basis cc-pvtz
}

set_num_threads( 4 )
memory 2 gb

molecule MOL {
0 1

H	 -2.698799	 -0.000846	 0.036018
C	 -1.694291	 -0.000483	 0.434279
O	 -0.828718	 -0.000608	 -0.655022
H	 -1.576855	 0.881100	 1.056504
H	 -1.576401	 -0.881658	 1.057001
C	 -0.574230	 1.212295	 -1.319838
C	 -1.819918	 1.789293	 -1.982866
C	 0.132842	 2.229843	 -0.431640
H	 0.114142	 0.924588	 -2.104687
H	 -2.317531	 1.030902	 -2.574713
H	 -1.542000	 2.605456	 -2.639665
H	 -2.526306	 2.178982	 -1.259166
H	 0.989500	 1.777007	 0.052219
H	 0.481663	 3.062094	 -1.032019
H	 -0.521696	 2.631128	 0.333272

	symmetry c1
}
set optking {
	frozen_dihedral = ("
		6 3 2 1
	")
}

ee = optimize('scf')
oeprop('DIPOLE', 'QUADRUPOLE', 'MULLIKEN_CHARGES')
f=open( 'psi4out.xyz', 'w' )
f.write( "15  " )
f.write( str(ee) + "\n" )
f.write( MOL.save_string_xyz() )
f.close()
--------------------------------------------------------------------------

    Molecular point group: c1
  Charge       = 0
  Multiplicity = 1
  Basis Set: CC-PVTZ
  Basis Set:
  @DF-RHF Final Energy:  -232.22358480909014
    Total Energy =                       -232.2235848090900845
    Molecular point group: c1
  Basis Set: CC-PVTZ
  Basis Set:
  Basis Set: CC-PVTZ
  Basis Set:
  @DF-RHF Final Energy:  -232.22539908878983
    Total Energy =                       -232.2253990887899135
  Basis Set: CC-PVTZ
  Basis Set:
  Basis Set: CC-PVTZ
  Basis Set:
  @DF-RHF Final Energy:  -232.22579418080130
    Total Energy =                       -232.2257941808013015
  Basis Set: CC-PVTZ
  Basis Set:
  Basis Set: CC-PVTZ
  Basis Set:
  @DF-RHF Final Energy:  -232.22580270059831
    Total Energy =                       -232.2258027005980807
  Basis Set: CC-PVTZ
  Basis Set:
  Basis Set: CC-PVTZ
  Basis Set:
  @DF-RHF Final Energy:  -232.22580842788614
    Total Energy =                       -232.2258084278862498
  Basis Set: CC-PVTZ
  Basis Set:
  Charge       = 0
  Multiplicity = 1
  Basis Set: CC-PVTZ
  Basis Set:

    Orbital Energies (a.u.)
    -----------------------

    Doubly Occupied:

       1A    -20.541361     2A    -11.272718     3A    -11.258750
       4A    -11.209414     5A    -11.207952     6A     -1.373183
       7A     -1.051395     8A     -0.940705     9A     -0.931209
      10A     -0.781528    11A     -0.676270    12A     -0.642251
      13A     -0.634574    14A     -0.572948    15A     -0.564489
      16A     -0.552868    17A     -0.535018    18A     -0.499653
      19A     -0.497476    20A     -0.444699    21A     -0.408550

  @DF-RHF Final Energy:  -232.22580918023354

   => Energetics <=

    Nuclear Repulsion Energy =            199.0608297172091454
    One-Electron Energy =                -709.3792574002641231
    Two-Electron Energy =                 278.0926185028213240
    DFT Exchange-Correlation Energy =       0.0000000000000000
    Empirical Dispersion Energy =           0.0000000000000000
    PCM Polarization Energy =               0.0000000000000000
    EFP Energy =                            0.0000000000000000
    Total Energy =                       -232.2258091802336821
    Molecular point group: c1
  Basis Set: CC-PVTZ
  Basis Set:

  -Total Gradient:
     Atom            X                  Y                   Z
    ------   -----------------  -----------------  -----------------
       1        0.000115195531    -0.001303732991     0.000007666346
       2        0.000308165566     0.001779756083     0.000336676950
       3       -0.001224110681    -0.000679876646    -0.001119539572
       4        0.000008705846    -0.000035779016    -0.000069514724
       5       -0.000041490967    -0.000014281580     0.000044075167
       6        0.000820089586     0.000271203942     0.000733517165
       7       -0.000022214357    -0.000047331584     0.000067853356
       8        0.000019942131     0.000069151852    -0.000047857045
       9        0.000008796569    -0.000032810706     0.000012540926
      10       -0.000001485351    -0.000002419392     0.000000224273
      11        0.000029100479    -0.000029505969     0.000027331889
      12       -0.000036435516     0.000007913004     0.000009699015
      13       -0.000012117274    -0.000007978472    -0.000001363393
      14        0.000013607493     0.000023834281     0.000024896869
      15        0.000014250945     0.000001857192    -0.000026207222

  **** Optimization is complete! (in 6 steps) ****
    Final optimized geometry and variables:
    Molecular point group: c1

    Geometry (in Angstrom), charge = 0, multiplicity = 1:

    H           -1.792399597262    -1.117485721061     0.770263583122
    C           -0.784782544613    -1.038062205174     1.167290488976
    O            0.170736394104    -1.029590640127     0.154783672587
    H           -0.729143638076    -0.163989121163     1.806653820704
    H           -0.596127018146    -1.911738098911     1.775676918892
    C            0.407713674794     0.168587158456    -0.542320528474
    C           -0.852531152462     0.731426649570    -1.188657933181
    C            1.133616289034     1.200147393483     0.314433194904
    H            1.081312675318    -0.132144806134    -1.335149899180
    H           -1.348992567764    -0.030383489107    -1.777402661782
    H           -0.594698082906     1.553943938771    -1.845474601434
    H           -1.554116740392     1.106664441184    -0.452181003983
    H            2.005867458598     0.754666694323     0.776221366506
    H            1.460127006897     2.029292205463    -0.302990424998
    H            0.501321897139     1.605293776477     1.095687632016

  Mulliken Charges: (a.u.)
   Center  Symbol    Alpha    Beta     Spin     Total
       1     H     0.46612  0.46612  0.00000  0.06775
       2     C     3.04025  3.04025  0.00000 -0.08049
       3     O     4.18404  4.18404  0.00000 -0.36808
       4     H     0.47047  0.47047  0.00000  0.05906
       5     H     0.44277  0.44277  0.00000  0.11446
       6     C     2.93587  2.93587  0.00000  0.12826
       7     C     3.16050  3.16050  0.00000 -0.32101
       8     C     3.15374  3.15374  0.00000 -0.30748
       9     H     0.44689  0.44689  0.00000  0.10622
      10     H     0.44401  0.44401  0.00000  0.11198
      11     H     0.44824  0.44824  0.00000  0.10352
      12     H     0.45492  0.45492  0.00000  0.09016
      13     H     0.44464  0.44464  0.00000  0.11073
      14     H     0.45130  0.45130  0.00000  0.09739
      15     H     0.45624  0.45624  0.00000  0.08751

   Total alpha = 21.00000, Total beta = 21.00000, Total charge =  0.00000
