  ==> Input File <==

--------------------------------------------------------------------------
set {
	reference rhf
	basis 6-31G*
}

set_num_threads( 4 )
memory 2 gb

molecule MOL {
0 1

H	 -3.097850	 0.356285	 -1.578366
C	 -2.088712	 0.173564	 -1.256924
C	 -1.710181	 -1.084849	 -0.801583
C	 -1.148837	 1.183034	 -1.289433
H	 -2.429543	 -1.883788	 -0.769299
C	 -0.417129	 -1.322889	 -0.388604
H	 -1.423536	 2.162694	 -1.638563
C	 0.160195	 0.959186	 -0.876171
H	 -0.111463	 -2.289937	 -0.034736
C	 0.526822	 -0.298728	 -0.424156
H	 0.867890	 1.764450	 -0.913357
O	 1.765256	 -0.628444	 0.000000
C	 2.778419	 0.335181	 0.000000
H	 2.731280	 0.961222	 -0.884976
H	 3.711703	 -0.207767	 0.000000
H	 2.731280	 0.961222	 0.884976

	symmetry c1
}
set optking {
	frozen_dihedral = ("
		10 12 13 14
	")
}

ee = optimize('scf')
oeprop('DIPOLE', 'QUADRUPOLE', 'MULLIKEN_CHARGES')
f=open( 'psi4out.xyz', 'w' )
f.write( "16  " )
f.write( str(ee) + "\n" )
f.write( MOL.save_string_xyz() )
f.close()
--------------------------------------------------------------------------

    Molecular point group: c1
  Charge       = 0
  Multiplicity = 1
  Basis Set: 6-31G*
  Basis Set:
  @DF-RHF Final Energy:  -344.58070280978251
    Total Energy =                       -344.5807028097824514
    Molecular point group: c1
  Basis Set: 6-31G*
  Basis Set:
  Basis Set: 6-31G*
  Basis Set:
  @DF-RHF Final Energy:  -344.58115393389915
    Total Energy =                       -344.5811539338994294
  Basis Set: 6-31G*
  Basis Set:
  Basis Set: 6-31G*
  Basis Set:
  @DF-RHF Final Energy:  -344.58176631629277
    Total Energy =                       -344.5817663162925442
  Basis Set: 6-31G*
  Basis Set:
  Basis Set: 6-31G*
  Basis Set:
  @DF-RHF Final Energy:  -344.58182384067868
    Total Energy =                       -344.5818238406786804
  Basis Set: 6-31G*
  Basis Set:
  Basis Set: 6-31G*
  Basis Set:
  @DF-RHF Final Energy:  -344.58182788612669
    Total Energy =                       -344.5818278861264616
  Basis Set: 6-31G*
  Basis Set:
  Charge       = 0
  Multiplicity = 1
  Basis Set: 6-31G*
  Basis Set:

    Orbital Energies (a.u.)
    -----------------------

    Doubly Occupied:

       1A    -20.583424     2A    -11.293567     3A    -11.279619
       4A    -11.232944     5A    -11.231402     6A    -11.223949
       7A    -11.219657     8A    -11.219359     9A     -1.412442
      10A     -1.145819    11A     -1.021281    12A     -1.012772
      13A     -0.941032    14A     -0.830681    15A     -0.804694
      16A     -0.720943    17A     -0.663967    18A     -0.661609
      19A     -0.653971    20A     -0.616459    21A     -0.587346
      22A     -0.577353    23A     -0.524260    24A     -0.518494
      25A     -0.508611    26A     -0.477301    27A     -0.458586
      28A     -0.334558    29A     -0.305626

  @DF-RHF Final Energy:  -344.58182843423140

   => Energetics <=

    Nuclear Repulsion Energy =            348.0405022606745433
    One-Electron Energy =               -1157.1212112975476884
    Two-Electron Energy =                 464.4988806026418047
    DFT Exchange-Correlation Energy =       0.0000000000000000
    Empirical Dispersion Energy =           0.0000000000000000
    PCM Polarization Energy =               0.0000000000000000
    EFP Energy =                            0.0000000000000000
    Total Energy =                       -344.5818284342313405
    Molecular point group: c1
  Basis Set: 6-31G*
  Basis Set:

  -Total Gradient:
     Atom            X                  Y                   Z
    ------   -----------------  -----------------  -----------------
       1       -0.000006335377    -0.000015567260     0.000005644277
       2        0.000048095036     0.000098599926    -0.000039386288
       3        0.000070390321    -0.000080203980     0.000081585559
       4       -0.000102327315    -0.000027026710    -0.000000147388
       5       -0.000006058444     0.000002786648    -0.000010194392
       6       -0.000146800000    -0.000008159167    -0.000004814262
       7        0.000014172379     0.000000352130     0.000005127502
       8        0.000059122516    -0.000080918242     0.000075700615
       9        0.000007508709    -0.000003974366    -0.000002293984
      10        0.000553371638    -0.000998892190    -0.002014544684
      11        0.000022225795     0.000004004564    -0.000007607814
      12       -0.001108456333     0.002169210993     0.003007127152
      13        0.001995764121    -0.002972652379    -0.001870711216
      14       -0.001423833276     0.001949136425     0.000757947218
      15        0.000004233631    -0.000010153938     0.000002442714
      16        0.000018926594    -0.000026542454     0.000014124989

  **** Optimization is complete! (in 6 steps) ****
    Final optimized geometry and variables:
    Molecular point group: c1

    Geometry (in Angstrom), charge = 0, multiplicity = 1:

    H           -3.140507371855     0.394993361697    -1.096781369145
    C           -2.146041013136     0.230869630411    -0.723597363956
    C           -1.757611765088    -1.029626631750    -0.283617976886
    C           -1.236773976232     1.267886687131    -0.671228609048
    H           -2.454229310901    -1.848502479748    -0.316496422265
    C           -0.481875079764    -1.245390833335     0.192593453209
    H           -1.521976624557     2.251047023431    -1.001544756107
    C            0.051870263093     1.066963480439    -0.189567090018
    H           -0.167419038676    -2.214491138327     0.532844466807
    C            0.431728936332    -0.195426440919     0.238256800246
    H            0.734200978989     1.894149736595    -0.144971453271
    O            1.650856314900    -0.492507508211     0.737368854401
    C            2.727741008324     0.372645482439     0.509268029054
    H            2.715456701127     0.766655074803    -0.500405665989
    H            3.627342687901    -0.203666710088     0.666589538096
    H            2.713751312963     1.204807048230     1.206446946341

  Mulliken Charges: (a.u.)
   Center  Symbol    Alpha    Beta     Spin     Total
       1     H     0.40118  0.40118  0.00000  0.19764
       2     C     3.11178  3.11178  0.00000 -0.22357
       3     C     3.09214  3.09214  0.00000 -0.18428
       4     C     3.09131  3.09131  0.00000 -0.18262
       5     H     0.39876  0.39876  0.00000  0.20247
       6     C     3.12532  3.12532  0.00000 -0.25065
       7     H     0.39958  0.39958  0.00000  0.20083
       8     C     3.14278  3.14278  0.00000 -0.28555
       9     H     0.39300  0.39300  0.00000  0.21399
      10     C     2.78375  2.78375  0.00000  0.43251
      11     H     0.39744  0.39744  0.00000  0.20512
      12     O     4.32718  4.32718  0.00000 -0.65435
      13     C     3.09089  3.09089  0.00000 -0.18178
      14     H     0.41943  0.41943  0.00000  0.16115
      15     H     0.40566  0.40566  0.00000  0.18868
      16     H     0.41980  0.41980  0.00000  0.16040

   Total alpha = 29.00000, Total beta = 29.00000, Total charge =  0.00000
