                              Psi4 1.0.54 Driver

  ==> Input File <==

--------------------------------------------------------------------------
set {
	reference rhf
	basis cc-pvtz
}

set_num_threads( 4 )
memory 2 gb

molecule MOL {
0 1

H	 2.144945	 -1.159189	 -0.794566
C	 1.395113	 -1.282443	 -0.021443
N	 0.526300	 -0.128137	 0.000000
H	 1.911722	 -1.370861	 0.925836
H	 0.872173	 -2.221499	 -0.214526
C	 -0.247113	 0.037112	 -1.209233
H	 -0.081523	 -0.174647	 0.788700
H	 -0.996493	 -0.743733	 -1.271440
H	 0.397975	 -0.057351	 -2.073512
H	 -0.763794	 0.997171	 -1.271673

	symmetry c1
}
set optking {
	frozen_dihedral = ("
		2 3 6 8
	")
}

ee,wfn = optimize('scf', return_wfn=True)
oeprop( wfn, 'DIPOLE', 'QUADRUPOLE', 'MULLIKEN_CHARGES')
f=open( 'psi4out.xyz', 'w' )
f.write( "10  " )
f.write( str(ee) + "\n" )
f.write( MOL.save_string_xyz() )
f.close()
--------------------------------------------------------------------------

    Molecular point group: c1
  Charge       = 0
  Multiplicity = 1
  Basis Set: CC-PVTZ
  Basis Set:
  @DF-RHF Final Energy:  -134.29127012775217
    Total Energy =                       -134.2912701277521421
    Molecular point group: c1
  Basis Set: CC-PVTZ
  Basis Set:
  Basis Set: CC-PVTZ
  Basis Set:
  @DF-RHF Final Energy:  -134.29227119832422
    Total Energy =                       -134.2922711983241584
  Basis Set: CC-PVTZ
  Basis Set:
  Basis Set: CC-PVTZ
  Basis Set:
  @DF-RHF Final Energy:  -134.29248865463396
    Total Energy =                       -134.2924886546340133
  Basis Set: CC-PVTZ
  Basis Set:
  Basis Set: CC-PVTZ
  Basis Set:
  @DF-RHF Final Energy:  -134.29249166372159
    Total Energy =                       -134.2924916637215915
  Basis Set: CC-PVTZ
  Basis Set:
  Charge       = 0
  Multiplicity = 1
  Basis Set: CC-PVTZ
  Basis Set:

    Orbital Energies (a.u.)
    -----------------------

    Doubly Occupied:

       1A    -15.531545     2A    -11.234244     3A    -11.234123
       4A     -1.199939     5A     -0.948228     6A     -0.854905
       7A     -0.663155     8A     -0.611063     9A     -0.591787
      10A     -0.540297    11A     -0.512552    12A     -0.507275
      13A     -0.361931

  @DF-RHF Final Energy:  -134.29249205603355

   => Energetics <=

    Nuclear Repulsion Energy =             84.7054382148257616
    One-Electron Energy =                -348.4137713893405817
    Two-Electron Energy =                 129.4158411184812110
    DFT Exchange-Correlation Energy =       0.0000000000000000
    Empirical Dispersion Energy =           0.0000000000000000
    PCM Polarization Energy =               0.0000000000000000
    EFP Energy =                            0.0000000000000000
    Total Energy =                       -134.2924920560335806
    Molecular point group: c1
  Basis Set: CC-PVTZ
  Basis Set:

  -Total Gradient:
     Atom            X                  Y                   Z
    ------   -----------------  -----------------  -----------------
       1       -0.000011444933     0.000021382001    -0.000001222605
       2        0.001380240047     0.001039784312    -0.000733890793
       3       -0.002396257248    -0.001119361106     0.001414725195
       4        0.000000313571     0.000012300028     0.000010117526
       5       -0.000010394295     0.000015270354     0.000004744518
       6        0.002702574546    -0.001379636012    -0.001982357845
       7       -0.000001864037    -0.000007902460     0.000016987654
       8       -0.001669638135     0.001387759186     0.001243794971
       9        0.000014480529     0.000000369031     0.000016830691
      10       -0.000008010046     0.000030034666     0.000010270686

  **** Optimization is complete! (in 5 steps) ****
    Final optimized geometry and variables:
    Molecular point group: c1

    Geometry (in Angstrom), charge = 0, multiplicity = 1:

    H            1.632173229686    -0.615370414516    -0.359849713034
    C            0.878524959965    -0.772706810444     0.402862188373
    N           -0.039505970032     0.342693641243     0.412879985790
    H            1.385597268539    -0.837347139374     1.357288555023
    H            0.402781363082    -1.735913109520     0.205442511772
    C           -0.810758635116     0.481608823804    -0.801384169040
    H           -0.644019575025     0.289646020869     1.203219450044
    H           -1.557161869372    -0.302399502877    -0.942257325233
    H           -0.146195640589     0.474036568577    -1.656551204286
    H           -1.331147011520     1.431895947776    -0.798858465152

  Mulliken Charges: (a.u.)
   Center  Symbol    Alpha    Beta     Spin     Total
       1     H     0.45678  0.45678  0.00000  0.08644
       2     C     3.08019  3.08019  0.00000 -0.16037
       3     N     3.63057  3.63057  0.00000 -0.26113
       4     H     0.45262  0.45262  0.00000  0.09475
       5     H     0.47583  0.47583  0.00000  0.04834
       6     C     3.08209  3.08209  0.00000 -0.16417
       7     H     0.43996  0.43996  0.00000  0.12007
       8     H     0.47211  0.47211  0.00000  0.05577
       9     H     0.45768  0.45768  0.00000  0.08464
      10     H     0.45216  0.45216  0.00000  0.09567

   Total alpha = 13.00000, Total beta = 13.00000, Total charge =  0.00000

*** Psi4 exiting successfully. Buy a developer a beer!
