  ==> Input File <==

--------------------------------------------------------------------------
set {
	reference rhf
	basis 6-31G*
}

set_num_threads( 4 )
memory 2 gb

molecule MOL {
0 1

H	 0.976457	 -0.768781	 -1.106030
O	 1.654024	 -0.625927	 -0.460906
C	 1.135793	 0.118896	 0.612333
C	 0.031547	 1.023609	 0.088541
H	 1.915668	 0.729681	 1.063582
H	 0.754543	 -0.542641	 1.387006
C	 -1.134819	 0.293262	 -0.585751
H	 0.474374	 1.714721	 -0.623187
H	 -0.338529	 1.620940	 0.920081
C	 -1.917817	 -0.639439	 0.339494
H	 -0.758119	 -0.268455	 -1.433105
H	 -1.813832	 1.041889	 -0.986690
H	 -2.777680	 -1.057197	 -0.174994
H	 -1.310268	 -1.471279	 0.680599
H	 -2.283753	 -0.111424	 1.216626

	symmetry c1
}
set optking {
	frozen_dihedral = ("
		1 2 3 4
	")
}

ee = optimize('scf')
oeprop('DIPOLE', 'QUADRUPOLE', 'MULLIKEN_CHARGES')
f=open( 'psi4out.xyz', 'w' )
f.write( "15  " )
f.write( str(ee) + "\n" )
f.write( MOL.save_string_xyz() )
f.close()
--------------------------------------------------------------------------

    Molecular point group: c1
  Charge       = 0
  Multiplicity = 1
  Basis Set: 6-31G*
  Basis Set:
  @DF-RHF Final Energy:  -232.13820465861437
    Total Energy =                       -232.1382046586144270
    Molecular point group: c1
  Basis Set: 6-31G*
  Basis Set:
  Basis Set: 6-31G*
  Basis Set:
  @DF-RHF Final Energy:  -232.13985716687941
    Total Energy =                       -232.1398571668794375
  Basis Set: 6-31G*
  Basis Set:
  Basis Set: 6-31G*
  Basis Set:
  @DF-RHF Final Energy:  -232.14101962037691
    Total Energy =                       -232.1410196203765395
  Basis Set: 6-31G*
  Basis Set:
  Basis Set: 6-31G*
  Basis Set:
  @DF-RHF Final Energy:  -232.14102555878020
    Total Energy =                       -232.1410255587803704
  Basis Set: 6-31G*
  Basis Set:
  Basis Set: 6-31G*
  Basis Set:
  @DF-RHF Final Energy:  -232.14112380567519
    Total Energy =                       -232.1411238056751358
  Basis Set: 6-31G*
  Basis Set:
  Basis Set: 6-31G*
  Basis Set:
  @DF-RHF Final Energy:  -232.14113712209777
    Total Energy =                       -232.1411371220980300
  Basis Set: 6-31G*
  Basis Set:
  Charge       = 0
  Multiplicity = 1
  Basis Set: 6-31G*
  Basis Set:

    Orbital Energies (a.u.)
    -----------------------

    Doubly Occupied:

       1A    -20.549553     2A    -11.266085     3A    -11.229595
       4A    -11.223339     5A    -11.217308     6A     -1.357077
       7A     -1.075334     8A     -0.977432     9A     -0.883691
      10A     -0.792613    11A     -0.681513    12A     -0.647432
      13A     -0.625083    14A     -0.586835    15A     -0.578541
      16A     -0.549372    17A     -0.506628    18A     -0.486827
      19A     -0.482589    20A     -0.459681    21A     -0.427633

  @DF-RHF Final Energy:  -232.14113776826781

   => Energetics <=

    Nuclear Repulsion Energy =            191.4046988887878911
    One-Electron Energy =                -693.8833457731755061
    Two-Electron Energy =                 270.3375091161197474
    DFT Exchange-Correlation Energy =       0.0000000000000000
    Empirical Dispersion Energy =           0.0000000000000000
    PCM Polarization Energy =               0.0000000000000000
    EFP Energy =                            0.0000000000000000
    Total Energy =                       -232.1411377682678676
    Molecular point group: c1
  Basis Set: 6-31G*
  Basis Set:

  -Total Gradient:
     Atom            X                  Y                   Z
    ------   -----------------  -----------------  -----------------
       1        0.000586007789     0.001702452821    -0.000906047823
       2       -0.001064879000    -0.002529065767     0.001126520357
       3        0.001326562780     0.001698012905    -0.000370573129
       4       -0.000820749934    -0.000921262384     0.000078595295
       5       -0.000027496946     0.000019776264     0.000007298556
       6        0.000000717217    -0.000001273243     0.000031298468
       7        0.000001896868     0.000013512833     0.000017527736
       8       -0.000017505081     0.000039853836    -0.000021815103
       9       -0.000008788727    -0.000043410223    -0.000015463769
      10       -0.000010934884    -0.000007799515     0.000035452481
      11       -0.000001727218     0.000031406491     0.000011908907
      12        0.000031477842     0.000012652682    -0.000006476835
      13       -0.000000345525    -0.000002027163    -0.000004135146
      14        0.000012510563    -0.000006070957     0.000014812207
      15       -0.000006745741    -0.000006758577     0.000001097800

  **** Optimization is complete! (in 7 steps) ****
    Final optimized geometry and variables:
    Molecular point group: c1

    Geometry (in Angstrom), charge = 0, multiplicity = 1:

    H            1.186389071898    -0.814397300685    -1.117184952560
    O            1.784000736554    -0.632872845083    -0.407594621013
    C            1.137862901732     0.105352348252     0.598998104819
    C            0.024039895278     1.011179903964     0.080765869434
    H            1.901049624393     0.711164558483     1.071720846245
    H            0.750769021565    -0.570152977039     1.357872696835
    C           -1.166481822502     0.296788001888    -0.574993273855
    H            0.454517142531     1.710664966616    -0.631959896624
    H           -0.340988736475     1.603824273751     0.916867023621
    C           -1.939800091378    -0.637730437787     0.356868223357
    H           -0.839955863061    -0.259980486617    -1.452287808293
    H           -1.843226522786     1.056389756846    -0.956009890045
    H           -2.814457089664    -1.040663810847    -0.143632348479
    H           -1.335838247865    -1.477664053573     0.683512711180
    H           -2.280255666359    -0.109848682673     1.243268458865

  Mulliken Charges: (a.u.)
   Center  Symbol    Alpha    Beta     Spin     Total
       1     H     0.27806  0.27806  0.00000  0.44389
       2     O     4.37761  4.37761  0.00000 -0.75523
       3     C     2.98398  2.98398  0.00000  0.03203
       4     C     3.17953  3.17953  0.00000 -0.35906
       5     H     0.41748  0.41748  0.00000  0.16504
       6     H     0.42855  0.42855  0.00000  0.14289
       7     C     3.16149  3.16149  0.00000 -0.32299
       8     H     0.41425  0.41425  0.00000  0.17150
       9     H     0.41946  0.41946  0.00000  0.16108
      10     C     3.24241  3.24241  0.00000 -0.48482
      11     H     0.42977  0.42977  0.00000  0.14047
      12     H     0.41440  0.41440  0.00000  0.17120
      13     H     0.41660  0.41660  0.00000  0.16681
      14     H     0.41662  0.41662  0.00000  0.16677
      15     H     0.41979  0.41979  0.00000  0.16042

   Total alpha = 21.00000, Total beta = 21.00000, Total charge = -0.00000
