                              Psi4 1.0.54 Driver

  ==> Input File <==

--------------------------------------------------------------------------
set {
	reference rhf
	basis cc-pvtz
}

set_num_threads( 4 )
memory 2 gb

molecule MOL {
0 1

O	 -2.071633	 -1.227563	 -0.223463
C	 -1.652164	 -0.152425	 0.058082
C	 -0.327811	 0.006324	 0.778296
C	 -2.402515	 1.108629	 -0.298924
C	 0.843231	 -0.001575	 -0.211665
H	 -0.319484	 0.928173	 1.350354
H	 -0.227804	 -0.823091	 1.466705
C	 1.539538	 1.352478	 -0.311297
H	 0.490026	 -0.295011	 -1.196975
H	 1.556145	 -0.757217	 0.099981
C	 2.712748	 1.346050	 -1.285309
H	 0.819596	 2.106323	 -0.617768
H	 1.889495	 1.646467	 0.673914
H	 2.388242	 1.089340	 -2.288220
H	 3.464549	 0.623531	 -0.986764
H	 3.188190	 2.318823	 -1.330806
H	 -3.240910	 0.874416	 -0.936711
H	 -1.747554	 1.818823	 -0.790984
H	 -2.760419	 1.579708	 0.610998

	symmetry c1
}
set optking {
	frozen_dihedral = ("
		9 5 3 2
	")
}

ee,wfn = optimize('scf', return_wfn=True)
oeprop( wfn, 'DIPOLE', 'QUADRUPOLE', 'MULLIKEN_CHARGES')
f=open( 'psi4out.xyz', 'w' )
f.write( "19  " )
f.write( str(ee) + "\n" )
f.write( MOL.save_string_xyz() )
f.close()
--------------------------------------------------------------------------

    Molecular point group: c1
  Charge       = 0
  Multiplicity = 1
  Basis Set: CC-PVTZ
  Basis Set:
  @DF-RHF Final Energy:  -309.17137279311993
    Total Energy =                       -309.1713727931199855
    Molecular point group: c1
  Basis Set: CC-PVTZ
  Basis Set:
  Basis Set: CC-PVTZ
  Basis Set:
  @DF-RHF Final Energy:  -309.17169093924838
    Total Energy =                       -309.1716909392483217
  Basis Set: CC-PVTZ
  Basis Set:
  Basis Set: CC-PVTZ
  Basis Set:
  @DF-RHF Final Energy:  -309.17174858098798
    Total Energy =                       -309.1717485809881509
  Basis Set: CC-PVTZ
  Basis Set:
  Basis Set: CC-PVTZ
  Basis Set:
  @DF-RHF Final Energy:  -309.17182372109016
    Total Energy =                       -309.1718237210902771
  Basis Set: CC-PVTZ
  Basis Set:
  @DF-RHF Final Energy:  -309.17185668897156
    Total Energy =                       -309.1718566889713884
  @DF-RHF Final Energy:  -309.17191089002358
    Total Energy =                       -309.1719108900236392
  @DF-RHF Final Energy:  -309.17202970984198
    Total Energy =                       -309.1720297098418087
  @DF-RHF Final Energy:  -309.17204032932949
    Total Energy =                       -309.1720403293293771
  Basis Set: CC-PVTZ
  Basis Set:
  @DF-RHF Final Energy:  -309.17209149231803
    Total Energy =                       -309.1720914923182590
  Basis Set: CC-PVTZ
  Basis Set:
  Basis Set: CC-PVTZ
  Basis Set:
  @DF-RHF Final Energy:  -309.17210177403553
    Total Energy =                       -309.1721017740354682
  Basis Set: CC-PVTZ
  Basis Set:
  Basis Set: CC-PVTZ
  Basis Set:
  @DF-RHF Final Energy:  -309.17210635486180
    Total Energy =                       -309.1721063548616257
  Basis Set: CC-PVTZ
  Basis Set:
  Charge       = 0
  Multiplicity = 1
  Basis Set: CC-PVTZ
  Basis Set:

    Orbital Energies (a.u.)
    -----------------------

    Doubly Occupied:

       1A    -20.536973     2A    -11.319187     3A    -11.231460
       4A    -11.227927     5A    -11.226670     6A    -11.226590
       7A    -11.215897     8A     -1.396818     9A     -1.093698
      10A     -1.029836    11A     -0.984231    12A     -0.895230
      13A     -0.812007    14A     -0.735634    15A     -0.663327
      16A     -0.647541    17A     -0.623613    18A     -0.613757
      19A     -0.586516    20A     -0.577453    21A     -0.555075
      22A     -0.534903    23A     -0.523125    24A     -0.505299
      25A     -0.482729    26A     -0.476106    27A     -0.468911
      28A     -0.399939

  @DF-RHF Final Energy:  -309.17210714966029

   => Energetics <=

    Nuclear Repulsion Energy =            304.7043742261457737
    One-Electron Energy =               -1022.5720588864410274
    Two-Electron Energy =                 408.6955775106348483
    DFT Exchange-Correlation Energy =       0.0000000000000000
    Empirical Dispersion Energy =           0.0000000000000000
    PCM Polarization Energy =               0.0000000000000000
    EFP Energy =                            0.0000000000000000
    Total Energy =                       -309.1721071496604054
    Molecular point group: c1
  Basis Set: CC-PVTZ
  Basis Set:

  -Total Gradient:
     Atom            X                  Y                   Z
    ------   -----------------  -----------------  -----------------
       1       -0.000017564254    -0.000021072953    -0.000011964572
       2        0.000044435971    -0.000301760909    -0.000030427473
       3       -0.000054424337     0.000533266106     0.000028055442
       4       -0.000034542873     0.000006384336     0.000050042642
       5        0.000104042674    -0.000635804329     0.000036279453
       6        0.000013021919    -0.000004369313     0.000004425696
       7        0.000007956298     0.000006153329    -0.000003780091
       8        0.000014951227     0.000018062714    -0.000002145316
       9       -0.000091730083     0.000405240304    -0.000032396143
      10       -0.000006974410    -0.000006153987    -0.000009460086
      11       -0.000021291463    -0.000004279242     0.000007213684
      12        0.000013054413     0.000003235679    -0.000000501488
      13       -0.000001291282     0.000010783185     0.000002063279
      14        0.000003684432    -0.000000451074     0.000002531720
      15       -0.000000058714    -0.000001069711    -0.000000705164
      16       -0.000000852465    -0.000000826593     0.000004477493
      17        0.000004189601    -0.000001968051    -0.000009800439
      18        0.000011521938    -0.000007364260    -0.000014071451
      19        0.000011871409     0.000001994767    -0.000019837187

  **** Optimization is complete! (in 12 steps) ****
    Final optimized geometry and variables:
    Molecular point group: c1

    Geometry (in Angstrom), charge = 0, multiplicity = 1:

    O           -2.055726913099    -1.591888655521     0.253159608975
    C           -1.465711171131    -0.562951048204     0.319774625800
    C           -0.093267411791    -0.481519443949     0.956540075757
    C           -2.054404502876     0.715685607108    -0.231932739730
    C            1.038027693443    -0.323034168567    -0.089371660168
    H           -0.072534801705     0.353372995722     1.649475956692
    H            0.039975094887    -1.388732858904     1.526939942916
    C            1.752109559002     1.025855610589    -0.033928479623
    H            0.644677990335    -0.476887501943    -1.089843067871
    H            1.764868521610    -1.111636641907     0.063607777571
    C            2.856477502220     1.156414982125    -1.076603656181
    H            1.031349061638     1.827343728870    -0.169660704284
    H            2.172882452777     1.162551521766     0.958220166870
    H            2.460060602416     1.060136089907    -2.081841798106
    H            3.610716031996     0.387948626280    -0.945313467958
    H            3.349255965158     2.118980458279    -1.006203659513
    H           -2.980278051446     0.501965316278    -0.743312536424
    H           -1.362816821399     1.199625795514    -0.911249638623
    H           -2.241619286582     1.406936353609     0.583126156635

  Mulliken Charges: (a.u.)
   Center  Symbol    Alpha    Beta     Spin     Total
       1     O     4.17423  4.17423  0.00000 -0.34846
       2     C     2.85550  2.85550  0.00000  0.28900
       3     C     3.10193  3.10193  0.00000 -0.20385
       4     C     3.15933  3.15933  0.00000 -0.31866
       5     C     3.11193  3.11193  0.00000 -0.22387
       6     H     0.44999  0.44999  0.00000  0.10003
       7     H     0.43473  0.43473  0.00000  0.13053
       8     C     3.08528  3.08528  0.00000 -0.17056
       9     H     0.44699  0.44699  0.00000  0.10602
      10     H     0.43890  0.43890  0.00000  0.12220
      11     C     3.14999  3.14999  0.00000 -0.29999
      12     H     0.45367  0.45367  0.00000  0.09265
      13     H     0.45106  0.45106  0.00000  0.09788
      14     H     0.45408  0.45408  0.00000  0.09184
      15     H     0.45309  0.45309  0.00000  0.09382
      16     H     0.44695  0.44695  0.00000  0.10611
      17     H     0.43353  0.43353  0.00000  0.13294
      18     H     0.45033  0.45033  0.00000  0.09934
      19     H     0.44849  0.44849  0.00000  0.10303

   Total alpha = 28.00000, Total beta = 28.00000, Total charge = -0.00000

*** Psi4 exiting successfully. Buy a developer a beer!
