                              Psi4 1.0.54 Driver

  ==> Input File <==

--------------------------------------------------------------------------
set {
	reference rhf
	basis cc-pvtz
}

set_num_threads( 4 )
memory 2 gb

molecule MOL {
0 1

H	 2.336053	 -0.982311	 -0.134014
O	 2.063695	 -0.083403	 -0.105237
C	 0.742924	 0.005675	 0.350750
H	 0.731380	 0.039219	 1.440080
C	 -0.064076	 -1.193495	 -0.124425
C	 -0.047832	 1.190568	 -0.194462
H	 0.194729	 -1.376165	 -1.161308
H	 0.163013	 -2.094508	 0.429933
C	 -1.533112	 -0.752002	 0.006102
H	 0.148003	 1.266545	 -1.259275
H	 0.226235	 2.136493	 0.259722
C	 -1.506634	 0.799189	 0.067162
H	 -2.124360	 -1.110499	 -0.826089
H	 -1.983103	 -1.158030	 0.903403
H	 -2.183808	 1.252169	 -0.644677
H	 -1.813926	 1.138698	 1.049457

	symmetry c1
}
set optking {
	frozen_dihedral = ("
		1 2 3 6
	")
}

ee,wfn = optimize('scf', return_wfn=True)
oeprop( wfn, 'DIPOLE', 'QUADRUPOLE', 'MULLIKEN_CHARGES')
f=open( 'psi4out.xyz', 'w' )
f.write( "16  " )
f.write( str(ee) + "\n" )
f.write( MOL.save_string_xyz() )
f.close()
--------------------------------------------------------------------------

    Molecular point group: c1
  Charge       = 0
  Multiplicity = 1
  Basis Set: CC-PVTZ
  Basis Set:
  @DF-RHF Final Energy:  -270.11426334514135
    Total Energy =                       -270.1142633451411257
    Molecular point group: c1
  Basis Set: CC-PVTZ
  Basis Set:
  Basis Set: CC-PVTZ
  Basis Set:
  @DF-RHF Final Energy:  -270.11553624016801
    Total Energy =                       -270.1155362401681828
  Basis Set: CC-PVTZ
  Basis Set:
  Basis Set: CC-PVTZ
  Basis Set:
  @DF-RHF Final Energy:  -270.11578363015644
    Total Energy =                       -270.1157836301567272
  Basis Set: CC-PVTZ
  Basis Set:
  Basis Set: CC-PVTZ
  Basis Set:
  @DF-RHF Final Energy:  -270.11579133926773
    Total Energy =                       -270.1157913392677301
  Basis Set: CC-PVTZ
  Basis Set:
  @DF-RHF Final Energy:  -270.11579276926375
    Total Energy =                       -270.1157927692636349
  Basis Set: CC-PVTZ
  Basis Set:
  @DF-RHF Final Energy:  -270.11579451379760
    Total Energy =                       -270.1157945137974821
  Basis Set: CC-PVTZ
  Basis Set:
  Basis Set: CC-PVTZ
  Basis Set:
  @DF-RHF Final Energy:  -270.11579769184664
    Total Energy =                       -270.1157976918465238
  Basis Set: CC-PVTZ
  Basis Set:
  Basis Set: CC-PVTZ
  Basis Set:
  @DF-RHF Final Energy:  -270.11580008453507
    Total Energy =                       -270.1158000845350671
  Basis Set: CC-PVTZ
  Basis Set:
  Charge       = 0
  Multiplicity = 1
  Basis Set: CC-PVTZ
  Basis Set:

    Orbital Energies (a.u.)
    -----------------------

    Doubly Occupied:

       1A    -20.544530     2A    -11.267110     3A    -11.217215
       4A    -11.215173     5A    -11.214317     6A    -11.207094
       7A     -1.364869     8A     -1.116416     9A     -0.968723
      10A     -0.949677    11A     -0.795485    12A     -0.780418
      13A     -0.692738    14A     -0.664152    15A     -0.617127
      16A     -0.598272    17A     -0.572993    18A     -0.528572
      19A     -0.502728    20A     -0.483719    21A     -0.472499
      22A     -0.457832    23A     -0.445626    24A     -0.426891

  @DF-RHF Final Energy:  -270.11580094046906

   => Energetics <=

    Nuclear Repulsion Energy =            255.6937030848972654
    One-Electron Energy =                -873.4106591466918417
    Two-Electron Energy =                 347.6011551213255757
    DFT Exchange-Correlation Energy =       0.0000000000000000
    Empirical Dispersion Energy =           0.0000000000000000
    PCM Polarization Energy =               0.0000000000000000
    EFP Energy =                            0.0000000000000000
    Total Energy =                       -270.1158009404690006
    Molecular point group: c1
  Basis Set: CC-PVTZ
  Basis Set:

  -Total Gradient:
     Atom            X                  Y                   Z
    ------   -----------------  -----------------  -----------------
       1       -0.000506550380    -0.000097112404    -0.001808360285
       2        0.000469185868    -0.000122154287     0.001870927404
       3        0.000312010781     0.000835828747     0.000870337753
       4       -0.000017945696     0.000003255225     0.000028268287
       5       -0.000001975880     0.000038084721     0.000033443052
       6       -0.000267287935    -0.000667722650    -0.000942557199
       7        0.000001738854    -0.000001536193    -0.000022725732
       8        0.000002123517    -0.000016054240     0.000004866784
       9        0.000022859928     0.000000911894    -0.000020814290
      10       -0.000000844221     0.000016091375    -0.000030953728
      11        0.000003560252     0.000011029783     0.000005692948
      12        0.000085226785    -0.000002333058    -0.000018213239
      13       -0.000028037376    -0.000020031214    -0.000027886857
      14       -0.000019688944    -0.000011194235     0.000037881561
      15       -0.000031751824     0.000017490144    -0.000022311994
      16       -0.000022623732     0.000015446391     0.000042405532

  **** Optimization is complete! (in 9 steps) ****
    Final optimized geometry and variables:
    Molecular point group: c1

    Geometry (in Angstrom), charge = 0, multiplicity = 1:

    H            2.444777759020    -0.760772852460    -0.054135307859
    O            2.073758997910     0.100106253095     0.003444456641
    C            0.727073313823     0.025208091690     0.382146219670
    H            0.658027780973     0.043896275866     1.469323005188
    C           -0.022172050035    -1.195060332098    -0.145229548264
    C           -0.075061815794     1.182915540662    -0.192231758620
    H            0.249219559597    -1.335409159140    -1.187399380612
    H            0.223710054138    -2.108484262849     0.385069049183
    C           -1.505316186228    -0.810490139784    -0.020237326998
    H            0.179002547309     1.277963433839    -1.242430442597
    H            0.147166341788     2.128558542636     0.285039219660
    C           -1.534699410254     0.742389833233    -0.016947977269
    H           -2.091653054874    -1.228083337382    -0.827940828804
    H           -1.923997098358    -1.197921879294     0.900332445414
    H           -2.171041162379     1.140925290022    -0.795879971825
    H           -1.929718416305     1.105885272063     0.924059631942

  Mulliken Charges: (a.u.)
   Center  Symbol    Alpha    Beta     Spin     Total
       1     H     0.39242  0.39242  0.00000  0.21516
       2     O     4.20452  4.20452  0.00000 -0.40904
       3     C     2.92282  2.92282  0.00000  0.15435
       4     H     0.46306  0.46306  0.00000  0.07388
       5     C     3.11614  3.11614  0.00000 -0.23228
       6     C     3.09501  3.09501  0.00000 -0.19002
       7     H     0.45308  0.45308  0.00000  0.09384
       8     H     0.44484  0.44484  0.00000  0.11032
       9     C     3.11183  3.11183  0.00000 -0.22365
      10     H     0.45422  0.45422  0.00000  0.09156
      11     H     0.44309  0.44309  0.00000  0.11382
      12     C     3.11302  3.11302  0.00000 -0.22604
      13     H     0.44433  0.44433  0.00000  0.11135
      14     H     0.44828  0.44828  0.00000  0.10344
      15     H     0.44396  0.44396  0.00000  0.11209
      16     H     0.44939  0.44939  0.00000  0.10122

   Total alpha = 24.00000, Total beta = 24.00000, Total charge = -0.00000

*** Psi4 exiting successfully. Buy a developer a beer!
