  ==> Input File <==

--------------------------------------------------------------------------
set {
	reference rhf
	basis 6-31G*
}

set_num_threads( 4 )
memory 2 gb

molecule MOL {
0 1

H	 -0.367348	 2.047014	 -0.308205
C	 0.352277	 1.337084	 0.083769
N	 -0.000016	 0.000074	 -0.335546
H	 1.328359	 1.600444	 -0.307950
H	 0.381933	 1.450534	 1.172486
C	 1.163593	 -0.775958	 -0.698945
C	 -0.815238	 -0.676922	 0.646923
H	 0.856363	 -1.745348	 -1.074771
H	 1.711216	 -0.270876	 -1.486640
H	 1.848585	 -0.938873	 0.139582
H	 -1.712089	 -0.099742	 0.841590
H	 -1.118176	 -1.646656	 0.268394
H	 -0.298077	 -0.831153	 1.599649

	symmetry c1
}
set optking {
	frozen_dihedral = ("
		6 3 2 1
	")
}

ee = optimize('scf')
oeprop('DIPOLE', 'QUADRUPOLE', 'MULLIKEN_CHARGES')
f=open( 'psi4out.xyz', 'w' )
f.write( "13  " )
f.write( str(ee) + "\n" )
f.write( MOL.save_string_xyz() )
f.close()
--------------------------------------------------------------------------

    Molecular point group: c1
  Charge       = 0
  Multiplicity = 1
  Basis Set: 6-31G*
  Basis Set:
  @DF-RHF Final Energy:  -173.26433643516461
    Total Energy =                       -173.2643364351646085
    Molecular point group: c1
  Basis Set: 6-31G*
  Basis Set:
  Basis Set: 6-31G*
  Basis Set:
  @DF-RHF Final Energy:  -173.26498305035707
    Total Energy =                       -173.2649830503570172
  Basis Set: 6-31G*
  Basis Set:
  Basis Set: 6-31G*
  Basis Set:
  @DF-RHF Final Energy:  -173.26510981504654
    Total Energy =                       -173.2651098150465430
  Basis Set: 6-31G*
  Basis Set:
  Basis Set: 6-31G*
  Basis Set:
  @DF-RHF Final Energy:  -173.26511735912257
    Total Energy =                       -173.2651173591225415
  Basis Set: 6-31G*
  Basis Set:
  Charge       = 0
  Multiplicity = 1
  Basis Set: 6-31G*
  Basis Set:

    Orbital Energies (a.u.)
    -----------------------

    Doubly Occupied:

       1A    -15.539572     2A    -11.235878     3A    -11.235445
       4A    -11.235372     5A     -1.220744     6A     -0.952252
       7A     -0.951500     8A     -0.805009     9A     -0.638211
      10A     -0.630034    11A     -0.627830    12A     -0.549716
      13A     -0.543185    14A     -0.515141    15A     -0.502415
      16A     -0.501405    17A     -0.338052

  @DF-RHF Final Energy:  -173.26511806814460

   => Energetics <=

    Nuclear Repulsion Energy =            138.8373609809931963
    One-Electron Energy =                -508.1614314089729305
    Two-Electron Energy =                 196.0589523598351320
    DFT Exchange-Correlation Energy =       0.0000000000000000
    Empirical Dispersion Energy =           0.0000000000000000
    PCM Polarization Energy =               0.0000000000000000
    EFP Energy =                            0.0000000000000000
    Total Energy =                       -173.2651180681446021
    Molecular point group: c1
  Basis Set: 6-31G*
  Basis Set:

  -Total Gradient:
     Atom            X                  Y                   Z
    ------   -----------------  -----------------  -----------------
       1        0.002700538662     0.000601430193    -0.004267715737
       2       -0.003624590203    -0.000279131077     0.003893500537
       3        0.001402912033    -0.001534923742     0.004119092485
       4        0.000016616402     0.000011579900    -0.000020827790
       5       -0.000001949522    -0.000022329162    -0.000009110172
       6       -0.000494065834     0.001221922201    -0.003730382773
       7       -0.000018947217     0.000064012532    -0.000009725610
       8        0.000010307691    -0.000003259739     0.000005123517
       9        0.000026092055    -0.000019057442    -0.000007150872
      10        0.000000141825    -0.000007600617    -0.000003960575
      11       -0.000021876919    -0.000013318934     0.000022439772
      12        0.000004190210    -0.000007412582     0.000009374712
      13        0.000000630817    -0.000011911531    -0.000000657493

  **** Optimization is complete! (in 5 steps) ****
    Final optimized geometry and variables:
    Molecular point group: c1

    Geometry (in Angstrom), charge = 0, multiplicity = 1:

    H           -0.604737930322     2.070804972204    -0.233837812635
    C            0.149985105310     1.385868950185     0.141029635372
    N           -0.158316759332     0.024253614467    -0.247293480843
    H            1.088969823446     1.692164203485    -0.305690038802
    H            0.246038719425     1.512323348046     1.220380136198
    C            0.987780169846    -0.757207539450    -0.644879991591
    C           -1.021183684949    -0.646903838325     0.691820947903
    H            0.657532354386    -1.719356022249    -1.020613054999
    H            1.516988750479    -0.253840382003    -1.445310631647
    H            1.697626229225    -0.942024788706     0.168585701505
    H           -1.911594852444    -0.051251985658     0.861883940870
    H           -1.334275648539    -1.604367112908     0.290442779040
    H           -0.544955960423    -0.824230986798     1.662007589629

  Mulliken Charges: (a.u.)
   Center  Symbol    Alpha    Beta     Spin     Total
       1     H     0.41621  0.41621  0.00000  0.16759
       2     C     3.14165  3.14165  0.00000 -0.28331
       3     N     3.77187  3.77187  0.00000 -0.54373
       4     H     0.41994  0.41994  0.00000  0.16012
       5     H     0.43004  0.43004  0.00000  0.13992
       6     C     3.13900  3.13900  0.00000 -0.27799
       7     C     3.14007  3.14007  0.00000 -0.28014
       8     H     0.41826  0.41826  0.00000  0.16348
       9     H     0.41685  0.41685  0.00000  0.16630
      10     H     0.43593  0.43593  0.00000  0.12814
      11     H     0.41689  0.41689  0.00000  0.16622
      12     H     0.41783  0.41783  0.00000  0.16435
      13     H     0.43547  0.43547  0.00000  0.12905

   Total alpha = 17.00000, Total beta = 17.00000, Total charge =  0.00000
