                              Psi4 1.0.54 Driver

  ==> Input File <==

--------------------------------------------------------------------------
set {
	reference rhf
	basis cc-pvtz
}

set_num_threads( 4 )
memory 2 gb

molecule MOL {
0 1

H	 2.614283	 2.028610	 0.296620
O	 3.358864	 1.662087	 -0.142800
C	 3.565468	 0.338079	 0.273842
C	 2.533667	 -0.637565	 -0.272227
H	 4.548038	 0.064914	 -0.086598
H	 3.593945	 0.282242	 1.360360
C	 1.114816	 -0.402372	 0.240993
H	 2.544552	 -0.580764	 -1.356576
H	 2.850574	 -1.642962	 -0.005497
C	 0.112179	 -0.155405	 -0.885312
H	 1.114202	 0.445642	 0.917658
H	 0.793892	 -1.265953	 0.821099
C	 -1.339427	 0.013251	 -0.432927
H	 0.417009	 0.723531	 -1.448142
H	 0.160568	 -0.989900	 -1.579391
C	 -1.619784	 1.273153	 0.384257
H	 -1.972294	 0.026526	 -1.316008
H	 -1.640315	 -0.861159	 0.139810
C	 -3.097365	 1.446723	 0.726363
H	 -1.276968	 2.143517	 -0.171091
H	 -1.046820	 1.255625	 1.306432
C	 -3.380288	 2.701706	 1.545427
H	 -3.676906	 1.478382	 -0.192173
H	 -3.443581	 0.574137	 1.273894
H	 -3.074482	 3.595048	 1.010956
H	 -4.436979	 2.795717	 1.768303
H	 -2.844211	 2.683103	 2.488627

	symmetry c1
}
set optking {
	frozen_dihedral = ("
		10 7 4 8
	")
}

ee,wfn = optimize('scf', return_wfn=True)
oeprop( wfn, 'DIPOLE', 'QUADRUPOLE', 'MULLIKEN_CHARGES')
f=open( 'psi4out.xyz', 'w' )
f.write( "27  " )
f.write( str(ee) + "\n" )
f.write( MOL.save_string_xyz() )
f.close()
--------------------------------------------------------------------------

    Molecular point group: c1
  Charge       = 0
  Multiplicity = 1
  Basis Set: CC-PVTZ
  Basis Set:
  @DF-RHF Final Energy:  -388.42237448546479
    Total Energy =                       -388.4223744854648430
    Molecular point group: c1
  Basis Set: CC-PVTZ
  Basis Set:
  Basis Set: CC-PVTZ
  Basis Set:
  @DF-RHF Final Energy:  -388.42264962196106
    Total Energy =                       -388.4226496219611136
  Basis Set: CC-PVTZ
  Basis Set:
  Basis Set: CC-PVTZ
  Basis Set:
  @DF-RHF Final Energy:  -388.42271130091996
    Total Energy =                       -388.4227113009199002
  Basis Set: CC-PVTZ
  Basis Set:
  Basis Set: CC-PVTZ
  Basis Set:
  @DF-RHF Final Energy:  -388.42270660969581
    Total Energy =                       -388.4227066096952967
  Basis Set: CC-PVTZ
  Basis Set:
  Basis Set: CC-PVTZ
  Basis Set:
  @DF-RHF Final Energy:  -388.42271386227054
    Total Energy =                       -388.4227138622702569
  Basis Set: CC-PVTZ
  Basis Set:
  Charge       = 0
  Multiplicity = 1
  Basis Set: CC-PVTZ
  Basis Set:

    Orbital Energies (a.u.)
    -----------------------

    Doubly Occupied:

       1A    -20.545422     2A    -11.264950     3A    -11.217738
       4A    -11.214487     5A    -11.214304     6A    -11.213316
       7A    -11.213255     8A    -11.212728     9A    -11.207896
      10A     -1.363290    11A     -1.095547    12A     -1.061314
      13A     -1.012324    14A     -0.949879    15A     -0.888627
      16A     -0.821952    17A     -0.803096    18A     -0.778612
      19A     -0.696223    20A     -0.651697    21A     -0.642488
      22A     -0.613823    23A     -0.595753    24A     -0.584410
      25A     -0.577288    26A     -0.558237    27A     -0.542907
      28A     -0.534643    29A     -0.511144    30A     -0.494725
      31A     -0.488433    32A     -0.471428    33A     -0.466576
      34A     -0.457721    35A     -0.453209    36A     -0.441585
      37A     -0.426918

  @DF-RHF Final Energy:  -388.42271401960534

   => Energetics <=

    Nuclear Repulsion Energy =            465.0297401792087157
    One-Electron Energy =               -1448.3290290903485129
    Two-Electron Energy =                 594.8765748915346876
    DFT Exchange-Correlation Energy =       0.0000000000000000
    Empirical Dispersion Energy =           0.0000000000000000
    PCM Polarization Energy =               0.0000000000000000
    EFP Energy =                            0.0000000000000000
    Total Energy =                       -388.4227140196051096
    Molecular point group: c1
  Basis Set: CC-PVTZ
  Basis Set:

  -Total Gradient:
     Atom            X                  Y                   Z
    ------   -----------------  -----------------  -----------------
       1        0.000025549664    -0.000012309831    -0.000004433668
       2        0.000001710807     0.000009105849    -0.000037101827
       3       -0.000031517407    -0.000003533883     0.000057123022
       4        0.000066228446     0.000379928384    -0.000017761536
       5        0.000007220398     0.000013483172     0.000006778872
       6        0.000006491505    -0.000003589909    -0.000007024630
       7       -0.000046962841    -0.000293326225    -0.000034149982
       8       -0.000055993364    -0.000225746624    -0.000016041328
       9       -0.000025215644     0.000009396443     0.000011589568
      10        0.000060109582     0.000162280450     0.000040957832
      11       -0.000009649558    -0.000001010102    -0.000003294809
      12       -0.000005283785    -0.000027230587    -0.000007240283
      13       -0.000003937309     0.000010945565    -0.000013452294
      14        0.000006156444    -0.000013737958     0.000011166575
      15        0.000005285888    -0.000003522466     0.000015880272
      16        0.000007027197     0.000000209477    -0.000002013172
      17       -0.000017687749     0.000006092196     0.000002603829
      18        0.000004639955     0.000003683596    -0.000005568363
      19       -0.000003987512    -0.000003133868    -0.000002027752
      20       -0.000001007567    -0.000004627781     0.000003581637
      21        0.000010211445    -0.000001512272    -0.000000278518
      22        0.000003250473    -0.000001912572    -0.000000569197
      23       -0.000000383597    -0.000000655232     0.000000575072
      24       -0.000000951012    -0.000000892146     0.000000652474
      25        0.000000014359     0.000000454911     0.000000648276
      26       -0.000000773128     0.000000238292     0.000000182688
      27       -0.000000545682     0.000000923126    -0.000000782761

  **** Optimization is complete! (in 6 steps) ****
    Final optimized geometry and variables:
    Molecular point group: c1

    Geometry (in Angstrom), charge = 0, multiplicity = 1:

    H            2.411637664508     1.287287330198     0.078811877184
    O            3.182800633883     0.932543287114    -0.323237512385
    C            3.394320785715    -0.386033521836     0.108170470542
    C            2.367421110865    -1.365521598213    -0.438782812822
    H            4.380548640618    -0.656900979661    -0.244091647333
    H            3.415325961194    -0.431079170136     1.195190524254
    C            0.929101185386    -1.129210659263     0.068101307949
    H            2.393087116602    -1.306734261083    -1.521481782628
    H            2.691938816459    -2.367849141568    -0.177496684847
    C           -0.076013861945    -0.877300445094    -1.056134914111
    H            0.916637987406    -0.292324920277     0.759688936527
    H            0.600012269465    -1.986123533418     0.647248321539
    C           -1.526700675078    -0.708636618832    -0.602495131138
    H            0.232554573407    -0.000224705162    -1.619638153065
    H           -0.027467747064    -1.711570476456    -1.750233732812
    C           -1.805523370704     0.547899923768     0.220637289140
    H           -2.159979868832    -0.689992707411    -1.485102337442
    H           -1.828845693074    -1.584976359723    -0.033470501645
    C           -3.283255769191     0.724620083043     0.560344185389
    H           -1.459773858793     1.420241240851    -0.330188207982
    H           -1.235623054458     0.523618848111     1.144712099990
    C           -3.564039930092     1.975596640496     1.386105134664
    H           -3.860290983231     0.763513352851    -0.359384478992
    H           -3.633309235121    -0.150034086675     1.101884149328
    H           -3.254788847865     2.871181511689     0.857387313308
    H           -4.620816506724     2.071452857557     1.607434783189
    H           -3.030043603632     1.949873575074     2.330312124032

  Mulliken Charges: (a.u.)
   Center  Symbol    Alpha    Beta     Spin     Total
       1     H     0.39175  0.39175  0.00000  0.21650
       2     O     4.20653  4.20653  0.00000 -0.41306
       3     C     2.97973  2.97973  0.00000  0.04055
       4     C     3.09336  3.09336  0.00000 -0.18671
       5     H     0.44832  0.44832  0.00000  0.10337
       6     H     0.46972  0.46972  0.00000  0.06056
       7     C     3.10983  3.10983  0.00000 -0.21966
       8     H     0.45250  0.45250  0.00000  0.09500
       9     H     0.44949  0.44949  0.00000  0.10102
      10     C     3.09773  3.09773  0.00000 -0.19545
      11     H     0.46094  0.46094  0.00000  0.07813
      12     H     0.44532  0.44532  0.00000  0.10935
      13     C     3.09807  3.09807  0.00000 -0.19613
      14     H     0.44957  0.44957  0.00000  0.10086
      15     H     0.44585  0.44585  0.00000  0.10829
      16     C     3.09026  3.09026  0.00000 -0.18052
      17     H     0.44775  0.44775  0.00000  0.10450
      18     H     0.45381  0.45381  0.00000  0.09238
      19     C     3.08392  3.08392  0.00000 -0.16785
      20     H     0.45451  0.45451  0.00000  0.09097
      21     H     0.45458  0.45458  0.00000  0.09084
      22     C     3.14982  3.14982  0.00000 -0.29963
      23     H     0.45349  0.45349  0.00000  0.09301
      24     H     0.45436  0.45436  0.00000  0.09129
      25     H     0.45498  0.45498  0.00000  0.09003
      26     H     0.44800  0.44800  0.00000  0.10399
      27     H     0.45581  0.45581  0.00000  0.08837

   Total alpha = 37.00000, Total beta = 37.00000, Total charge =  0.00000

*** Psi4 exiting successfully. Buy a developer a beer!
