  ==> Input File <==

--------------------------------------------------------------------------
set {
	reference rhf
	basis 6-31G*
}

set_num_threads( 4 )
memory 2 gb

molecule MOL {
0 1

H	 3.463771	 0.168298	 -0.756243
C	 2.752674	 -0.045734	 0.033351
C	 1.322923	 0.120767	 -0.479465
H	 2.934561	 -1.059086	 0.377456
H	 2.958358	 0.631174	 0.856809
C	 0.306652	 -0.176050	 0.621399
H	 1.144658	 -0.551717	 -1.312180
H	 1.166477	 1.131798	 -0.836680
N	 -1.068537	 -0.011044	 0.085269
H	 0.372515	 -1.192590	 0.973735
H	 0.391664	 0.520566	 1.441230
O	 -1.238487	 -0.234029	 -1.073509
O	 -1.905029	 0.365946	 0.848279

	symmetry c1
}
set optking {
	frozen_dihedral = ("
		12 9 6 3
	")
}

ee = optimize('scf')
oeprop('DIPOLE', 'QUADRUPOLE', 'MULLIKEN_CHARGES')
f=open( 'psi4out.xyz', 'w' )
f.write( "13  " )
f.write( str(ee) + "\n" )
f.write( MOL.save_string_xyz() )
f.close()
--------------------------------------------------------------------------

    Molecular point group: c1
  Charge       = 0
  Multiplicity = 1
  Basis Set: 6-31G*
  Basis Set:
  @DF-RHF Final Energy:  -321.73382532573356
    Total Energy =                       -321.7338253257336191
    Molecular point group: c1
  Basis Set: 6-31G*
  Basis Set:
  Basis Set: 6-31G*
  Basis Set:
  @DF-RHF Final Energy:  -321.73111147943342
    Total Energy =                       -321.7311114794334799
  Basis Set: 6-31G*
  Basis Set:
  Basis Set: 6-31G*
  Basis Set:
  @DF-RHF Final Energy:  -321.73117056024921
    Total Energy =                       -321.7311705602489837
  Basis Set: 6-31G*
  Basis Set:
  Basis Set: 6-31G*
  Basis Set:
  @DF-RHF Final Energy:  -321.73461064689013
    Total Energy =                       -321.7346106468902462
  Basis Set: 6-31G*
  Basis Set:
  Basis Set: 6-31G*
  Basis Set:
  @DF-RHF Final Energy:  -321.73503590148425
    Total Energy =                       -321.7350359014842525
  Basis Set: 6-31G*
  Basis Set:
  Basis Set: 6-31G*
  Basis Set:
  @DF-RHF Final Energy:  -321.73514301144371
    Total Energy =                       -321.7351430114438813
  Basis Set: 6-31G*
  Basis Set:
  Basis Set: 6-31G*
  Basis Set:
  @DF-RHF Final Energy:  -321.73514693077624
    Total Energy =                       -321.7351469307762386
  Basis Set: 6-31G*
  Basis Set:
  Charge       = 0
  Multiplicity = 1
  Basis Set: 6-31G*
  Basis Set:

    Orbital Energies (a.u.)
    -----------------------

    Doubly Occupied:

       1A    -20.602211     2A    -20.600598     3A    -15.848528
       4A    -11.300781     5A    -11.250948     6A    -11.237884
       7A     -1.631825     8A     -1.417109     9A     -1.133234
      10A     -1.027556    11A     -0.884670    12A     -0.827128
      13A     -0.760562    14A     -0.745408    15A     -0.725503
      16A     -0.659979    17A     -0.606672    18A     -0.579855
      19A     -0.551898    20A     -0.522921    21A     -0.510358
      22A     -0.484588    23A     -0.473141    24A     -0.449321

  @DF-RHF Final Energy:  -321.73514748643106

   => Energetics <=

    Nuclear Repulsion Energy =            247.0564166984904659
    One-Electron Energy =                -927.9177724209616827
    Two-Electron Energy =                 359.1262082360399290
    DFT Exchange-Correlation Energy =       0.0000000000000000
    Empirical Dispersion Energy =           0.0000000000000000
    PCM Polarization Energy =               0.0000000000000000
    EFP Energy =                            0.0000000000000000
    Total Energy =                       -321.7351474864312877
    Molecular point group: c1
  Basis Set: 6-31G*
  Basis Set:

  -Total Gradient:
     Atom            X                  Y                   Z
    ------   -----------------  -----------------  -----------------
       1       -0.000010997961    -0.000001038158    -0.000005821026
       2       -0.000012860111    -0.000014516945     0.000000167725
       3        0.000033757465    -0.000177488791    -0.000054817092
       4       -0.000003540633    -0.000000658014     0.000008984546
       5        0.000004023257     0.000003549405    -0.000005404364
       6        0.000036650495     0.000360407801     0.000061342711
       7        0.000004066351     0.000008817173     0.000017806882
       8        0.000004555631     0.000010116780    -0.000010043531
       9       -0.000127752171    -0.000434244326     0.000055786239
      10       -0.000009137668    -0.000009732971     0.000018584120
      11       -0.000000790515     0.000004810070    -0.000027188113
      12        0.000067967214     0.000256450083    -0.000121055839
      13        0.000014058645    -0.000006472110     0.000061657742

  **** Optimization is complete! (in 8 steps) ****
    Final optimized geometry and variables:
    Molecular point group: c1

    Geometry (in Angstrom), charge = 0, multiplicity = 1:

    H            3.506563855124     0.148860428901    -0.739092671910
    C            2.773692872211    -0.048294843453     0.034787620463
    C            1.358137416188     0.109728619774    -0.521810963079
    H            2.945256032063    -1.055622714585     0.402496201075
    H            2.961470715289     0.641982861838     0.851537719507
    C            0.324824108537    -0.167743196632     0.558412489738
    H            1.202123559375    -0.565944699536    -1.351695466848
    H            1.219051084453     1.116445261850    -0.901522500969
    N           -1.077399712984     0.003135897494     0.082920604810
    H            0.369594437476    -1.192494927989     0.906236574970
    H            0.415765294660     0.487711228900     1.409771683104
    O           -1.311513123993    -0.213166175422    -1.065749326869
    O           -1.883972539975     0.316582956130     0.903193570883

  Mulliken Charges: (a.u.)
   Center  Symbol    Alpha    Beta     Spin     Total
       1     H     0.40755  0.40755  0.00000  0.18490
       2     C     3.24978  3.24978  0.00000 -0.49956
       3     C     3.16755  3.16755  0.00000 -0.33509
       4     H     0.41626  0.41626  0.00000  0.16748
       5     H     0.41598  0.41598  0.00000  0.16803
       6     C     3.08868  3.08868  0.00000 -0.17736
       7     H     0.39587  0.39587  0.00000  0.20826
       8     H     0.40558  0.40558  0.00000  0.18883
       9     N     3.22324  3.22324  0.00000  0.55352
      10     H     0.38583  0.38583  0.00000  0.22834
      11     H     0.38595  0.38595  0.00000  0.22809
      12     O     4.22891  4.22891  0.00000 -0.45783
      13     O     4.22881  4.22881  0.00000 -0.45762

   Total alpha = 24.00000, Total beta = 24.00000, Total charge = -0.00000
