  ==> Input File <==

--------------------------------------------------------------------------
set {
	reference rhf
	basis cc-pvtz
}

set_num_threads( 4 )
memory 2 gb

molecule MOL {
0 1

H	 -2.542064	 0.515806	 0.605286
O	 -2.313989	 -0.142475	 -0.025864
C	 -0.943808	 -0.065018	 -0.330000
H	 -0.812293	 -0.225641	 -1.398673
C	 -0.231030	 -1.182113	 0.407592
C	 -0.353797	 1.300461	 0.050970
H	 -0.312800	 -0.992012	 1.473041
H	 -0.738841	 -2.119564	 0.220514
C	 1.246176	 -1.268044	 -0.015480
H	 -0.539537	 2.008579	 -0.751815
H	 -0.889989	 1.662858	 0.920677
C	 1.153605	 1.231851	 0.356834
H	 1.823096	 -1.684665	 0.802361
H	 1.352335	 -1.958223	 -0.845114
C	 1.826409	 0.100723	 -0.416008
H	 1.622968	 2.181508	 0.128734
H	 1.301983	 1.066493	 1.419367
H	 2.897299	 0.112407	 -0.249665
H	 1.683458	 0.265621	 -1.480024

	symmetry c1
}
set optking {
	frozen_dihedral = ("
		1 2 3 4
	")
}

ee = optimize('scf')
oeprop('DIPOLE', 'QUADRUPOLE', 'MULLIKEN_CHARGES')
f=open( 'psi4out.xyz', 'w' )
f.write( "19  " )
f.write( str(ee) + "\n" )
f.write( MOL.save_string_xyz() )
f.close()
--------------------------------------------------------------------------

    Molecular point group: c1
  Charge       = 0
  Multiplicity = 1
  Basis Set: CC-PVTZ
  Basis Set:
  @DF-RHF Final Energy:  -309.16084385037760
    Total Energy =                       -309.1608438503778871
    Molecular point group: c1
  Basis Set: CC-PVTZ
  Basis Set:
  Basis Set: CC-PVTZ
  Basis Set:
  @DF-RHF Final Energy:  -309.16177880740713
    Total Energy =                       -309.1617788074071314
  Basis Set: CC-PVTZ
  Basis Set:
  Basis Set: CC-PVTZ
  Basis Set:
  @DF-RHF Final Energy:  -309.16196200865818
    Total Energy =                       -309.1619620086579516
  Basis Set: CC-PVTZ
  Basis Set:
  Basis Set: CC-PVTZ
  Basis Set:
  @DF-RHF Final Energy:  -309.16196540046320
    Total Energy =                       -309.1619654004632594
  Basis Set: CC-PVTZ
  Basis Set:
  Charge       = 0
  Multiplicity = 1
  Basis Set: CC-PVTZ
  Basis Set:

    Orbital Energies (a.u.)
    -----------------------

    Doubly Occupied:

       1A    -20.541225     2A    -11.267312     3A    -11.219325
       4A    -11.218385     5A    -11.215465     6A    -11.214343
       7A    -11.207133     8A     -1.361905     9A     -1.111961
      10A     -1.005806    11A     -0.990117    12A     -0.846161
      13A     -0.843725    14A     -0.750133    15A     -0.675676
      16A     -0.667039    17A     -0.615584    18A     -0.609739
      19A     -0.581300    20A     -0.557947    21A     -0.530836
      22A     -0.521844    23A     -0.502889    24A     -0.489345
      25A     -0.469765    26A     -0.450829    27A     -0.429839
      28A     -0.411027

  @DF-RHF Final Energy:  -309.16196575699502

   => Energetics <=

    Nuclear Repulsion Energy =            331.8707701671031032
    One-Electron Energy =               -1077.4521631549041558
    Two-Electron Energy =                 436.4194272308063773
    DFT Exchange-Correlation Energy =       0.0000000000000000
    Empirical Dispersion Energy =           0.0000000000000000
    PCM Polarization Energy =               0.0000000000000000
    EFP Energy =                            0.0000000000000000
    Total Energy =                       -309.1619657569947321
    Molecular point group: c1
  Basis Set: CC-PVTZ
  Basis Set:

  -Total Gradient:
     Atom            X                  Y                   Z
    ------   -----------------  -----------------  -----------------
       1       -0.000173663223     0.000895840684    -0.001004163886
       2        0.000212201270    -0.000907135004     0.001202525228
       3        0.000038729689    -0.001142280881    -0.000023559552
       4       -0.000056212325     0.001113971953    -0.000157322356
       5       -0.000021855442    -0.000005100602    -0.000024885312
       6        0.000036374866    -0.000000165946     0.000011288776
       7        0.000002801050    -0.000002173025    -0.000011021663
       8        0.000004039286    -0.000009492230     0.000004517549
       9       -0.000019302541    -0.000010668452     0.000034289628
      10        0.000009034281     0.000016921076    -0.000002032406
      11        0.000015095050     0.000006679645    -0.000001097776
      12       -0.000011534939     0.000026910159    -0.000016087642
      13        0.000006498285    -0.000015895261     0.000002131854
      14       -0.000009069865     0.000001599450     0.000002417817
      15       -0.000018278067     0.000018216655    -0.000026488055
      16       -0.000001679498     0.000012510436     0.000011515208
      17       -0.000008229796    -0.000000219617     0.000002552983
      18       -0.000013282583    -0.000004943944     0.000003817002
      19        0.000008334503     0.000005424901    -0.000008397397

  **** Optimization is complete! (in 5 steps) ****
    Final optimized geometry and variables:
    Molecular point group: c1

    Geometry (in Angstrom), charge = 0, multiplicity = 1:

    H           -2.594916990353     0.525106120155     0.525653198656
    O           -2.333413250579    -0.121592194594    -0.102369181107
    C           -0.944187150119    -0.068025748313    -0.315835477072
    H           -0.809434437896    -0.213739056747    -1.382285618418
    C           -0.224022099324    -1.188059716463     0.417670308733
    C           -0.355481094422     1.295382327709     0.066895598523
    H           -0.295905842699    -1.004719824948     1.486573672221
    H           -0.733174154762    -2.124803956607     0.230610350212
    C            1.250972029175    -1.272086300373    -0.015815084095
    H           -0.566622032168     2.008261903530    -0.722357908351
    H           -0.864601621318     1.659030019895     0.956765290264
    C            1.157262441908     1.229220285699     0.348023824708
    H            1.838168035897    -1.680345861084     0.799011557786
    H            1.352549098893    -1.967011522686    -0.841904670129
    C            1.820462634399     0.096811976560    -0.431309191397
    H            1.619739713134     2.179435211107     0.109041231883
    H            1.324390115850     1.067402158623     1.408365963010
    H            2.893523599206     0.113504123402    -0.280536821146
    H            1.661194020369     0.257410709754    -1.493335290288

  Mulliken Charges: (a.u.)
   Center  Symbol    Alpha    Beta     Spin     Total
       1     H     0.39379  0.39379  0.00000  0.21242
       2     O     4.20871  4.20871  0.00000 -0.41742
       3     C     2.92814  2.92814  0.00000  0.14372
       4     H     0.44868  0.44868  0.00000  0.10264
       5     C     3.09718  3.09718  0.00000 -0.19436
       6     C     3.11886  3.11886  0.00000 -0.23772
       7     H     0.46079  0.46079  0.00000  0.07842
       8     H     0.44104  0.44104  0.00000  0.11793
       9     C     3.11347  3.11347  0.00000 -0.22694
      10     H     0.44345  0.44345  0.00000  0.11310
      11     H     0.45908  0.45908  0.00000  0.08184
      12     C     3.09981  3.09981  0.00000 -0.19961
      13     H     0.44748  0.44748  0.00000  0.10505
      14     H     0.44659  0.44659  0.00000  0.10683
      15     C     3.10263  3.10263  0.00000 -0.20525
      16     H     0.44156  0.44156  0.00000  0.11688
      17     H     0.45324  0.45324  0.00000  0.09352
      18     H     0.44260  0.44260  0.00000  0.11479
      19     H     0.45292  0.45292  0.00000  0.09416

   Total alpha = 28.00000, Total beta = 28.00000, Total charge = -0.00000
