  ==> Input File <==

--------------------------------------------------------------------------
set {
	reference rhf
	basis cc-pvtz
}

set_num_threads( 4 )
memory 2 gb

molecule MOL {
0 1

H	 1.370245	 0.823678	 -2.513750
C	 0.640663	 0.643809	 -1.734881
C	 1.322304	 0.099773	 -0.484271
H	 0.134307	 1.580697	 -1.531869
H	 -0.091248	 -0.056479	 -2.121202
C	 0.308557	 -0.162619	 0.622645
H	 2.060055	 0.806154	 -0.124433
H	 1.839007	 -0.824099	 -0.713218
N	 -1.069352	 -0.004081	 0.085342
H	 0.371632	 -1.172932	 0.991288
H	 0.400391	 0.548875	 1.426218
O	 -1.584901	 -0.965470	 -0.377818
O	 -1.548033	 1.079343	 0.130056

	symmetry c1
}
set optking {
	frozen_dihedral = ("
		7 3 6 9
	")
}

ee = optimize('scf')
oeprop('DIPOLE', 'QUADRUPOLE', 'MULLIKEN_CHARGES')
f=open( 'psi4out.xyz', 'w' )
f.write( "13  " )
f.write( str(ee) + "\n" )
f.write( MOL.save_string_xyz() )
f.close()
--------------------------------------------------------------------------

    Molecular point group: c1
  Charge       = 0
  Multiplicity = 1
  Basis Set: CC-PVTZ
  Basis Set:
  @DF-RHF Final Energy:  -321.84901591094712
    Total Energy =                       -321.8490159109471733
    Molecular point group: c1
  Basis Set: CC-PVTZ
  Basis Set:
  Basis Set: CC-PVTZ
  Basis Set:
  @DF-RHF Final Energy:  -321.84810921510336
    Total Energy =                       -321.8481092151030794
  Basis Set: CC-PVTZ
  Basis Set:
  Basis Set: CC-PVTZ
  Basis Set:
  @DF-RHF Final Energy:  -321.85223463498994
    Total Energy =                       -321.8522346349898271
  Basis Set: CC-PVTZ
  Basis Set:
  Basis Set: CC-PVTZ
  Basis Set:
  @DF-RHF Final Energy:  -321.85355949914663
    Total Energy =                       -321.8535594991463427
  Basis Set: CC-PVTZ
  Basis Set:
  @DF-RHF Final Energy:  -321.85361886217817
    Total Energy =                       -321.8536188621781093
  @DF-RHF Final Energy:  -321.85363143385860
    Total Energy =                       -321.8536314338586521
  Basis Set: CC-PVTZ
  Basis Set:
  @DF-RHF Final Energy:  -321.85363953284411
    Total Energy =                       -321.8536395328441131
  Basis Set: CC-PVTZ
  Basis Set:
  Basis Set: CC-PVTZ
  Basis Set:
  @DF-RHF Final Energy:  -321.85364635389033
    Total Energy =                       -321.8536463538903263
  Basis Set: CC-PVTZ
  Basis Set:
  Basis Set: CC-PVTZ
  Basis Set:
  @DF-RHF Final Energy:  -321.85364741965566
    Total Energy =                       -321.8536474196557720
  Basis Set: CC-PVTZ
  Basis Set:
  Charge       = 0
  Multiplicity = 1
  Basis Set: CC-PVTZ
  Basis Set:

    Orbital Energies (a.u.)
    -----------------------

    Doubly Occupied:

       1A    -20.591390     2A    -20.589945     3A    -15.836903
       4A    -11.297301     5A    -11.255436     6A    -11.226905
       7A     -1.636274     8A     -1.420382     9A     -1.128085
      10A     -1.022064    11A     -0.895629    12A     -0.822431
      13A     -0.754059    14A     -0.738357    15A     -0.729254
      16A     -0.668494    17A     -0.605718    18A     -0.589802
      19A     -0.536622    20A     -0.517280    21A     -0.512287
      22A     -0.480725    23A     -0.475437    24A     -0.453508

  @DF-RHF Final Energy:  -321.85364763663006

   => Energetics <=

    Nuclear Repulsion Energy =            254.8441901480640297
    One-Electron Energy =                -943.8270948834642695
    Two-Electron Energy =                 367.1292570987701538
    DFT Exchange-Correlation Energy =       0.0000000000000000
    Empirical Dispersion Energy =           0.0000000000000000
    PCM Polarization Energy =               0.0000000000000000
    EFP Energy =                            0.0000000000000000
    Total Energy =                       -321.8536476366300576
    Molecular point group: c1
  Basis Set: CC-PVTZ
  Basis Set:

  -Total Gradient:
     Atom            X                  Y                   Z
    ------   -----------------  -----------------  -----------------
       1        0.000001485471     0.000000009964    -0.000002925279
       2       -0.000007129045     0.000013594838    -0.000016112846
       3        0.001806006257    -0.001684696543     0.001218851714
       4        0.000002730748    -0.000002228409    -0.000006471561
       5        0.000007735544     0.000004630012    -0.000000368729
       6       -0.000323575446    -0.002221736815    -0.000828442795
       7       -0.001501511629     0.001977417527    -0.000852851583
       8        0.000003761463    -0.000002090841     0.000004662859
       9       -0.000010073241     0.001921324282     0.000478915669
      10       -0.000002346144     0.000001658955    -0.000000654019
      11       -0.000001522864     0.000000163592     0.000000254003
      12        0.000008505873     0.000007763406     0.000004968530
      13        0.000015933014    -0.000015809967     0.000000174040

  **** Optimization is complete! (in 10 steps) ****
    Final optimized geometry and variables:
    Molecular point group: c1

    Geometry (in Angstrom), charge = 0, multiplicity = 1:

    H            1.899869293169     0.717863795374    -2.278425045699
    C            1.096544203286     0.556226079274    -1.571145823894
    C            1.678830099028     0.000052089126    -0.271686085411
    H            0.596471067402     1.502476694930    -1.411606400409
    H            0.390684723355    -0.129466543746    -2.020507717627
    C            0.675528374077    -0.267313570267     0.875562151914
    H            2.403651424959     0.711255800765     0.102040654896
    H            2.206373202644    -0.919514754075    -0.483972757859
    N           -0.740034235629    -0.133186427794     0.437912311835
    H            0.763947193340    -1.270203350959     1.255237357036
    H            0.787742122082     0.446577901205     1.672341480004
    O           -1.249043917658    -1.085943927890    -0.051390169039
    O           -1.262230734601     0.919026378975     0.593110872086

  Mulliken Charges: (a.u.)
   Center  Symbol    Alpha    Beta     Spin     Total
       1     H     0.44600  0.44600  0.00000  0.10801
       2     C     3.15400  3.15400  0.00000 -0.30801
       3     C     3.09429  3.09429  0.00000 -0.18857
       4     H     0.44288  0.44288  0.00000  0.11423
       5     H     0.44250  0.44250  0.00000  0.11501
       6     C     3.03985  3.03985  0.00000 -0.07969
       7     H     0.44581  0.44581  0.00000  0.10839
       8     H     0.44381  0.44381  0.00000  0.11238
       9     N     3.27432  3.27432  0.00000  0.45136
      10     H     0.43248  0.43248  0.00000  0.13504
      11     H     0.43414  0.43414  0.00000  0.13172
      12     O     4.17522  4.17522  0.00000 -0.35044
      13     O     4.17471  4.17471  0.00000 -0.34942

   Total alpha = 24.00000, Total beta = 24.00000, Total charge = -0.00000
