                              Psi4 1.0.54 Driver

  ==> Input File <==

--------------------------------------------------------------------------
set {
	reference rhf
	basis cc-pvtz
}

set_num_threads( 4 )
memory 2 gb

molecule MOL {
0 1

O	 1.199770	 1.412055	 -0.018484
C	 0.860910	 0.273282	 -0.013121
C	 -0.623301	 -0.117375	 -0.005653
C	 1.908477	 -0.822430	 -0.006663
C	 -0.892521	 -1.253763	 -1.002901
C	 -1.473396	 1.100724	 -0.372897
C	 -0.981769	 -0.578947	 1.418505
H	 -0.609266	 -0.969946	 -2.010650
H	 -1.950384	 -1.487275	 -1.013176
H	 -0.360781	 -2.161181	 -0.746464
H	 -1.232136	 1.461701	 -1.364828
H	 -2.524297	 0.834529	 -0.354501
H	 -1.312314	 1.914911	 0.318656
H	 -2.035639	 -0.826264	 1.468081
H	 -0.425011	 -1.458856	 1.716856
H	 -0.788427	 0.205125	 2.140902
H	 2.006248	 -1.227457	 -1.007741
H	 2.854780	 -0.395982	 0.288501
H	 1.649931	 -1.640086	 0.651991

	symmetry c1
}
ee,wfn = energy('scf', return_wfn=True)
oeprop( wfn, 'DIPOLE', 'QUADRUPOLE', 'MULLIKEN_CHARGES')
oeprop( wfn, 'GRID_ESP')
f=open( 'psi4out.xyz', 'w' )
f.write( "19  " )
f.write( str(ee) + "\n" )
f.write( MOL.save_string_xyz() )
f.close()
--------------------------------------------------------------------------

    Molecular point group: c1

    Geometry (in Angstrom), charge = 0, multiplicity = 1:

       Center              X                  Y                   Z               Mass
    ------------   -----------------  -----------------  -----------------  -----------------
           O          1.199702745029     1.411976968130    -0.018483027686    15.994914619560
           C          0.860842745029     0.273203968130    -0.013120027686    12.000000000000
           C         -0.623368254971    -0.117453031870    -0.005652027686    12.000000000000
           C          1.908409745029    -0.822508031870    -0.006662027686    12.000000000000
           C         -0.892588254971    -1.253841031870    -1.002900027686    12.000000000000
           C         -1.473463254971     1.100645968130    -0.372896027686    12.000000000000
           C         -0.981836254971    -0.579025031870     1.418505972314    12.000000000000
           H         -0.609333254971    -0.970024031870    -2.010649027686     1.007825032070
           H         -1.950451254971    -1.487353031870    -1.013175027686     1.007825032070
           H         -0.360848254971    -2.161259031870    -0.746463027686     1.007825032070
           H         -1.232203254971     1.461622968130    -1.364827027686     1.007825032070
           H         -2.524364254971     0.834450968130    -0.354500027686     1.007825032070
           H         -1.312381254971     1.914832968130     0.318656972314     1.007825032070
           H         -2.035706254971    -0.826342031870     1.468081972314     1.007825032070
           H         -0.425078254971    -1.458934031870     1.716856972314     1.007825032070
           H         -0.788494254971     0.205046968130     2.140902972314     1.007825032070
           H          2.006180745029    -1.227535031870    -1.007740027686     1.007825032070
           H          2.854712745029    -0.396060031870     0.288501972314     1.007825032070
           H          1.649863745029    -1.640164031870     0.651991972314     1.007825032070

  Charge       = 0
  Multiplicity = 1
  Basis Set: CC-PVTZ
  Basis Set:

    Orbital Energies (a.u.)
    -----------------------

    Doubly Occupied:

       1A    -20.537355     2A    -11.317766     3A    -11.245711
       4A    -11.225185     5A    -11.222431     6A    -11.221972
       7A    -11.206411     8A     -1.398441     9A     -1.110933
      10A     -1.003108    11A     -0.947833    12A     -0.935867
      13A     -0.835838    14A     -0.705441    15A     -0.666747
      16A     -0.634052    17A     -0.621635    18A     -0.599287
      19A     -0.592926    20A     -0.565997    21A     -0.546674
      22A     -0.545257    23A     -0.524419    24A     -0.514753
      25A     -0.501895    26A     -0.472814    27A     -0.468328
      28A     -0.394782

  @DF-RHF Final Energy:  -309.17429576210975

   => Energetics <=

    Nuclear Repulsion Energy =            326.9170168663238201
    One-Electron Energy =               -1067.0546406493760969
    Two-Electron Energy =                 430.9633280209422992
    DFT Exchange-Correlation Energy =       0.0000000000000000
    Empirical Dispersion Energy =           0.0000000000000000
    PCM Polarization Energy =               0.0000000000000000
    EFP Energy =                            0.0000000000000000
    Total Energy =                       -309.1742957621099777

  Mulliken Charges: (a.u.)
   Center  Symbol    Alpha    Beta     Spin     Total
       1     O     4.17552  4.17552  0.00000 -0.35105
       2     C     2.85294  2.85294  0.00000  0.29411
       3     C     3.00876  3.00876  0.00000 -0.01751
       4     C     3.16338  3.16338  0.00000 -0.32675
       5     C     3.16410  3.16410  0.00000 -0.32819
       6     C     3.15017  3.15017  0.00000 -0.30034
       7     C     3.15876  3.15876  0.00000 -0.31752
       8     H     0.44302  0.44302  0.00000  0.11396
       9     H     0.44284  0.44284  0.00000  0.11433
      10     H     0.44582  0.44582  0.00000  0.10837
      11     H     0.44655  0.44655  0.00000  0.10689
      12     H     0.45198  0.45198  0.00000  0.09603
      13     H     0.43931  0.43931  0.00000  0.12137
      14     H     0.44534  0.44534  0.00000  0.10933
      15     H     0.44608  0.44608  0.00000  0.10785
      16     H     0.44152  0.44152  0.00000  0.11697
      17     H     0.44542  0.44542  0.00000  0.10916
      18     H     0.43179  0.43179  0.00000  0.13642
      19     H     0.44671  0.44671  0.00000  0.10658

   Total alpha = 28.00000, Total beta = 28.00000, Total charge =  0.00000

*** Psi4 exiting successfully. Buy a developer a beer!
