  ==> Input File <==

--------------------------------------------------------------------------
set {
	reference rhf
	basis 6-31G*
}

set_num_threads( 4 )
memory 2 gb

molecule MOL {
0 1

O	 -0.291628	 1.323815	 -0.000732
C	 -0.449655	 0.146360	 0.000961
C	 -1.783294	 -0.549321	 -0.000296
O	 0.550821	 -0.724572	 0.000672
H	 -1.863538	 -1.185371	 -0.874187
H	 -2.574672	 0.185258	 -0.002793
H	 -1.866414	 -1.182381	 0.875436
C	 1.447904	 -0.671125	 -1.094165
H	 0.926093	 -0.857132	 -2.021780
H	 2.178781	 -1.443944	 -0.914391
H	 1.928546	 0.295232	 -1.143954

	symmetry c1
}
set optking {
	frozen_dihedral = ("
		8 4 2 1
	")
}

ee = optimize('scf')
oeprop('DIPOLE', 'QUADRUPOLE', 'MULLIKEN_CHARGES')
f=open( 'psi4out.xyz', 'w' )
f.write( "11  " )
f.write( str(ee) + "\n" )
f.write( MOL.save_string_xyz() )
f.close()
--------------------------------------------------------------------------

    Molecular point group: c1
  Charge       = 0
  Multiplicity = 1
  Basis Set: 6-31G*
  Basis Set:
  @DF-RHF Final Energy:  -266.82097026058375
    Total Energy =                       -266.8209702605839198
    Molecular point group: c1
  Basis Set: 6-31G*
  Basis Set:
  Basis Set: 6-31G*
  Basis Set:
  @DF-RHF Final Energy:  -266.81883840541559
    Total Energy =                       -266.8188384054152493
  Basis Set: 6-31G*
  Basis Set:
  Basis Set: 6-31G*
  Basis Set:
  @DF-RHF Final Energy:  -266.82193002478925
    Total Energy =                       -266.8219300247891397
  Basis Set: 6-31G*
  Basis Set:
  Basis Set: 6-31G*
  Basis Set:
  @DF-RHF Final Energy:  -266.82202328870540
    Total Energy =                       -266.8220232887054522
  Basis Set: 6-31G*
  Basis Set:
  Basis Set: 6-31G*
  Basis Set:
  @DF-RHF Final Energy:  -266.82202808244779
    Total Energy =                       -266.8220280824475594
  Basis Set: 6-31G*
  Basis Set:
  Charge       = 0
  Multiplicity = 1
  Basis Set: 6-31G*
  Basis Set:

    Orbital Energies (a.u.)
    -----------------------

    Doubly Occupied:

       1A    -20.591600     2A    -20.555110     3A    -11.378741
       4A    -11.288744     5A    -11.236547     6A     -1.462663
       7A     -1.367237     8A     -1.030654     9A     -0.957699
      10A     -0.777396    11A     -0.694913    12A     -0.680770
      13A     -0.670446    14A     -0.605709    15A     -0.593189
      16A     -0.570917    17A     -0.536306    18A     -0.504828
      19A     -0.456181    20A     -0.441229

  @DF-RHF Final Energy:  -266.82202873680495

   => Energetics <=

    Nuclear Repulsion Energy =            182.3986011952195554
    One-Electron Energy =                -725.6394995390437543
    Two-Electron Energy =                 276.4188696070191327
    DFT Exchange-Correlation Energy =       0.0000000000000000
    Empirical Dispersion Energy =           0.0000000000000000
    PCM Polarization Energy =               0.0000000000000000
    EFP Energy =                            0.0000000000000000
    Total Energy =                       -266.8220287368051231
    Molecular point group: c1
  Basis Set: 6-31G*
  Basis Set:

  -Total Gradient:
     Atom            X                  Y                   Z
    ------   -----------------  -----------------  -----------------
       1       -0.000330880454    -0.000352800702     0.008895659064
       2       -0.001350267409    -0.001632491906    -0.014932505673
       3       -0.000001045848     0.000018331230    -0.000064204461
       4        0.005562488607     0.006352178636     0.009894186787
       5        0.000007795905    -0.000006078652     0.000035738423
       6       -0.000022391912    -0.000000052732     0.000014759577
       7        0.000002640439     0.000014356011     0.000012239938
       8       -0.003883250225    -0.004373295361    -0.003861816894
       9        0.000005329438    -0.000012485042     0.000000438237
      10       -0.000000309018     0.000006646798     0.000000474057
      11        0.000009890478    -0.000014308278     0.000005030943

  **** Optimization is complete! (in 6 steps) ****
    Final optimized geometry and variables:
    Molecular point group: c1

    Geometry (in Angstrom), charge = 0, multiplicity = 1:

    O           -0.194547225557     1.414404597683     0.255288581309
    C           -0.374550327292     0.246009722704     0.203231050229
    C           -1.721999325820    -0.419230419669     0.250941748450
    O            0.632812776391    -0.646813395038     0.203936536762
    H           -1.863428429770    -1.024206936946    -0.638340556718
    H           -2.502035366772     0.324207257071     0.322255044419
    H           -1.762054948355    -1.085911296371     1.104952448589
    C            1.570264781939    -0.560348291851    -0.852122048176
    H            1.099568795713    -0.817639427151    -1.794498237735
    H            2.346104803461    -1.277008899431    -0.632499421811
    H            1.992636612411     0.432810167150    -0.911791613421

  Mulliken Charges: (a.u.)
   Center  Symbol    Alpha    Beta     Spin     Total
       1     O     4.25998  4.25998  0.00000 -0.51997
       2     C     2.62487  2.62487  0.00000  0.75026
       3     C     3.28407  3.28407  0.00000 -0.56813
       4     O     4.30848  4.30848  0.00000 -0.61697
       5     H     0.40517  0.40517  0.00000  0.18967
       6     H     0.39738  0.39738  0.00000  0.20524
       7     H     0.39725  0.39725  0.00000  0.20549
       8     C     3.09426  3.09426  0.00000 -0.18851
       9     H     0.42020  0.42020  0.00000  0.15960
      10     H     0.40478  0.40478  0.00000  0.19043
      11     H     0.40356  0.40356  0.00000  0.19288

   Total alpha = 20.00000, Total beta = 20.00000, Total charge =  0.00000
