                              Psi4 1.0.54 Driver

  ==> Input File <==

--------------------------------------------------------------------------
set {
	reference rhf
	basis cc-pvtz
}

set_num_threads( 4 )
memory 2 gb

molecule MOL {
0 1

H	 -1.447093	 -0.323927	 -0.435655
N	 -0.625934	 -0.663929	 -0.000707
C	 -0.659997	 -1.977497	 0.598020
C	 0.468494	 0.129045	 -0.002160
H	 -1.405067	 -2.026876	 1.383146
H	 0.307816	 -2.181721	 1.023137
H	 -0.884584	 -2.736234	 -0.142193
C	 1.785715	 -0.615093	 0.000603
O	 0.413285	 1.323206	 0.000532
H	 1.866994	 -1.243310	 -0.878792
H	 2.591506	 0.100263	 0.006422
H	 1.860358	 -1.250360	 0.875522

	symmetry c1
}
set optking {
	frozen_dihedral = ("
		3 2 4 9
	")
}

ee,wfn = optimize('scf', return_wfn=True)
oeprop( wfn, 'DIPOLE', 'QUADRUPOLE', 'MULLIKEN_CHARGES')
f=open( 'psi4out.xyz', 'w' )
f.write( "12  " )
f.write( str(ee) + "\n" )
f.write( MOL.save_string_xyz() )
f.close()
--------------------------------------------------------------------------

    Molecular point group: c1
  Charge       = 0
  Multiplicity = 1
  Basis Set: CC-PVTZ
  Basis Set:
  @DF-RHF Final Energy:  -247.08403984450899
    Total Energy =                       -247.0840398445088795
    Molecular point group: c1
  Basis Set: CC-PVTZ
  Basis Set:
  Basis Set: CC-PVTZ
  Basis Set:
  @DF-RHF Final Energy:  -247.08800720177527
    Total Energy =                       -247.0880072017752696
  Basis Set: CC-PVTZ
  Basis Set:
  Basis Set: CC-PVTZ
  Basis Set:
  @DF-RHF Final Energy:  -247.09271941098359
    Total Energy =                       -247.0927194109835909
  Basis Set: CC-PVTZ
  Basis Set:
  Basis Set: CC-PVTZ
  Basis Set:
  @DF-RHF Final Energy:  -247.09079641088053
    Total Energy =                       -247.0907964108805004
  Basis Set: CC-PVTZ
  Basis Set:
  @DF-RHF Final Energy:  -247.08952738963191
    Total Energy =                       -247.0895273896318258
  @DF-RHF Final Energy:  -247.05145010743760
    Total Energy =                       -247.0514501074376312
  @DF-RHF Final Energy:  -247.09297251441629
    Total Energy =                       -247.0929725144164877
  @DF-RHF Final Energy:  -247.09461479039010
    Total Energy =                       -247.0946147903902101
  @DF-RHF Final Energy:  -247.09506278363170
    Total Energy =                       -247.0950627836316471
  @DF-RHF Final Energy:  -247.09525700306821
    Total Energy =                       -247.0952570030682409
  @DF-RHF Final Energy:  -247.09571202884950
    Total Energy =                       -247.0957120288496753
  @DF-RHF Final Energy:  -247.09585848015843
    Total Energy =                       -247.0958584801582560
  @DF-RHF Final Energy:  -247.09598510442285
    Total Energy =                       -247.0959851044229367
  @DF-RHF Final Energy:  -247.09599700284002
    Total Energy =                       -247.0959970028400221
  Basis Set: CC-PVTZ
  Basis Set:
  @DF-RHF Final Energy:  -247.09621680840584
    Total Energy =                       -247.0962168084058135
  Basis Set: CC-PVTZ
  Basis Set:
  Basis Set: CC-PVTZ
  Basis Set:
  @DF-RHF Final Energy:  -247.09623106769263
    Total Energy =                       -247.0962310676927700
  Basis Set: CC-PVTZ
  Basis Set:
  Basis Set: CC-PVTZ
  Basis Set:
  @DF-RHF Final Energy:  -247.09623565658313
    Total Energy =                       -247.0962356565830191
  Basis Set: CC-PVTZ
  Basis Set:
  Charge       = 0
  Multiplicity = 1
  Basis Set: CC-PVTZ
  Basis Set:

    Orbital Energies (a.u.)
    -----------------------

    Doubly Occupied:

       1A    -20.513032     2A    -15.572174     3A    -11.339068
       4A    -11.267859     5A    -11.229070     6A     -1.393684
       7A     -1.230638     8A     -1.007422     9A     -0.954620
      10A     -0.779545    11A     -0.676990    12A     -0.669348
      13A     -0.640882    14A     -0.591551    15A     -0.578886
      16A     -0.562816    17A     -0.555090    18A     -0.516834
      19A     -0.421939    20A     -0.392778

  @DF-RHF Final Energy:  -247.09623645462642

   => Energetics <=

    Nuclear Repulsion Energy =            181.7349251123261524
    One-Electron Energy =                -695.8738677924745843
    Two-Electron Energy =                 267.0427062255220676
    DFT Exchange-Correlation Energy =       0.0000000000000000
    Empirical Dispersion Energy =           0.0000000000000000
    PCM Polarization Energy =               0.0000000000000000
    EFP Energy =                            0.0000000000000000
    Total Energy =                       -247.0962364546263075
    Molecular point group: c1
  Basis Set: CC-PVTZ
  Basis Set:

  -Total Gradient:
     Atom            X                  Y                   Z
    ------   -----------------  -----------------  -----------------
       1        0.000002366273    -0.000007760160    -0.000006383667
       2        0.001680960228    -0.000884444754    -0.002787137445
       3       -0.001119145886     0.000265654469     0.002627386301
       4       -0.000358235025     0.001692841092    -0.003122261477
       5        0.000000964964     0.000001095669     0.000003269881
       6        0.000005154495    -0.000002972943     0.000003026818
       7       -0.000000794217     0.000001256092    -0.000001060148
       8        0.000002681836    -0.000001153151    -0.000011015467
       9       -0.000214937686    -0.001059835387     0.003279236379
      10       -0.000014099652    -0.000045111642     0.000016613139
      11       -0.000000803876     0.000007704380    -0.000037037223
      12        0.000015888546     0.000032726338     0.000035362911

  **** Optimization is complete! (in 16 steps) ****
    Final optimized geometry and variables:
    Molecular point group: c1

    Geometry (in Angstrom), charge = 0, multiplicity = 1:

    H           -1.736067359248     0.106533424378    -0.111759742908
    N           -0.853740821554    -0.314682414448    -0.295081660230
    C           -0.816805049638    -1.751675312108    -0.127207878126
    C            0.168606306967     0.524094152154     0.046633848086
    H           -0.752850067390    -2.055275086827     0.913703272463
    H            0.017329542374    -2.181772974870    -0.662089849253
    H           -1.720795075652    -2.169114900633    -0.546718311395
    C            1.570612392225    -0.028952446194    -0.051160360476
    O           -0.042257993763     1.645931499241     0.395433140775
    H            1.735064493516    -0.517636351860    -1.002784979143
    H            2.265404854939     0.786009217446     0.068866534328
    H            1.741731350646    -0.757232570310     0.733478937692

  Mulliken Charges: (a.u.)
   Center  Symbol    Alpha    Beta     Spin     Total
       1     H     0.41913  0.41913  0.00000  0.16175
       2     N     3.60801  3.60801  0.00000 -0.21601
       3     C     3.08824  3.08824  0.00000 -0.17647
       4     C     2.84401  2.84401  0.00000  0.31198
       5     H     0.45663  0.45663  0.00000  0.08674
       6     H     0.45193  0.45193  0.00000  0.09614
       7     H     0.44322  0.44322  0.00000  0.11356
       8     C     3.16072  3.16072  0.00000 -0.32144
       9     O     4.20387  4.20387  0.00000 -0.40773
      10     H     0.44588  0.44588  0.00000  0.10824
      11     H     0.42945  0.42945  0.00000  0.14110
      12     H     0.44893  0.44893  0.00000  0.10215

   Total alpha = 20.00000, Total beta = 20.00000, Total charge = -0.00000

*** Psi4 exiting successfully. Buy a developer a beer!
