  ==> Input File <==

--------------------------------------------------------------------------
set {
	reference rhf
	basis 6-31G*
}

set_num_threads( 4 )
memory 2 gb

molecule MOL {
0 1

H	 3.012738	 -2.295243	 -2.258853
C	 2.805668	 -1.868743	 -1.282651
C	 1.544116	 -1.007118	 -1.315094
H	 2.701875	 -2.690318	 -0.579466
H	 3.674170	 -1.287589	 -0.985647
C	 1.217350	 -0.386724	 0.039429
H	 0.693785	 -1.599516	 -1.638187
H	 1.668016	 -0.215180	 -2.051895
N	 0.000003	 0.397874	 -0.023260
H	 1.067906	 -1.177841	 0.769336
H	 2.073414	 0.199565	 0.389855
C	 -1.217365	 -0.386708	 0.039277
H	 -0.000031	 1.072115	 0.718656
C	 -2.452633	 0.504241	 -0.042481
H	 -1.215291	 -1.074557	 -0.802042
H	 -1.269739	 -1.003477	 0.942735
C	 -3.758029	 -0.289423	 -0.010781
H	 -2.394220	 1.093569	 -0.952170
H	 -2.440793	 1.210787	 0.785871
H	 -3.816659	 -0.981993	 -0.845726
H	 -4.617837	 0.370165	 -0.069296
H	 -3.847478	 -0.867502	 0.904682

	symmetry c1
}
set optking {
	frozen_dihedral = ("
		10 6 9 12
	")
}

ee = optimize('scf')
oeprop('DIPOLE', 'QUADRUPOLE', 'MULLIKEN_CHARGES')
f=open( 'psi4out.xyz', 'w' )
f.write( "22  " )
f.write( str(ee) + "\n" )
f.write( MOL.save_string_xyz() )
f.close()
--------------------------------------------------------------------------

    Molecular point group: c1
  Charge       = 0
  Multiplicity = 1
  Basis Set: 6-31G*
  Basis Set:
  @DF-RHF Final Energy:  -290.37927109544421
    Total Energy =                       -290.3792710954443237
    Molecular point group: c1
  Basis Set: 6-31G*
  Basis Set:
  Basis Set: 6-31G*
  Basis Set:
  @DF-RHF Final Energy:  -290.38086848294023
    Total Energy =                       -290.3808684829404001
  Basis Set: 6-31G*
  Basis Set:
  Basis Set: 6-31G*
  Basis Set:
  @DF-RHF Final Energy:  -290.38122653245517
    Total Energy =                       -290.3812265324547184
  Basis Set: 6-31G*
  Basis Set:
  Basis Set: 6-31G*
  Basis Set:
  @DF-RHF Final Energy:  -290.38123225470571
    Total Energy =                       -290.3812322547054237
  Basis Set: 6-31G*
  Basis Set:
  Charge       = 0
  Multiplicity = 1
  Basis Set: 6-31G*
  Basis Set:

    Orbital Energies (a.u.)
    -----------------------

    Doubly Occupied:

       1A    -15.533841     2A    -11.238659     3A    -11.237838
       4A    -11.213885     5A    -11.209981     6A    -11.208708
       7A    -11.207426     8A     -1.203766     9A     -1.056571
      10A     -1.026009    11A     -0.928337    12A     -0.872470
      13A     -0.807610    14A     -0.788198    15A     -0.662157
      16A     -0.640570    17A     -0.615606    18A     -0.603637
      19A     -0.577914    20A     -0.554329    21A     -0.548607
      22A     -0.523821    23A     -0.499991    24A     -0.488824
      25A     -0.480851    26A     -0.472104    27A     -0.460841
      28A     -0.455143    29A     -0.358382

  @DF-RHF Final Energy:  -290.38123278599647

   => Energetics <=

    Nuclear Repulsion Energy =            316.5857785798639839
    One-Electron Energy =               -1018.9818680217140354
    Two-Electron Energy =                 412.0148566558536345
    DFT Exchange-Correlation Energy =       0.0000000000000000
    Empirical Dispersion Energy =           0.0000000000000000
    PCM Polarization Energy =               0.0000000000000000
    EFP Energy =                            0.0000000000000000
    Total Energy =                       -290.3812327859964739
    Molecular point group: c1
  Basis Set: 6-31G*
  Basis Set:

  -Total Gradient:
     Atom            X                  Y                   Z
    ------   -----------------  -----------------  -----------------
       1        0.000014943608    -0.000023790136     0.000000191749
       2       -0.000005302125    -0.000046545713    -0.000036095609
       3        0.000049060657     0.000061780021     0.000044492160
       4       -0.000002498896     0.000015250935     0.000009313805
       5       -0.000010686169     0.000005789716    -0.000016449239
       6        0.000239410610     0.000446190517     0.000728203719
       7        0.000011266163     0.000011033696     0.000021180369
       8        0.000007512268     0.000003994058    -0.000018957568
       9       -0.000103607878    -0.000155229538    -0.000726895298
      10       -0.000214284089    -0.000375160818    -0.000411008029
      11        0.000005298212    -0.000013519812    -0.000037500140
      12        0.000028425265     0.000060799086     0.000445366519
      13       -0.000037782271     0.000021659896     0.000004625575
      14        0.000010548740    -0.000001363689    -0.000000349451
      15       -0.000007574475    -0.000005986770    -0.000005526984
      16        0.000003747733     0.000011564436    -0.000000663715
      17       -0.000000739840    -0.000007681442    -0.000003162403
      18        0.000003267919    -0.000000301377     0.000002443823
      19        0.000009068608    -0.000009692069    -0.000000047240
      20        0.000000430383    -0.000001037964     0.000001455694
      21        0.000000452224     0.000001121943    -0.000001004382
      22       -0.000000956643     0.000001125023     0.000000386646

  **** Optimization is complete! (in 5 steps) ****
    Final optimized geometry and variables:
    Molecular point group: c1

    Geometry (in Angstrom), charge = 0, multiplicity = 1:

    H            3.406059269110    -1.791857185371    -1.881065033810
    C            3.148903625151    -1.388722640987    -0.906733029494
    C            1.852428350155    -0.581572832111    -0.968511545527
    H            3.062348805682    -2.224215723449    -0.217374260837
    H            3.980992237541    -0.773299366539    -0.575366349183
    C            1.465012700841     0.004623479916     0.388145983346
    H            1.052630731996    -1.217021885156    -1.338499194932
    H            1.951698203145     0.234512556761    -1.677561092521
    N            0.249779342930     0.800829602318     0.322078851617
    H            1.384766227925    -0.803651643666     1.121335520372
    H            2.268394564930     0.652997122242     0.724912999350
    C           -0.986720723076     0.045832511095     0.404189529403
    H            0.260743948148     1.482805759649     1.054711369296
    C           -2.197887487042     0.969704311873     0.326847726030
    H           -1.022048097087    -0.652626301115    -0.425537420736
    H           -1.041637657358    -0.555703984608     1.317647242319
    C           -3.524203766630     0.213618516701     0.390847756388
    H           -2.137285806250     1.543191473976    -0.592798566716
    H           -2.153398678268     1.688469184995     1.143581103493
    H           -3.614790887776    -0.490535062627    -0.431435377145
    H           -4.366017396365     0.896167916540     0.333825701893
    H           -3.615960536182    -0.346662245431     1.317082509039

  Mulliken Charges: (a.u.)
   Center  Symbol    Alpha    Beta     Spin     Total
       1     H     0.41799  0.41799  0.00000  0.16401
       2     C     3.24469  3.24469  0.00000 -0.48937
       3     C     3.14864  3.14864  0.00000 -0.29728
       4     H     0.42222  0.42222  0.00000  0.15556
       5     H     0.42230  0.42230  0.00000  0.15539
       6     C     3.05505  3.05505  0.00000 -0.11009
       7     H     0.42274  0.42274  0.00000  0.15452
       8     H     0.41548  0.41548  0.00000  0.16904
       9     N     3.85639  3.85639  0.00000 -0.71277
      10     H     0.43413  0.43413  0.00000  0.13173
      11     H     0.42206  0.42206  0.00000  0.15589
      12     C     3.05115  3.05115  0.00000 -0.10229
      13     H     0.33248  0.33248  0.00000  0.33504
      14     C     3.15519  3.15519  0.00000 -0.31039
      15     H     0.42054  0.42054  0.00000  0.15892
      16     H     0.43594  0.43594  0.00000  0.12813
      17     C     3.24322  3.24322  0.00000 -0.48644
      18     H     0.41289  0.41289  0.00000  0.17422
      19     H     0.42687  0.42687  0.00000  0.14625
      20     H     0.42073  0.42073  0.00000  0.15853
      21     H     0.41768  0.41768  0.00000  0.16465
      22     H     0.42164  0.42164  0.00000  0.15673

   Total alpha = 29.00000, Total beta = 29.00000, Total charge = -0.00000
