  ==> Input File <==

--------------------------------------------------------------------------
set {
	reference rhf
	basis cc-pvtz
}

set_num_threads( 4 )
memory 2 gb

molecule MOL {
0 1

H	 -1.388147	 -1.442015	 4.049714
C	 -0.728238	 -1.258161	 3.224589
C	 -0.842873	 -1.993504	 2.053281
C	 0.245320	 -0.290239	 3.309367
H	 -1.596755	 -2.753139	 1.968724
C	 0.000518	 -1.761239	 0.993674
H	 0.349371	 0.288869	 4.207419
C	 1.105512	 -0.042664	 2.248619
H	 -0.079655	 -2.323741	 0.084370
C	 0.982947	 -0.780945	 1.085865
H	 1.852608	 0.717469	 2.346123
O	 1.760432	 -0.625184	 0.000000
C	 2.773565	 0.334879	 0.000000
H	 2.728295	 0.960928	 -0.884150
H	 3.706387	 -0.206610	 0.000000
H	 2.728295	 0.960928	 0.884150

	symmetry c1
}
set optking {
	frozen_dihedral = ("
		10 12 13 14
	")
}

ee = optimize('scf')
oeprop('DIPOLE', 'QUADRUPOLE', 'MULLIKEN_CHARGES')
f=open( 'psi4out.xyz', 'w' )
f.write( "16  " )
f.write( str(ee) + "\n" )
f.write( MOL.save_string_xyz() )
f.close()
--------------------------------------------------------------------------

    Molecular point group: c1
  Charge       = 0
  Multiplicity = 1
  Basis Set: CC-PVTZ
  Basis Set:
  @DF-RHF Final Energy:  -344.69536059963900
    Total Energy =                       -344.6953605996389456
    Molecular point group: c1
  Basis Set: CC-PVTZ
  Basis Set:
  Basis Set: CC-PVTZ
  Basis Set:
  @DF-RHF Final Energy:  -344.69447627065625
    Total Energy =                       -344.6944762706564234
  Basis Set: CC-PVTZ
  Basis Set:
  Basis Set: CC-PVTZ
  Basis Set:
  @DF-RHF Final Energy:  -344.69823284337622
    Total Energy =                       -344.6982328433763314
  Basis Set: CC-PVTZ
  Basis Set:
  Basis Set: CC-PVTZ
  Basis Set:
  @DF-RHF Final Energy:  -344.69874482021106
    Total Energy =                       -344.6987448202112319
  Basis Set: CC-PVTZ
  Basis Set:
  @DF-RHF Final Energy:  -344.69963003801848
    Total Energy =                       -344.6996300380186540
  @DF-RHF Final Energy:  -344.69985193601150
    Total Energy =                       -344.6998519360114415
  Basis Set: CC-PVTZ
  Basis Set:
  @DF-RHF Final Energy:  -344.69987176951798
    Total Energy =                       -344.6998717695179266
  Basis Set: CC-PVTZ
  Basis Set:
  Basis Set: CC-PVTZ
  Basis Set:
  @DF-RHF Final Energy:  -344.69987848654620
    Total Energy =                       -344.6998784865461971
  Basis Set: CC-PVTZ
  Basis Set:
  Basis Set: CC-PVTZ
  Basis Set:
  @DF-RHF Final Energy:  -344.69987951410781
    Total Energy =                       -344.6998795141076926
  Basis Set: CC-PVTZ
  Basis Set:
  Charge       = 0
  Multiplicity = 1
  Basis Set: CC-PVTZ
  Basis Set:

    Orbital Energies (a.u.)
    -----------------------

    Doubly Occupied:

       1A    -20.573653     2A    -11.291907     3A    -11.277057
       4A    -11.231503     5A    -11.230095     6A    -11.222629
       7A    -11.218616     8A    -11.218504     9A     -1.412314
      10A     -1.151225    11A     -1.023999    12A     -1.017207
      13A     -0.941709    14A     -0.835819    15A     -0.808751
      16A     -0.723031    17A     -0.667307    18A     -0.666835
      19A     -0.653438    20A     -0.617381    21A     -0.592940
      22A     -0.583777    23A     -0.528360    24A     -0.518425
      25A     -0.511098    26A     -0.483873    27A     -0.456225
      28A     -0.339502    29A     -0.313036

  @DF-RHF Final Energy:  -344.69987971784224

   => Energetics <=

    Nuclear Repulsion Energy =            348.3901567418728291
    One-Electron Energy =               -1157.9596448652559957
    Two-Electron Energy =                 464.8696084055408164
    DFT Exchange-Correlation Energy =       0.0000000000000000
    Empirical Dispersion Energy =           0.0000000000000000
    PCM Polarization Energy =               0.0000000000000000
    EFP Energy =                            0.0000000000000000
    Total Energy =                       -344.6998797178423501
    Molecular point group: c1
  Basis Set: CC-PVTZ
  Basis Set:

  -Total Gradient:
     Atom            X                  Y                   Z
    ------   -----------------  -----------------  -----------------
       1       -0.000011030209    -0.000000763752    -0.000010013192
       2       -0.000009298368    -0.000021166062    -0.000024259267
       3       -0.000006737790    -0.000010346682     0.000039643623
       4        0.000024023232    -0.000010926579     0.000011845963
       5       -0.000011349873    -0.000002277632     0.000010993729
       6        0.000000144705    -0.000012008982    -0.000028306520
       7       -0.000008923844     0.000002739637    -0.000007938219
       8        0.000026906018     0.000016575364     0.000001825910
       9       -0.000002518667     0.000005218562     0.000016803026
      10       -0.001605624097     0.000617505545    -0.001346621554
      11       -0.000008533616    -0.000014369112    -0.000004440927
      12        0.001868943011    -0.000558453560     0.002113183473
      13        0.001800122538    -0.001225902478    -0.001147433869
      14       -0.002058062437     0.001233067480     0.000376876848
      15        0.000002453303     0.000005146831     0.000002359225
      16       -0.000000513908    -0.000024038580    -0.000004518252

  **** Optimization is complete! (in 10 steps) ****
    Final optimized geometry and variables:
    Molecular point group: c1

    Geometry (in Angstrom), charge = 0, multiplicity = 1:

    H           -2.313894643471    -0.506421108736     2.359783604177
    C           -1.574814824140    -0.389089271955     1.591436273468
    C           -1.690016282165    -1.077145816132     0.395597640513
    C           -0.493528098148     0.445101416882     1.782726794113
    H           -2.524510337734    -1.732418931411     0.232024661890
    C           -0.745335275229    -0.925352954962    -0.596174958980
    H           -0.383841259048     0.977538745027     2.708506954838
    C            0.467169419356     0.600393397599     0.798234816551
    H           -0.826260387792    -1.451792874414    -1.526711510897
    C            0.336695178619    -0.080789906093    -0.399693867809
    H            1.312991655236     1.234644498987     0.974776690797
    O            1.245298813271    -0.012943102441    -1.393471110170
    C            1.912407539891     1.189298672348    -1.670598547278
    H            1.832290942155     1.375869642776    -2.732636621622
    H            2.955749971612     1.112188574861    -1.392557851483
    H            1.466209810768     2.024685371895    -1.148958118383

  Mulliken Charges: (a.u.)
   Center  Symbol    Alpha    Beta     Spin     Total
       1     H     0.42422  0.42422  0.00000  0.15156
       2     C     3.09733  3.09733  0.00000 -0.19467
       3     C     3.06019  3.06019  0.00000 -0.12038
       4     C     3.06473  3.06473  0.00000 -0.12946
       5     H     0.42279  0.42279  0.00000  0.15442
       6     C     3.11080  3.11080  0.00000 -0.22161
       7     H     0.42286  0.42286  0.00000  0.15428
       8     C     3.12933  3.12933  0.00000 -0.25867
       9     H     0.41926  0.41926  0.00000  0.16148
      10     C     2.85661  2.85661  0.00000  0.28678
      11     H     0.42338  0.42338  0.00000  0.15324
      12     O     4.16366  4.16366  0.00000 -0.32732
      13     C     3.03878  3.03878  0.00000 -0.07755
      14     H     0.44718  0.44718  0.00000  0.10564
      15     H     0.45419  0.45419  0.00000  0.09162
      16     H     0.46469  0.46469  0.00000  0.07062

   Total alpha = 29.00000, Total beta = 29.00000, Total charge = -0.00000
