  ==> Input File <==

--------------------------------------------------------------------------
set {
	reference rhf
	basis 6-31G*
}

set_num_threads( 4 )
memory 2 gb

molecule MOL {
0 1

H	 -1.634041	 2.552021	 -0.052973
C	 -0.611449	 2.192959	 -0.054828
C	 -0.603454	 0.661669	 0.000000
H	 -0.099279	 2.614542	 0.801554
H	 -0.124577	 2.551566	 -0.953604
C	 0.763625	 0.112519	 0.000000
H	 -1.104393	 0.307115	 0.893264
H	 -1.129530	 0.244538	 -0.850773
N	 1.813038	 -0.320305	 0.000000

	symmetry c1
}
set optking {
	frozen_dihedral = ("
		7 3 6 9
	")
}

ee = optimize('scf')
oeprop('DIPOLE', 'QUADRUPOLE', 'MULLIKEN_CHARGES')
f=open( 'psi4out.xyz', 'w' )
f.write( "9  " )
f.write( str(ee) + "\n" )
f.write( MOL.save_string_xyz() )
f.close()
--------------------------------------------------------------------------

    Molecular point group: c1
  Charge       = 0
  Multiplicity = 1
  Basis Set: 6-31G*
  Basis Set:
  @DF-RHF Final Energy:  -170.96241435452379
    Total Energy =                       -170.9624143545238724
    Molecular point group: c1
  Basis Set: 6-31G*
  Basis Set:
  Basis Set: 6-31G*
  Basis Set:
  @DF-RHF Final Energy:  -170.96186550033764
    Total Energy =                       -170.9618655003376659
  Basis Set: 6-31G*
  Basis Set:
  Basis Set: 6-31G*
  Basis Set:
  @DF-RHF Final Energy:  -170.96236665230902
    Total Energy =                       -170.9623666523090435
  Basis Set: 6-31G*
  Basis Set:
  Basis Set: 6-31G*
  Basis Set:
  @DF-RHF Final Energy:  -170.94951741842127
    Total Energy =                       -170.9495174184212374
  Basis Set: 6-31G*
  Basis Set:
  @DF-RHF Final Energy:  -170.95904828629793
    Total Energy =                       -170.9590482862978433
  @DF-RHF Final Energy:  -170.96228437514344
    Total Energy =                       -170.9622843751434971
  @DF-RHF Final Energy:  -170.96240877625848
    Total Energy =                       -170.9624087762585418
  @DF-RHF Final Energy:  -170.93148368827218
    Total Energy =                       -170.9314836882722375
  @DF-RHF Final Energy:  -170.95814268707574
    Total Energy =                       -170.9581426870757923
  @DF-RHF Final Energy:  -170.96095490479789
    Total Energy =                       -170.9609549047979158
  @DF-RHF Final Energy:  -170.96066787966888
    Total Energy =                       -170.9606678796689607
  @DF-RHF Final Energy:  -170.96166321499911
    Total Energy =                       -170.9616632149991915
  @DF-RHF Final Energy:  -170.95325686405920
    Total Energy =                       -170.9532568640592558
  @DF-RHF Final Energy:  -170.95991693045090
    Total Energy =                       -170.9599169304508450
  @DF-RHF Final Energy:  -170.96197661381615
    Total Energy =                       -170.9619766138162333
  @DF-RHF Final Energy:  -170.96240672229877
    Total Energy =                       -170.9624067222986810
  @DF-RHF Final Energy:  -170.96229677541407
    Total Energy =                       -170.9622967754140177
  @DF-RHF Final Energy:  -170.96242383843895
    Total Energy =                       -170.9624238384389230
  @DF-RHF Final Energy:  -170.96228598507560
    Total Energy =                       -170.9622859850755390
  @DF-RHF Final Energy:  -170.96239328665263
    Total Energy =                       -170.9623932866526275
  @DF-RHF Final Energy:  -170.96188045176979
    Total Energy =                       -170.9618804517697299
  @DF-RHF Final Energy:  -170.96202818389617
    Total Energy =                       -170.9620281838961944
  @DF-RHF Final Energy:  -170.96202833231581
    Total Energy =                       -170.9620283323158105
  @DF-RHF Final Energy:  -170.96231278632825
    Total Energy =                       -170.9623127863283685
  @DF-RHF Final Energy:  -170.96229048860116
    Total Energy =                       -170.9622904886010701
  @DF-RHF Final Energy:  -170.96227869973904
    Total Energy =                       -170.9622786997390449
  @DF-RHF Final Energy:  -170.96234993566719
    Total Energy =                       -170.9623499356671346
  @DF-RHF Final Energy:  -170.96122658779166
    Total Energy =                       -170.9612265877916570
  @DF-RHF Final Energy:  -170.96143446145203
    Total Energy =                       -170.9614344614520292
  @DF-RHF Final Energy:  -170.96200518111408
    Total Energy =                       -170.9620051811141082
  @DF-RHF Final Energy:  -170.96187182527237
    Total Energy =                       -170.9618718252723966
  @DF-RHF Final Energy:  -170.96222013114391
    Total Energy =                       -170.9622201311439653
  @DF-RHF Final Energy:  -170.96239829754708
    Total Energy =                       -170.9623982975469971
  @DF-RHF Final Energy:  -170.96241704123446
    Total Energy =                       -170.9624170412344313
  @DF-RHF Final Energy:  -170.96192069917731
    Total Energy =                       -170.9619206991772558
  @DF-RHF Final Energy:  -170.96193775759747
    Total Energy =                       -170.9619377575973829
  Basis Set: 6-31G*
  Basis Set:
  @DF-RHF Final Energy:  -170.96198317331081
    Total Energy =                       -170.9619831733108981
  Basis Set: 6-31G*
  Basis Set:
  Basis Set: 6-31G*
  Basis Set:
  @DF-RHF Final Energy:  -170.96219322049330
    Total Energy =                       -170.9621932204933614
  Basis Set: 6-31G*
  Basis Set:
  Basis Set: 6-31G*
  Basis Set:
  @DF-RHF Final Energy:  -170.96226616565127
    Total Energy =                       -170.9622661656511298
  Basis Set: 6-31G*
  Basis Set:
  Charge       = 0
  Multiplicity = 1
  Basis Set: 6-31G*
  Basis Set:

    Orbital Energies (a.u.)
    -----------------------

    Doubly Occupied:

       1A    -15.567228     2A    -11.283688     3A    -11.269538
       4A    -11.245937     5A     -1.224181     6A     -1.082376
       7A     -0.911925     8A     -0.699192     9A     -0.659744
      10A     -0.587873    11A     -0.560765    12A     -0.544167
      13A     -0.536546    14A     -0.458291    15A     -0.458232

  @DF-RHF Final Energy:  -170.96235961324666

   => Energetics <=

    Nuclear Repulsion Energy =            103.3414657381332802
    One-Electron Energy =                -434.4282837426878245
    Two-Electron Energy =                 160.1244583913080248
    DFT Exchange-Correlation Energy =       0.0000000000000000
    Empirical Dispersion Energy =           0.0000000000000000
    PCM Polarization Energy =               0.0000000000000000
    EFP Energy =                            0.0000000000000000
    Total Energy =                       -170.9623596132464911
    Molecular point group: c1
  Basis Set: 6-31G*
  Basis Set:

  -Total Gradient:
     Atom            X                  Y                   Z
    ------   -----------------  -----------------  -----------------
       1       -0.000010260727     0.000018721594     0.000018818834
       2        0.000067721458     0.000023674715     0.000346676881
       3       -0.000566233975    -0.001428121098    -0.000463205755
       4       -0.000013649924    -0.000021808931    -0.000013696202
       5        0.000038027138    -0.000045106106    -0.000060211492
       6       -0.001038882118     0.003734559169     0.000191735659
       7       -0.000065457594     0.000278096051     0.000251977563
       8        0.000431213315    -0.000222045710    -0.000032133630
       9        0.001157522429    -0.002337969685    -0.000239961858

    Molecular point group: c1

    Geometry (in Angstrom), charge = 0, multiplicity = 1:

    H           -1.948261414379     1.813414749410    -0.021316201954
    C           -0.920326091237     1.470374518902    -0.039563954864
    C           -0.887195815953    -0.060940407950     0.013252912963
    H           -0.401620050658     1.899479051197     0.809237766874
    H           -0.453321981739     1.838074322741    -0.945113388342
    C            0.486731939870    -0.594943972326    -0.016947531328
    H           -1.370065516874    -0.427896266793     0.911168463806
    H           -1.423414479775    -0.481088130682    -0.829929692532
    N            1.534659980470    -1.032072604627     0.042537107621

  Mulliken Charges: (a.u.)
   Center  Symbol    Alpha    Beta     Spin     Total
       1     H     0.40894  0.40894  0.00000  0.18212
       2     C     3.24331  3.24331  0.00000 -0.48662
       3     C     3.18206  3.18206  0.00000 -0.36412
       4     H     0.40554  0.40554  0.00000  0.18893
       5     H     0.40552  0.40552  0.00000  0.18896
       6     C     2.84823  2.84823  0.00000  0.30354
       7     H     0.38840  0.38840  0.00000  0.22321
       8     H     0.38819  0.38819  0.00000  0.22362
       9     N     3.72982  3.72982  0.00000 -0.45963

   Total alpha = 15.00000, Total beta = 15.00000, Total charge =  0.00000
