  ==> Input File <==

--------------------------------------------------------------------------
set {
	reference rhf
	basis cc-pvtz
}

set_num_threads( 4 )
memory 2 gb

molecule MOL {
0 1

O	 -2.118000	 -1.272000	 -0.272000
C	 -1.730000	 -0.190000	 0.049000
C	 -0.409000	 -0.020000	 0.777000
C	 -2.516000	 1.062000	 -0.273000
C	 0.769000	 -0.046000	 -0.209000
H	 -0.401000	 0.910000	 1.339000
H	 -0.312000	 -0.840000	 1.479000
C	 2.124000	 0.092000	 0.487000
H	 0.657000	 0.756000	 -0.937000
H	 0.735000	 -0.978000	 -0.765000
C	 3.298000	 0.057000	 -0.491000
H	 2.148000	 1.023000	 1.049000
H	 2.235000	 -0.708000	 1.215000
H	 3.233000	 0.868000	 -1.212000
H	 3.318000	 -0.877000	 -1.044000
H	 4.245000	 0.154000	 0.031000
H	 -3.355000	 0.819000	 -0.910000
H	 -1.885000	 1.800000	 -0.760000
H	 -2.881000	 1.510000	 0.648000

	symmetry c1
}
ee = optimize('scf')
oeprop('DIPOLE', 'QUADRUPOLE', 'MULLIKEN_CHARGES')
f=open( 'psi4out.xyz', 'w' )
f.write( "19  " )
f.write( str(ee) + "\n" )
f.write( MOL.save_string_xyz() )
f.close()
--------------------------------------------------------------------------

    Molecular point group: c1
  Charge       = 0
  Multiplicity = 1
  Basis Set: CC-PVTZ
  Basis Set:
  @DF-RHF Final Energy:  -309.17723306848353
    Total Energy =                       -309.1772330684841563
    Molecular point group: c1
  Basis Set: CC-PVTZ
  Basis Set:
  Basis Set: CC-PVTZ
  Basis Set:
  @DF-RHF Final Energy:  -309.17724210851600
    Total Energy =                       -309.1772421085159976
  Basis Set: CC-PVTZ
  Basis Set:
  Basis Set: CC-PVTZ
  Basis Set:
  @DF-RHF Final Energy:  -309.17602299690566
    Total Energy =                       -309.1760229969056581
  Basis Set: CC-PVTZ
  Basis Set:
  Basis Set: CC-PVTZ
  Basis Set:
  @DF-RHF Final Energy:  -309.17734961607448
    Total Energy =                       -309.1773496160744230
  Basis Set: CC-PVTZ
  Basis Set:
  @DF-RHF Final Energy:  -309.17666884292680
    Total Energy =                       -309.1766688429266878
  @DF-RHF Final Energy:  -309.17733315687013
    Total Energy =                       -309.1773331568703611
  Basis Set: CC-PVTZ
  Basis Set:
  @DF-RHF Final Energy:  -309.17736241951604
    Total Energy =                       -309.1773624195159869
  Basis Set: CC-PVTZ
  Basis Set:
  Basis Set: CC-PVTZ
  Basis Set:
  @DF-RHF Final Energy:  -309.17736137213660
    Total Energy =                       -309.1773613721363176
  Basis Set: CC-PVTZ
  Basis Set:
  Basis Set: CC-PVTZ
  Basis Set:
  @DF-RHF Final Energy:  -309.17736378942323
    Total Energy =                       -309.1773637894235094
  Basis Set: CC-PVTZ
  Basis Set:
  Charge       = 0
  Multiplicity = 1
  Basis Set: CC-PVTZ
  Basis Set:

    Orbital Energies (a.u.)
    -----------------------

    Doubly Occupied:

       1A    -20.536955     2A    -11.319506     3A    -11.228798
       4A    -11.227884     5A    -11.227052     6A    -11.223053
       7A    -11.213192     8A     -1.397097     9A     -1.092962
      10A     -1.030549    11A     -0.984734    12A     -0.890961
      13A     -0.807365    14A     -0.734613    15A     -0.665126
      16A     -0.648092    17A     -0.625142    18A     -0.615145
      19A     -0.583060    20A     -0.574787    21A     -0.553866
      22A     -0.538051    23A     -0.514207    24A     -0.501336
      25A     -0.483001    26A     -0.476751    27A     -0.470354
      28A     -0.399255

  @DF-RHF Final Energy:  -309.17736405539887

   => Energetics <=

    Nuclear Repulsion Energy =            301.8602584165370786
    One-Electron Energy =               -1016.9494561215199155
    Two-Electron Energy =                 405.9118336495843096
    DFT Exchange-Correlation Energy =       0.0000000000000000
    Empirical Dispersion Energy =           0.0000000000000000
    PCM Polarization Energy =               0.0000000000000000
    EFP Energy =                            0.0000000000000000
    Total Energy =                       -309.1773640553984706
    Molecular point group: c1
  Basis Set: CC-PVTZ
  Basis Set:

  -Total Gradient:
     Atom            X                  Y                   Z
    ------   -----------------  -----------------  -----------------
       1        0.000015266672     0.000006381979    -0.000002275521
       2       -0.000018843938    -0.000020060126    -0.000025601365
       3        0.000015100014     0.000013384107    -0.000000065157
       4       -0.000025563867    -0.000003526171     0.000034075441
       5       -0.000003455049    -0.000016731222     0.000007921867
       6        0.000004846778    -0.000003881256    -0.000002288454
       7       -0.000000560904    -0.000003260701     0.000009862859
       8       -0.000005224476     0.000016808751    -0.000004567736
       9       -0.000000750648     0.000004663059     0.000002582086
      10       -0.000003072834     0.000003961492    -0.000002770889
      11        0.000001297180    -0.000011700169     0.000002767535
      12       -0.000000351618     0.000003836824    -0.000001401431
      13        0.000000188597     0.000002672263     0.000002496939
      14        0.000001179012     0.000002636613     0.000004412135
      15       -0.000001108510     0.000002307929    -0.000006086590
      16        0.000002639170    -0.000005802537     0.000000285633
      17        0.000002002638     0.000002725513    -0.000005351484
      18        0.000010434482    -0.000003195591    -0.000008150265
      19        0.000005977297     0.000008779243    -0.000005845601

  **** Optimization is complete! (in 10 steps) ****
    Final optimized geometry and variables:
    Molecular point group: c1

    Geometry (in Angstrom), charge = 0, multiplicity = 1:

    O           -2.071633086352    -1.227563295877    -0.223463467446
    C           -1.652163787469    -0.152425358738     0.058082049052
    C           -0.327810840310     0.006324252215     0.778295310367
    C           -2.402515039999     1.108628619276    -0.298924404942
    C            0.843231325531    -0.001574752565    -0.211665575187
    H           -0.319483616214     0.928173039962     1.350353998885
    H           -0.227803999331    -0.823091539955     1.466704978670
    C            2.197693372138     0.138029671742     0.476936513293
    H            0.722944007872     0.805201944742    -0.930230393268
    H            0.813976468029    -0.926977717618    -0.776588894434
    C            3.366112496386     0.118031756629    -0.502634324569
    H            2.219059498926     1.063356822075     1.046003805933
    H            2.315959458123    -0.666512828323     1.196841154837
    H            3.294524973018     0.933240117912    -1.214916853810
    H            3.389437359734    -0.809594967767    -1.064179472905
    H            4.312647496092     0.214799142981     0.016122093619
    H           -3.240909904067     0.874415802463    -0.936711667196
    H           -1.747553307465     1.818822734997    -0.790984431781
    H           -2.760418564603     1.579708326031     0.610997997145

  Mulliken Charges: (a.u.)
   Center  Symbol    Alpha    Beta     Spin     Total
       1     O     4.17773  4.17773  0.00000 -0.35545
       2     C     2.85809  2.85809  0.00000  0.28382
       3     C     3.09802  3.09802  0.00000 -0.19604
       4     C     3.15514  3.15514  0.00000 -0.31029
       5     C     3.09733  3.09733  0.00000 -0.19465
       6     H     0.44948  0.44948  0.00000  0.10105
       7     H     0.43911  0.43911  0.00000  0.12178
       8     C     3.08572  3.08572  0.00000 -0.17145
       9     H     0.45294  0.45294  0.00000  0.09413
      10     H     0.44117  0.44117  0.00000  0.11765
      11     C     3.14934  3.14934  0.00000 -0.29868
      12     H     0.45408  0.45408  0.00000  0.09184
      13     H     0.45135  0.45135  0.00000  0.09730
      14     H     0.45516  0.45516  0.00000  0.08967
      15     H     0.45276  0.45276  0.00000  0.09448
      16     H     0.44734  0.44734  0.00000  0.10533
      17     H     0.43602  0.43602  0.00000  0.12797
      18     H     0.45088  0.45088  0.00000  0.09824
      19     H     0.44834  0.44834  0.00000  0.10332

   Total alpha = 28.00000, Total beta = 28.00000, Total charge = -0.00000
