  ==> Input File <==

--------------------------------------------------------------------------
set {
	reference rhf
	basis 6-31G*
}

set_num_threads( 4 )
memory 2 gb

molecule MOL {
0 1

O	 0.359350	 -0.251000	 -2.297154
C	 0.002299	 0.322791	 -1.303181
C	 -1.157642	 1.299041	 -1.362838
N	 0.623947	 0.147590	 -0.102813
H	 -0.855679	 2.294335	 -1.055767
H	 -1.498740	 1.332484	 -2.386351
H	 -1.977072	 0.984330	 -0.725600
C	 1.665360	 -0.855771	 0.000151
C	 0.103767	 0.631734	 1.157053
H	 2.465253	 -0.618490	 -0.692587
H	 1.257730	 -1.821716	 -0.242189
H	 2.081488	 -0.891645	 1.004627
H	 0.931731	 0.869909	 1.814159
H	 -0.478381	 1.530177	 1.027291
H	 -0.515326	 -0.112919	 1.654071

	symmetry c1
}
set optking {
	frozen_dihedral = ("
		2 4 8 10
	")
}

ee = optimize('scf')
oeprop('DIPOLE', 'QUADRUPOLE', 'MULLIKEN_CHARGES')
f=open( 'psi4out.xyz', 'w' )
f.write( "15  " )
f.write( str(ee) + "\n" )
f.write( MOL.save_string_xyz() )
f.close()
--------------------------------------------------------------------------

    Molecular point group: c1
  Charge       = 0
  Multiplicity = 1
  Basis Set: 6-31G*
  Basis Set:
  @DF-RHF Final Energy:  -286.02793536060813
    Total Energy =                       -286.0279353606081827
    Molecular point group: c1
  Basis Set: 6-31G*
  Basis Set:
  Basis Set: 6-31G*
  Basis Set:
  @DF-RHF Final Energy:  -286.02890462342941
    Total Energy =                       -286.0289046234294688
  Basis Set: 6-31G*
  Basis Set:
  Basis Set: 6-31G*
  Basis Set:
  @DF-RHF Final Energy:  -286.02900051300890
    Total Energy =                       -286.0290005130088957
  Basis Set: 6-31G*
  Basis Set:
  Basis Set: 6-31G*
  Basis Set:
  @DF-RHF Final Energy:  -286.02893602079632
    Total Energy =                       -286.0289360207964364
  Basis Set: 6-31G*
  Basis Set:
  Basis Set: 6-31G*
  Basis Set:
  @DF-RHF Final Energy:  -286.02905636021308
    Total Energy =                       -286.0290563602129623
  Basis Set: 6-31G*
  Basis Set:
  Charge       = 0
  Multiplicity = 1
  Basis Set: 6-31G*
  Basis Set:

    Orbital Energies (a.u.)
    -----------------------

    Doubly Occupied:

       1A    -20.513947     2A    -15.582739     3A    -11.338987
       4A    -11.267182     5A    -11.248648     6A    -11.228232
       7A     -1.384043     8A     -1.241459     9A     -1.013479
      10A     -0.973773    11A     -0.918090    12A     -0.737040
      13A     -0.679249    14A     -0.657664    15A     -0.651102
      16A     -0.587353    17A     -0.574958    18A     -0.570276
      19A     -0.566056    20A     -0.545585    21A     -0.530430
      22A     -0.498520    23A     -0.409983    24A     -0.366275

  @DF-RHF Final Energy:  -286.02905718587567

   => Energetics <=

    Nuclear Repulsion Energy =            252.5770839111686143
    One-Electron Energy =                -889.0421419041507534
    Two-Electron Energy =                 350.4360008071064954
    DFT Exchange-Correlation Energy =       0.0000000000000000
    Empirical Dispersion Energy =           0.0000000000000000
    PCM Polarization Energy =               0.0000000000000000
    EFP Energy =                            0.0000000000000000
    Total Energy =                       -286.0290571858756152
    Molecular point group: c1
  Basis Set: 6-31G*
  Basis Set:

  -Total Gradient:
     Atom            X                  Y                   Z
    ------   -----------------  -----------------  -----------------
       1        0.000025971535    -0.000023972425    -0.000034936043
       2       -0.000527797932    -0.000532838468     0.000305373935
       3       -0.000047687216    -0.000057118729     0.000036925923
       4        0.000872208941     0.000877188572    -0.000169769590
       5        0.000014621176     0.000015066427    -0.000001045724
       6        0.000017057902    -0.000004144486     0.000003773152
       7        0.000003882366     0.000017660013     0.000011278508
       8       -0.000888604624    -0.000910985576    -0.000858048203
       9        0.000026547129     0.000035949109     0.000001183882
      10        0.000521887512     0.000559501588     0.000745984185
      11       -0.000004655051     0.000017149118    -0.000012684787
      12       -0.000012416347    -0.000013962127     0.000006766855
      13        0.000000206560     0.000001894178    -0.000007260899
      14       -0.000012009451     0.000010572900    -0.000017667461
      15        0.000010787499     0.000008039906    -0.000009873732

  **** Optimization is complete! (in 6 steps) ****
    Final optimized geometry and variables:
    Molecular point group: c1

    Geometry (in Angstrom), charge = 0, multiplicity = 1:

    O            0.110365711596    -0.475058370053    -1.629838833920
    C           -0.262888615296     0.115635511699    -0.651413487884
    C           -1.424652883514     1.086968950035    -0.734246748257
    N            0.356211384679    -0.051417523765     0.548674496478
    H           -1.130832905889     2.085065551048    -0.428010736035
    H           -1.751859404611     1.113628714254    -1.762600276735
    H           -2.251932564596     0.772594220201    -0.106852256481
    C            1.388342998468    -1.073841192699     0.604129737537
    C           -0.173782639678     0.425947087470     1.808183595683
    H            2.178801210434    -0.849967863291    -0.097879297390
    H            0.991820683847    -2.055459198610     0.370560741472
    H            1.805415076074    -1.092374015155     1.602155511665
    H            0.645213590712     0.685961500015     2.467240354583
    H           -0.770617402186     1.313204388383     1.667404483110
    H           -0.785212560695    -0.323560321584     2.307048333157

  Mulliken Charges: (a.u.)
   Center  Symbol    Alpha    Beta     Spin     Total
       1     O     4.30400  4.30400  0.00000 -0.60800
       2     C     2.62628  2.62628  0.00000  0.74745
       3     C     3.29802  3.29802  0.00000 -0.59604
       4     N     3.82285  3.82285  0.00000 -0.64570
       5     H     0.40666  0.40666  0.00000  0.18669
       6     H     0.39064  0.39064  0.00000  0.21871
       7     H     0.40796  0.40796  0.00000  0.18407
       8     C     3.13625  3.13625  0.00000 -0.27250
       9     C     3.14198  3.14198  0.00000 -0.28396
      10     H     0.40119  0.40119  0.00000  0.19761
      11     H     0.41012  0.41012  0.00000  0.17977
      12     H     0.42006  0.42006  0.00000  0.15988
      13     H     0.40969  0.40969  0.00000  0.18062
      14     H     0.40773  0.40773  0.00000  0.18453
      15     H     0.41657  0.41657  0.00000  0.16687

   Total alpha = 24.00000, Total beta = 24.00000, Total charge = -0.00000
