  ==> Input File <==

--------------------------------------------------------------------------
set {
	reference rhf
	basis cc-pvtz
}

set_num_threads( 4 )
memory 2 gb

molecule MOL {
0 1

H	 -2.362939	 -1.309000	 -0.383250
C	 -1.359344	 -1.272457	 0.020748
C	 -0.684082	 0.000127	 -0.464918
H	 -0.825835	 -2.151141	 -0.318537
H	 -1.416276	 -1.292399	 1.099455
C	 -1.359089	 1.272668	 0.021259
N	 0.742439	 -0.000109	 0.007333
H	 -0.596914	 0.000345	 -1.538146
H	 -2.362696	 1.309620	 -0.382686
H	 -0.825392	 2.151374	 -0.317674
H	 -1.415983	 1.292181	 1.099973
O	 1.424423	 -0.911448	 -0.321306
O	 1.096207	 0.911150	 0.678709

	symmetry c1
}
set optking {
	frozen_dihedral = ("
		12 7 3 8
	")
}

ee = optimize('scf')
oeprop('DIPOLE', 'QUADRUPOLE', 'MULLIKEN_CHARGES')
f=open( 'psi4out.xyz', 'w' )
f.write( "13  " )
f.write( str(ee) + "\n" )
f.write( MOL.save_string_xyz() )
f.close()
--------------------------------------------------------------------------

    Molecular point group: c1
  Charge       = 0
  Multiplicity = 1
  Basis Set: CC-PVTZ
  Basis Set:
  @DF-RHF Final Energy:  -321.86216803080094
    Total Energy =                       -321.8621680308011150
    Molecular point group: c1
  Basis Set: CC-PVTZ
  Basis Set:
  Basis Set: CC-PVTZ
  Basis Set:
  @DF-RHF Final Energy:  -321.86226032968494
    Total Energy =                       -321.8622603296850571
  Basis Set: CC-PVTZ
  Basis Set:
  Basis Set: CC-PVTZ
  Basis Set:
  @DF-RHF Final Energy:  -321.85909656060136
    Total Energy =                       -321.8590965606012446
  Basis Set: CC-PVTZ
  Basis Set:
  Basis Set: CC-PVTZ
  Basis Set:
  @DF-RHF Final Energy:  -321.86276515917410
    Total Energy =                       -321.8627651591742733
  Basis Set: CC-PVTZ
  Basis Set:
  Basis Set: CC-PVTZ
  Basis Set:
  @DF-RHF Final Energy:  -321.86290580798226
    Total Energy =                       -321.8629058079820879
  Basis Set: CC-PVTZ
  Basis Set:
  Basis Set: CC-PVTZ
  Basis Set:
  @DF-RHF Final Energy:  -321.86302107811662
    Total Energy =                       -321.8630210781166170
  Basis Set: CC-PVTZ
  Basis Set:
  Basis Set: CC-PVTZ
  Basis Set:
  @DF-RHF Final Energy:  -321.86302333544251
    Total Energy =                       -321.8630233354424490
  Basis Set: CC-PVTZ
  Basis Set:
  Charge       = 0
  Multiplicity = 1
  Basis Set: CC-PVTZ
  Basis Set:

    Orbital Energies (a.u.)
    -----------------------

    Doubly Occupied:

       1A    -20.591625     2A    -20.585588     3A    -15.833608
       4A    -11.306165     5A    -11.242178     6A    -11.237304
       7A     -1.634386     8A     -1.418299     9A     -1.140568
      10A     -0.969421    11A     -0.957948    12A     -0.815270
      13A     -0.762319    14A     -0.730305    15A     -0.724242
      16A     -0.642987    17A     -0.593566    18A     -0.587757
      19A     -0.570468    20A     -0.524893    21A     -0.521526
      22A     -0.484329    23A     -0.472350    24A     -0.451527

  @DF-RHF Final Energy:  -321.86302386607917

   => Energetics <=

    Nuclear Repulsion Energy =            257.3320727930537259
    One-Electron Energy =                -948.7929311631639848
    Two-Electron Energy =                 369.5978345040312547
    DFT Exchange-Correlation Energy =       0.0000000000000000
    Empirical Dispersion Energy =           0.0000000000000000
    PCM Polarization Energy =               0.0000000000000000
    EFP Energy =                            0.0000000000000000
    Total Energy =                       -321.8630238660790042
    Molecular point group: c1
  Basis Set: CC-PVTZ
  Basis Set:

  -Total Gradient:
     Atom            X                  Y                   Z
    ------   -----------------  -----------------  -----------------
       1       -0.000008210485    -0.000016255885     0.000007332240
       2       -0.000027827082     0.000001574790    -0.000008942618
       3       -0.000150948219    -0.001924365490     0.000422769571
       4       -0.000006527538     0.000004899215    -0.000003279356
       5        0.000001783352     0.000002601967    -0.000003528599
       6        0.000002420759    -0.000006671230    -0.000011428062
       7        0.000554331974     0.001167054525    -0.001610512902
       8        0.000014676162     0.001454454029     0.000008518530
       9       -0.000007383366    -0.000001164915    -0.000001825538
      10        0.000002308847    -0.000002755615    -0.000005414102
      11        0.000005835320    -0.000008392297    -0.000003379829
      12       -0.000402041477    -0.000683146981     0.001191835926
      13        0.000021581749     0.000012167887     0.000017854737

  **** Optimization is complete! (in 8 steps) ****
    Final optimized geometry and variables:
    Molecular point group: c1

    Geometry (in Angstrom), charge = 0, multiplicity = 1:

    H           -2.379331030825    -1.268189255306    -0.355314852840
    C           -1.363117556313    -1.257683722891     0.016312651217
    C           -0.684941920911     0.022847785368    -0.449686767606
    H           -0.847847978595    -2.130454343703    -0.352012055661
    H           -1.398093580573    -1.299541136358     1.098405973005
    C           -1.389800533002     1.284041935940     0.008895159492
    N            0.751402360677    -0.001079005709     0.015156582303
    H           -0.587422254309     0.021194862996    -1.526148553936
    H           -2.388173736717     1.283291597401    -0.411037441966
    H           -0.876058950422     2.172064702095    -0.327035450795
    H           -1.468801931267     1.322395021683     1.086251914755
    O            1.399521991058    -0.933134864232    -0.329057726128
    O            1.148533646804     0.890814382336     0.683830276320

  Mulliken Charges: (a.u.)
   Center  Symbol    Alpha    Beta     Spin     Total
       1     H     0.44965  0.44965  0.00000  0.10070
       2     C     3.14426  3.14426  0.00000 -0.28852
       3     C     3.00681  3.00681  0.00000 -0.01363
       4     H     0.43114  0.43114  0.00000  0.13772
       5     H     0.44620  0.44620  0.00000  0.10760
       6     C     3.14237  3.14237  0.00000 -0.28475
       7     N     3.27512  3.27512  0.00000  0.44976
       8     H     0.42952  0.42952  0.00000  0.14095
       9     H     0.45031  0.45031  0.00000  0.09937
      10     H     0.43682  0.43682  0.00000  0.12636
      11     H     0.44281  0.44281  0.00000  0.11439
      12     O     4.17586  4.17586  0.00000 -0.35173
      13     O     4.16912  4.16912  0.00000 -0.33824

   Total alpha = 24.00000, Total beta = 24.00000, Total charge =  0.00000
