                              Psi4 1.0.54 Driver

  ==> Input File <==

--------------------------------------------------------------------------
set {
	reference rhf
	basis cc-pvtz
}

set_num_threads( 4 )
memory 2 gb

molecule MOL {
0 1

H	 2.834534	 -0.391977	 0.274933
O	 1.998201	 -0.832569	 0.287683
C	 1.050374	 0.054877	 0.000135
C	 -0.318151	 -0.570512	 0.000144
O	 1.297244	 1.189543	 -0.222477
C	 -1.454884	 0.441630	 -0.000560
H	 -0.371613	 -1.223646	 -0.864985
H	 -0.371920	 -1.222758	 0.865929
C	 -2.822577	 -0.232186	 0.000063
H	 -1.359760	 1.084704	 -0.867077
H	 -1.359641	 1.085996	 0.864983
H	 -2.954352	 -0.858985	 -0.875745
H	 -3.615886	 0.505352	 0.000019
H	 -2.953878	 -0.858359	 0.876394

	symmetry c1
}
set optking {
	frozen_dihedral = ("
		2 3 4 7
	")
}

ee,wfn = optimize('scf', return_wfn=True)
oeprop( wfn, 'DIPOLE', 'QUADRUPOLE', 'MULLIKEN_CHARGES')
f=open( 'psi4out.xyz', 'w' )
f.write( "14  " )
f.write( str(ee) + "\n" )
f.write( MOL.save_string_xyz() )
f.close()
--------------------------------------------------------------------------

    Molecular point group: c1
  Charge       = 0
  Multiplicity = 1
  Basis Set: CC-PVTZ
  Basis Set:
  @DF-RHF Final Energy:  -306.00082395688185
    Total Energy =                       -306.0008239568817316
    Molecular point group: c1
  Basis Set: CC-PVTZ
  Basis Set:
  Basis Set: CC-PVTZ
  Basis Set:
  @DF-RHF Final Energy:  -306.00084173699986
    Total Energy =                       -306.0008417369999734
  Basis Set: CC-PVTZ
  Basis Set:
  Basis Set: CC-PVTZ
  Basis Set:
  @DF-RHF Final Energy:  -306.00077181952167
    Total Energy =                       -306.0007718195216739
  Basis Set: CC-PVTZ
  Basis Set:
  Basis Set: CC-PVTZ
  Basis Set:
  @DF-RHF Final Energy:  -306.00089234800026
    Total Energy =                       -306.0008923480002636
  Basis Set: CC-PVTZ
  Basis Set:
  Charge       = 0
  Multiplicity = 1
  Basis Set: CC-PVTZ
  Basis Set:

    Orbital Energies (a.u.)
    -----------------------

    Doubly Occupied:

       1A    -20.604749     2A    -20.540762     3A    -11.374051
       4A    -11.239826     5A    -11.224183     6A    -11.215512
       7A     -1.478205     8A     -1.369522     9A     -1.084495
      10A     -0.980908    11A     -0.859171    12A     -0.793586
      13A     -0.704509    14A     -0.691884    15A     -0.669001
      16A     -0.618724    17A     -0.596806    18A     -0.574485
      19A     -0.546611    20A     -0.507368    21A     -0.492276
      22A     -0.484356    23A     -0.482788    24A     -0.447407

  @DF-RHF Final Energy:  -306.00089327234684

   => Energetics <=

    Nuclear Repulsion Energy =            240.4503954158051329
    One-Electron Energy =                -893.7402059313172913
    Two-Electron Energy =                 347.2889172431652014
    DFT Exchange-Correlation Energy =       0.0000000000000000
    Empirical Dispersion Energy =           0.0000000000000000
    PCM Polarization Energy =               0.0000000000000000
    EFP Energy =                            0.0000000000000000
    Total Energy =                       -306.0008932723469570
    Molecular point group: c1
  Basis Set: CC-PVTZ
  Basis Set:

  -Total Gradient:
     Atom            X                  Y                   Z
    ------   -----------------  -----------------  -----------------
       1       -0.000011461468    -0.000004357015     0.000004893979
       2       -0.000049488620     0.000206673644     0.000534824450
       3       -0.000020951985    -0.000145172854    -0.000794648844
       4        0.000257669411    -0.000565294943     0.000615732810
       5        0.000051053019    -0.000009027741     0.000004256028
       6       -0.000003357628     0.000004175080    -0.000013838313
       7       -0.000235139729     0.000520450574    -0.000365647977
       8        0.000006754721     0.000003828268    -0.000000272975
       9       -0.000000441464    -0.000004287984     0.000011639951
      10        0.000004234452    -0.000004515589     0.000004035889
      11        0.000000471982    -0.000002350835    -0.000001655388
      12        0.000002281684     0.000002549235     0.000000206264
      13        0.000003657144    -0.000000167536     0.000002273284
      14       -0.000005281515    -0.000002502302    -0.000001799156

  **** Optimization is complete! (in 5 steps) ****
    Final optimized geometry and variables:
    Molecular point group: c1

    Geometry (in Angstrom), charge = 0, multiplicity = 1:

    H            2.839429848827    -0.390637437456     0.240965313861
    O            2.003464618358    -0.830803472155     0.276744885972
    C            1.050445855669     0.054027100214    -0.000353288554
    C           -0.316872688214    -0.574649121530     0.000423752672
    O            1.292586722267     1.189271592263    -0.225737025337
    C           -1.453878184937     0.438028841852    -0.022916437448
    H           -0.360143583873    -1.218995397181    -0.873305476128
    H           -0.383308996002    -1.229624912072     0.861186061081
    C           -2.821312710680    -0.235729567620    -0.047293343875
    H           -1.340780421486     1.080533490028    -0.886768618502
    H           -1.376503481027     1.082221975452     0.845490724591
    H           -2.936786072056    -0.860982385961    -0.926514419979
    H           -3.614431815517     0.501899597969    -0.060833003416
    H           -2.968766587749    -0.863349715159     0.825384488678

  Mulliken Charges: (a.u.)
   Center  Symbol    Alpha    Beta     Spin     Total
       1     H     0.38196  0.38196  0.00000  0.23607
       2     O     4.15983  4.15983  0.00000 -0.31967
       3     C     2.80630  2.80630  0.00000  0.38740
       4     C     3.10358  3.10358  0.00000 -0.20717
       5     O     4.19156  4.19156  0.00000 -0.38312
       6     C     3.08008  3.08008  0.00000 -0.16017
       7     H     0.44091  0.44091  0.00000  0.11819
       8     H     0.43750  0.43750  0.00000  0.12500
       9     C     3.15021  3.15021  0.00000 -0.30043
      10     H     0.44364  0.44364  0.00000  0.11272
      11     H     0.44843  0.44843  0.00000  0.10313
      12     H     0.45527  0.45527  0.00000  0.08947
      13     H     0.44513  0.44513  0.00000  0.10974
      14     H     0.45559  0.45559  0.00000  0.08883

   Total alpha = 24.00000, Total beta = 24.00000, Total charge = -0.00000

*** Psi4 exiting successfully. Buy a developer a beer!
