  ==> Input File <==

--------------------------------------------------------------------------
set {
	reference rhf
	basis 6-31G*
}

set_num_threads( 1 )
memory 2 gb

molecule MOL {
0 1

O	 -2.439739	 -0.935931	 -0.423848
C	 -1.921153	 0.064240	 -0.045697
C	 -2.624470	 1.379923	 0.150949
O	 -0.632575	 0.154573	 0.251549
H	 -2.168117	 2.136577	 -0.476876
H	 -3.669540	 1.273223	 -0.098610
H	 -2.519365	 1.700893	 1.180846
C	 0.160891	 -1.019931	 0.106212
C	 1.589627	 -0.672828	 0.480843
H	 0.089836	 -1.367806	 -0.916050
H	 -0.238459	 -1.792301	 0.749618
C	 2.223022	 -1.642952	 1.479877
H	 1.582619	 0.330897	 0.900865
H	 2.189269	 -0.629016	 -0.424567
C	 3.650903	 -1.248702	 1.855012
H	 1.610752	 -1.682303	 2.378585
H	 2.220431	 -2.643347	 1.059685
H	 4.077919	 -1.951880	 2.562988
H	 3.680825	 -0.262424	 2.309586
H	 4.294577	 -1.228648	 0.980163

	symmetry c1
}
set optking {
	frozen_dihedral = ("
		16 12 9 8,
		2 4 8 10,
		1 2 4 8
	")
}

ee = energy('scf')
oeprop('DIPOLE', 'QUADRUPOLE', 'MULLIKEN_CHARGES')
f=open( 'psi4out.xyz', 'w' )
f.write( "20  " )
f.write( str(ee) + "\n" )
f.write( MOL.save_string_xyz() )
f.close()
--------------------------------------------------------------------------

    Molecular point group: c1

    Geometry (in Angstrom), charge = 0, multiplicity = 1:

       Center              X                  Y                   Z               Mass
    ------------   -----------------  -----------------  -----------------  -----------------
           O         -2.431490142346    -0.450550760820    -0.905022592576    15.994914619560
           C         -1.912904142346     0.549620239180    -0.526871592576    12.000000000000
           C         -2.616221142346     1.865303239180    -0.330225592576    12.000000000000
           O         -0.624326142346     0.639953239180    -0.229625592576    15.994914619560
           H         -2.159868142346     2.621957239180    -0.958050592576     1.007825032070
           H         -3.661291142346     1.758603239180    -0.579784592576     1.007825032070
           H         -2.511116142346     2.186273239180     0.699671407424     1.007825032070
           C          0.169139857654    -0.534550760820    -0.374962592576    12.000000000000
           C          1.597875857654    -0.187447760820    -0.000331592576    12.000000000000
           H          0.098084857654    -0.882425760820    -1.397224592576     1.007825032070
           H         -0.230210142346    -1.306920760820     0.268443407424     1.007825032070
           C          2.231270857654    -1.157571760820     0.998702407424    12.000000000000
           H          1.590867857654     0.816277239180     0.419690407424     1.007825032070
           H          2.197517857654    -0.143635760820    -0.905741592576     1.007825032070
           C          3.659151857654    -0.763321760820     1.373837407424    12.000000000000
           H          1.619000857654    -1.196922760820     1.897410407424     1.007825032070
           H          2.228679857654    -2.157966760820     0.578510407424     1.007825032070
           H          4.086167857654    -1.466499760820     2.081813407424     1.007825032070
           H          3.689073857654     0.222956239180     1.828411407424     1.007825032070
           H          4.302825857654    -0.743267760820     0.498988407424     1.007825032070

  Charge       = 0
  Multiplicity = 1
  Basis Set: 6-31G*
  Basis Set:

    Orbital Energies (a.u.)
    -----------------------

    Doubly Occupied:

       1A    -20.601214     2A    -20.543462     3A    -11.373615
       4A    -11.280656     5A    -11.232978     6A    -11.225232
       7A    -11.222413     8A    -11.215136     9A     -1.467312
      10A     -1.361589    11A     -1.087062    12A     -1.029326
      13A     -0.980832    14A     -0.880854    15A     -0.807746
      16A     -0.779688    17A     -0.690073    18A     -0.682585
      19A     -0.667556    20A     -0.635220    21A     -0.599314
      22A     -0.593177    23A     -0.570304    24A     -0.556093
      25A     -0.544522    26A     -0.521352    27A     -0.511751
      28A     -0.481759    29A     -0.481200    30A     -0.475278
      31A     -0.448137    32A     -0.436567

  @DF-RHF Final Energy:  -383.93996205101109

   => Energetics <=

    Nuclear Repulsion Energy =            379.8864485808882137
    One-Electron Energy =               -1275.6844065620775837
    Two-Electron Energy =                 511.8579959301782196
    DFT Exchange-Correlation Energy =       0.0000000000000000
    Empirical Dispersion Energy =           0.0000000000000000
    PCM Polarization Energy =               0.0000000000000000
    EFP Energy =                            0.0000000000000000
    Total Energy =                       -383.9399620510111504

  Mulliken Charges: (a.u.)
   Center  Symbol    Alpha    Beta     Spin     Total
       1     O     4.28344  4.28344  0.00000 -0.56687
       2     C     2.61989  2.61989  0.00000  0.76022
       3     C     3.28158  3.28158  0.00000 -0.56316
       4     O     4.31029  4.31029  0.00000 -0.62059
       5     H     0.40053  0.40053  0.00000  0.19894
       6     H     0.39698  0.39698  0.00000  0.20603
       7     H     0.40084  0.40084  0.00000  0.19831
       8     C     2.99964  2.99964  0.00000  0.00072
       9     C     3.17069  3.17069  0.00000 -0.34139
      10     H     0.40872  0.40872  0.00000  0.18256
      11     H     0.40882  0.40882  0.00000  0.18235
      12     C     3.15923  3.15923  0.00000 -0.31845
      13     H     0.40580  0.40580  0.00000  0.18840
      14     H     0.41659  0.41659  0.00000  0.16683
      15     C     3.24061  3.24061  0.00000 -0.48121
      16     H     0.41895  0.41895  0.00000  0.16211
      17     H     0.42012  0.42012  0.00000  0.15977
      18     H     0.41714  0.41714  0.00000  0.16573
      19     H     0.41976  0.41976  0.00000  0.16049
      20     H     0.42039  0.42039  0.00000  0.15922

   Total alpha = 32.00000, Total beta = 32.00000, Total charge = -0.00000
