  ==> Input File <==

--------------------------------------------------------------------------
set {
	reference rhf
	basis cc-pvtz
}

set_num_threads( 4 )
memory 2 gb

molecule MOL {
0 1

H	 3.889604	 0.356866	 -0.089510
N	 3.091268	 -0.241216	 -0.065538
C	 1.860978	 0.530248	 0.016256
H	 3.192566	 -0.835836	 0.730398
C	 0.644130	 -0.381765	 -0.031064
H	 1.835721	 1.204666	 -0.833114
H	 1.808789	 1.151975	 0.911067
C	 -0.678115	 0.376691	 0.025731
H	 0.693998	 -0.977147	 -0.936845
H	 0.693309	 -1.082142	 0.800523
C	 -1.491678	 0.270294	 -1.261124
H	 -0.482217	 1.425369	 0.237517
H	 -1.274647	 0.005836	 0.856085
C	 -2.809752	 1.035103	 -1.202625
H	 -0.897287	 0.639864	 -2.092033
H	 -1.692065	 -0.776472	 -1.473010
H	 -2.641285	 2.092380	 -1.026486
H	 -3.361586	 0.938951	 -2.130655
H	 -3.442098	 0.665088	 -0.402273

	symmetry c1
}
set optking {
	frozen_dihedral = ("
		12 8 5 9
	")
}

ee = optimize('scf')
oeprop('DIPOLE', 'QUADRUPOLE', 'MULLIKEN_CHARGES')
f=open( 'psi4out.xyz', 'w' )
f.write( "19  " )
f.write( str(ee) + "\n" )
f.write( MOL.save_string_xyz() )
f.close()
--------------------------------------------------------------------------

    Molecular point group: c1
  Charge       = 0
  Multiplicity = 1
  Basis Set: CC-PVTZ
  Basis Set:
  @DF-RHF Final Energy:  -251.44298594333199
    Total Energy =                       -251.4429859433319052
    Molecular point group: c1
  Basis Set: CC-PVTZ
  Basis Set:
  Basis Set: CC-PVTZ
  Basis Set:
  @DF-RHF Final Energy:  -251.44322595532736
    Total Energy =                       -251.4432259553270796
  Basis Set: CC-PVTZ
  Basis Set:
  Basis Set: CC-PVTZ
  Basis Set:
  @DF-RHF Final Energy:  -251.44328454689565
    Total Energy =                       -251.4432845468958249
  Basis Set: CC-PVTZ
  Basis Set:
  Charge       = 0
  Multiplicity = 1
  Basis Set: CC-PVTZ
  Basis Set:

    Orbital Energies (a.u.)
    -----------------------

    Doubly Occupied:

       1A    -15.526471     2A    -11.238468     3A    -11.211673
       4A    -11.210312     5A    -11.207460     6A    -11.204974
       7A     -1.178443     8A     -1.072405     9A     -0.997854
      10A     -0.900429    11A     -0.818169    12A     -0.787167
      13A     -0.661619    14A     -0.635915    15A     -0.626307
      16A     -0.587712    17A     -0.570608    18A     -0.549419
      19A     -0.526625    20A     -0.499415    21A     -0.484728
      22A     -0.465475    23A     -0.453266    24A     -0.449840
      25A     -0.384040

  @DF-RHF Final Energy:  -251.44328506418273

   => Energetics <=

    Nuclear Repulsion Energy =            247.2780181113284073
    One-Electron Energy =                -828.9450189420462038
    Two-Electron Energy =                 330.2237157665351788
    DFT Exchange-Correlation Energy =       0.0000000000000000
    Empirical Dispersion Energy =           0.0000000000000000
    PCM Polarization Energy =               0.0000000000000000
    EFP Energy =                            0.0000000000000000
    Total Energy =                       -251.4432850641826462
    Molecular point group: c1
  Basis Set: CC-PVTZ
  Basis Set:

  -Total Gradient:
     Atom            X                  Y                   Z
    ------   -----------------  -----------------  -----------------
       1        0.000031322807    -0.000008846545    -0.000003711777
       2        0.000055325230    -0.000006050370    -0.000023800703
       3       -0.000056132597    -0.000034444144     0.000054660954
       4        0.000000434645     0.000010323438     0.000002045657
       5       -0.000607167828    -0.001035258238     0.000416058235
       6        0.000005482670    -0.000010310758     0.000011298162
       7        0.000001490951     0.000027107513    -0.000002169291
       8       -0.000011673980    -0.000097119515     0.001310444252
       9        0.000501885520     0.000944057593    -0.000604281977
      10       -0.000008248230     0.000017648286    -0.000005949306
      11       -0.000021047765    -0.000089527439     0.000059957607
      12        0.000100617681     0.000243088188    -0.001171838142
      13        0.000002070458    -0.000009580281    -0.000014597451
      14        0.000015272087     0.000057857789    -0.000017000946
      15        0.000002705522    -0.000021196762    -0.000002290702
      16       -0.000014915808    -0.000002336263     0.000000645875
      17       -0.000016809262     0.000008820850     0.000011124125
      18        0.000003189267     0.000014943790    -0.000008038252
      19        0.000016198629    -0.000009177131    -0.000012556319

  **** Optimization is complete! (in 4 steps) ****
    Final optimized geometry and variables:
    Molecular point group: c1

    Geometry (in Angstrom), charge = 0, multiplicity = 1:

    H            3.746964199709     0.116863635204     0.283530626863
    N            2.956186361686    -0.491079062159     0.311470525919
    C            1.719043976974     0.261494850386     0.437027810557
    H            3.082032238343    -1.102802873760     1.090843957035
    C            0.510937829581    -0.665527873117     0.406688370894
    H            1.661215152382     0.949100941009    -0.400731181867
    H            1.679969521648     0.868702862034     1.342426065697
    C           -0.830189752006     0.090419137134     0.454524297490
    H            0.575146991333    -1.262450263179    -0.495876825169
    H            0.582798812134    -1.358578792223     1.239715280984
    C           -1.629560379877    -0.007943473134    -0.843763916074
    H           -0.648808466193     1.141075743609     0.665968811326
    H           -1.441172967099    -0.279084477542     1.271526263448
    C           -2.932215045698     0.783305224139    -0.808226401852
    H           -1.015574781402     0.343341485919    -1.668901589398
    H           -1.846304417952    -1.052086694073    -1.050972672529
    H           -2.745342950865     1.838613688233    -0.638377909121
    H           -3.474636520861     0.690135297398    -1.742150240156
    H           -3.581381279418     0.432441217986    -0.012642442808

  Mulliken Charges: (a.u.)
   Center  Symbol    Alpha    Beta     Spin     Total
       1     H     0.43024  0.43024  0.00000  0.13952
       2     N     3.69018  3.69018  0.00000 -0.38035
       3     C     3.02374  3.02374  0.00000 -0.04748
       4     H     0.43089  0.43089  0.00000  0.13822
       5     C     3.09115  3.09115  0.00000 -0.18229
       6     H     0.45681  0.45681  0.00000  0.08637
       7     H     0.46779  0.46779  0.00000  0.06442
       8     C     3.10148  3.10148  0.00000 -0.20295
       9     H     0.44913  0.44913  0.00000  0.10173
      10     H     0.45397  0.45397  0.00000  0.09206
      11     C     3.08145  3.08145  0.00000 -0.16289
      12     H     0.45687  0.45687  0.00000  0.08625
      13     H     0.44899  0.44899  0.00000  0.10203
      14     C     3.15046  3.15046  0.00000 -0.30091
      15     H     0.45383  0.45383  0.00000  0.09234
      16     H     0.45334  0.45334  0.00000  0.09331
      17     H     0.45560  0.45560  0.00000  0.08880
      18     H     0.44859  0.44859  0.00000  0.10282
      19     H     0.45549  0.45549  0.00000  0.08903

   Total alpha = 25.00000, Total beta = 25.00000, Total charge = -0.00000
