  ==> Input File <==

--------------------------------------------------------------------------
set {
	reference rhf
	basis 6-31G*
}

set_num_threads( 4 )
memory 2 gb

molecule MOL {
0 1

H	 -3.269016	 -0.876744	 0.468090
C	 -2.809304	 0.000122	 0.025886
N	 -1.391456	 0.000019	 0.300661
H	 -3.037557	 -0.000063	 -1.044252
H	 -3.269223	 0.876956	 0.468000
C	 -0.938698	 -1.260315	 0.855960
C	 -0.995001	 1.107366	 1.148255
H	 -1.415561	 -1.470068	 1.818307
H	 -1.208979	 -2.059536	 0.173496
C	 0.570555	 -1.247335	 1.041847
H	 -1.306372	 2.034925	 0.678959
H	 -1.475589	 1.054347	 2.129954
C	 0.514253	 1.120346	 1.334142
H	 0.881927	 -2.174894	 1.511142
H	 1.051143	 -1.194315	 0.060149
N	 0.967010	 -0.139988	 1.889441
H	 0.784533	 1.919567	 2.016607
H	 0.991115	 1.330099	 0.371795
C	 2.384858	 -0.140091	 2.164217
H	 2.667555	 -1.075219	 2.634739
H	 2.626408	 0.664792	 2.849523
H	 2.994869	 -0.014712	 1.264516

	symmetry c1
}
set optking {
	frozen_dihedral = ("
		6 3 2 4
	")
}

ee = optimize('scf')
oeprop('DIPOLE', 'QUADRUPOLE', 'MULLIKEN_CHARGES')
f=open( 'psi4out.xyz', 'w' )
f.write( "22  " )
f.write( str(ee) + "\n" )
f.write( MOL.save_string_xyz() )
f.close()
--------------------------------------------------------------------------

    Molecular point group: c1
  Charge       = 0
  Multiplicity = 1
  Basis Set: 6-31G*
  Basis Set:
  @DF-RHF Final Energy:  -344.22361364296063
    Total Energy =                       -344.2236136429605722
    Molecular point group: c1
  Basis Set: 6-31G*
  Basis Set:
  Basis Set: 6-31G*
  Basis Set:
  @DF-RHF Final Energy:  -344.22424300953446
    Total Energy =                       -344.2242430095344616
  Basis Set: 6-31G*
  Basis Set:
  Basis Set: 6-31G*
  Basis Set:
  @DF-RHF Final Energy:  -344.22439328706344
    Total Energy =                       -344.2243932870634353
  Basis Set: 6-31G*
  Basis Set:
  Charge       = 0
  Multiplicity = 1
  Basis Set: 6-31G*
  Basis Set:

    Orbital Energies (a.u.)
    -----------------------

    Doubly Occupied:

       1A    -15.541172     2A    -15.538741     3A    -11.238356
       4A    -11.238275     5A    -11.237355     6A    -11.237330
       7A    -11.235647     8A    -11.235389     9A     -1.252591
      10A     -1.200694    11A     -1.023884    12A     -0.990415
      13A     -0.911827    14A     -0.865902    15A     -0.835583
      16A     -0.754219    17A     -0.664246    18A     -0.634075
      19A     -0.629306    20A     -0.623516    21A     -0.618736
      22A     -0.579086    23A     -0.550440    24A     -0.550042
      25A     -0.541642    26A     -0.519774    27A     -0.497501
      28A     -0.486913    29A     -0.463778    30A     -0.454602
      31A     -0.348270    32A     -0.340261

  @DF-RHF Final Energy:  -344.22439527643820

   => Energetics <=

    Nuclear Repulsion Energy =            420.8213404118736776
    One-Electron Energy =               -1300.4123351423008899
    Two-Electron Energy =                 535.3665994539893518
    DFT Exchange-Correlation Energy =       0.0000000000000000
    Empirical Dispersion Energy =           0.0000000000000000
    PCM Polarization Energy =               0.0000000000000000
    EFP Energy =                            0.0000000000000000
    Total Energy =                       -344.2243952764378037
    Molecular point group: c1
  Basis Set: 6-31G*
  Basis Set:

  -Total Gradient:
     Atom            X                  Y                   Z
    ------   -----------------  -----------------  -----------------
       1       -0.000007758404     0.000004133837     0.000005335565
       2       -0.000134751936    -0.002112435504     0.000403337197
       3        0.000241022013    -0.000137926057    -0.001761236539
       4       -0.000046007119     0.001779839904     0.000019367312
       5       -0.000003776169    -0.000002475307    -0.000010133194
       6       -0.000228948071     0.000425281036     0.001283799294
       7        0.000096309310     0.000023578818     0.000032210413
       8       -0.000004161743     0.000025546304    -0.000029510066
       9       -0.000002446550     0.000018941557     0.000001653538
      10        0.000036583318    -0.000000731917    -0.000005378538
      11        0.000002564307    -0.000020018949    -0.000000350081
      12        0.000013169114    -0.000014489762    -0.000038707826
      13        0.000022765289     0.000021763184     0.000038948025
      14        0.000048849879    -0.000005808721     0.000023959137
      15       -0.000006998175    -0.000002049926     0.000010264637
      16       -0.000015398661    -0.000002388150     0.000018331525
      17        0.000065278410     0.000007649474     0.000030046056
      18       -0.000024628273    -0.000005327052     0.000014172450
      19       -0.000014723857    -0.000001224485    -0.000028305935
      20       -0.000015147335    -0.000004293465    -0.000003314138
      21       -0.000019295890     0.000002188845    -0.000004229923
      22       -0.000002499454     0.000000246336    -0.000000258911

  **** Optimization is complete! (in 4 steps) ****
    Final optimized geometry and variables:
    Molecular point group: c1

    Geometry (in Angstrom), charge = 0, multiplicity = 1:

    H           -3.116892021149    -0.804486188111    -0.691551180202
    C           -2.608832955601     0.067548084403    -1.094740806194
    N           -1.189253346436     0.068182011611    -0.771210594668
    H           -2.763260727820     0.086721640321    -2.169570715555
    H           -3.102258119526     0.941574286028    -0.682070843690
    C           -0.726887526721    -1.191939552389    -0.223077476523
    C           -0.783206508973     1.178093565840     0.069831056777
    H           -1.193421698431    -1.407021963911     0.742960828770
    H           -0.999000036060    -1.990811321849    -0.905127158554
    C            0.783944088079    -1.176949008666    -0.053111253628
    H           -1.093403794439     2.105017800540    -0.400447929743
    H           -1.251570589997     1.132749376039     1.057649646426
    C            0.728006220327     1.190064813350     0.238162631229
    H            1.101803803785    -2.104100567564     0.413020061306
    H            1.253864385473    -1.123157975092    -1.039935220064
    N            1.187961870149    -0.069093057121     0.790114498430
    H            1.007004155455     1.990599674318     0.915841370916
    H            1.192875722595     1.397694028212    -0.730526924493
    C            2.608584566378    -0.067390715193     1.049161648851
    H            2.897837464951    -1.001973163744     1.516869558548
    H            2.856630730317     0.738096035467     1.731450966920
    H            3.208590155499     0.058577106934     0.142787112665

  Mulliken Charges: (a.u.)
   Center  Symbol    Alpha    Beta     Spin     Total
       1     H     0.42382  0.42382  0.00000  0.15236
       2     C     3.13975  3.13975  0.00000 -0.27950
       3     N     3.79132  3.79132  0.00000 -0.58263
       4     H     0.41605  0.41605  0.00000  0.16790
       5     H     0.42166  0.42166  0.00000  0.15669
       6     C     3.05692  3.05692  0.00000 -0.11384
       7     C     3.05659  3.05659  0.00000 -0.11318
       8     H     0.42874  0.42874  0.00000  0.14252
       9     H     0.41743  0.41743  0.00000  0.16515
      10     C     3.05622  3.05622  0.00000 -0.11245
      11     H     0.41756  0.41756  0.00000  0.16488
      12     H     0.42891  0.42891  0.00000  0.14217
      13     C     3.05639  3.05639  0.00000 -0.11278
      14     H     0.41835  0.41835  0.00000  0.16331
      15     H     0.42871  0.42871  0.00000  0.14259
      16     N     3.78703  3.78703  0.00000 -0.57407
      17     H     0.41835  0.41835  0.00000  0.16330
      18     H     0.42871  0.42871  0.00000  0.14258
      19     C     3.14016  3.14016  0.00000 -0.28032
      20     H     0.41690  0.41690  0.00000  0.16620
      21     H     0.41690  0.41690  0.00000  0.16619
      22     H     0.43353  0.43353  0.00000  0.13294

   Total alpha = 32.00000, Total beta = 32.00000, Total charge = -0.00000
