  ==> Input File <==

--------------------------------------------------------------------------
set {
	reference rhf
	basis 6-31G*
}

set_num_threads( 1 )
memory 2 gb

molecule MOL {
0 1

H	 2.312749	 -0.146194	 -0.309768
O	 1.586534	 -0.678666	 -0.000226
C	 0.489431	 0.077273	 0.000046
C	 -0.764129	 -0.759190	 0.000191
O	 0.537743	 1.263962	 0.000257
C	 -2.038368	 0.075731	 -0.000248
H	 -0.717284	 -1.412404	 -0.866059
H	 -0.717458	 -1.411724	 0.866967
H	 -2.086483	 0.712501	 -0.875098
H	 -2.908485	 -0.571682	 -0.000042
H	 -2.086576	 0.713280	 0.874068

	symmetry c1
}
set optking {
	frozen_dihedral = ("
		2 3 4 7
	")
}

ee = energy('scf')
oeprop('DIPOLE', 'QUADRUPOLE', 'MULLIKEN_CHARGES')
f=open( 'psi4out.xyz', 'w' )
f.write( "11  " )
f.write( str(ee) + "\n" )
f.write( MOL.save_string_xyz() )
f.close()
--------------------------------------------------------------------------

    Molecular point group: c1

    Geometry (in Angstrom), charge = 0, multiplicity = 1:

       Center              X                  Y                   Z               Mass
    ------------   -----------------  -----------------  -----------------  -----------------
           H          2.313170988003    -0.145582750213    -0.305553967625     1.007825032070
           O          1.586955988003    -0.678054750213     0.003988032375    15.994914619560
           C          0.489852988003     0.077884249787     0.004260032375    12.000000000000
           C         -0.763707011997    -0.758578750213     0.004405032375    12.000000000000
           O          0.538164988003     1.264573249787     0.004471032375    15.994914619560
           C         -2.037946011997     0.076342249787     0.003966032375    12.000000000000
           H         -0.716862011997    -1.411792750213    -0.861844967625     1.007825032070
           H         -0.717036011997    -1.411112750213     0.871181032375     1.007825032070
           H         -2.086061011997     0.713112249787    -0.870883967625     1.007825032070
           H         -2.908063011997    -0.571070750213     0.004172032375     1.007825032070
           H         -2.086154011997     0.713891249787     0.878282032375     1.007825032070

  Charge       = 0
  Multiplicity = 1
  Basis Set: 6-31G*
  Basis Set:

    Orbital Energies (a.u.)
    -----------------------

    Doubly Occupied:

       1A    -20.612138     2A    -20.553469     3A    -11.381972
       4A    -11.244036     5A    -11.220318     6A     -1.475223
       7A     -1.367128     8A     -1.065071     9A     -0.916458
      10A     -0.801645    11A     -0.702778    12A     -0.689969
      13A     -0.662409    14A     -0.602802    15A     -0.584797
      16A     -0.531367    17A     -0.525826    18A     -0.504998
      19A     -0.480420    20A     -0.445916

  @DF-RHF Final Energy:  -266.84363379627450

   => Energetics <=

    Nuclear Repulsion Energy =            179.7803425152421255
    One-Electron Energy =                -720.5104697962876799
    Two-Electron Energy =                 273.8864934847708810
    DFT Exchange-Correlation Energy =       0.0000000000000000
    Empirical Dispersion Energy =           0.0000000000000000
    PCM Polarization Energy =               0.0000000000000000
    EFP Energy =                            0.0000000000000000
    Total Energy =                       -266.8436337962746165

  Mulliken Charges: (a.u.)
   Center  Symbol    Alpha    Beta     Spin     Total
       1     H     0.26716  0.26716  0.00000  0.46568
       2     O     4.35098  4.35098  0.00000 -0.70195
       3     C     2.62651  2.62651  0.00000  0.74698
       4     C     3.20803  3.20803  0.00000 -0.41606
       5     O     4.27607  4.27607  0.00000 -0.55214
       6     C     3.23958  3.23958  0.00000 -0.47917
       7     H     0.39905  0.39905  0.00000  0.20191
       8     H     0.39771  0.39771  0.00000  0.20457
       9     H     0.40950  0.40950  0.00000  0.18099
      10     H     0.41676  0.41676  0.00000  0.16649
      11     H     0.40865  0.40865  0.00000  0.18270

   Total alpha = 20.00000, Total beta = 20.00000, Total charge =  0.00000
