  ==> Input File <==

--------------------------------------------------------------------------
set {
	reference rhf
	basis cc-pvtz
}

set_num_threads( 4 )
memory 2 gb

molecule MOL {
0 1

H	 3.721907	 -0.933076	 -0.066039
O	 2.824271	 -1.154299	 0.131461
C	 2.076458	 -0.067370	 -0.038225
C	 0.626018	 -0.337582	 0.258241
O	 2.538288	 0.965419	 -0.381593
C	 -0.267326	 0.883135	 0.076490
H	 0.325620	 -1.161483	 -0.378003
H	 0.574537	 -0.713685	 1.275261
C	 -1.726822	 0.642622	 0.463839
H	 -0.210803	 1.217591	 -0.953497
H	 0.129920	 1.693110	 0.675679
C	 -2.480891	 -0.340606	 -0.429852
H	 -2.243098	 1.597649	 0.438609
H	 -1.776542	 0.301208	 1.495542
C	 -2.996386	 0.305074	 -1.711974
H	 -1.823768	 -1.168426	 -0.682712
H	 -3.319637	 -0.769574	 0.109080
H	 -3.524824	 -0.413079	 -2.328165
H	 -2.180637	 0.710230	 -2.301125
H	 -3.679864	 1.118637	 -1.492588

	symmetry c1
}
set optking {
	frozen_dihedral = ("
		16 12 9 6
	")
}

ee = optimize('scf')
oeprop('DIPOLE', 'QUADRUPOLE', 'MULLIKEN_CHARGES')
f=open( 'psi4out.xyz', 'w' )
f.write( "20  " )
f.write( str(ee) + "\n" )
f.write( MOL.save_string_xyz() )
f.close()
--------------------------------------------------------------------------

    Molecular point group: c1
  Charge       = 0
  Multiplicity = 1
  Basis Set: CC-PVTZ
  Basis Set:
  @DF-RHF Final Energy:  -384.09195340016328
    Total Energy =                       -384.0919534001639022
    Molecular point group: c1
  Basis Set: CC-PVTZ
  Basis Set:
  Basis Set: CC-PVTZ
  Basis Set:
  @DF-RHF Final Energy:  -384.09214801068589
    Total Energy =                       -384.0921480106861736
  Basis Set: CC-PVTZ
  Basis Set:
  Basis Set: CC-PVTZ
  Basis Set:
  @DF-RHF Final Energy:  -384.09236540019862
    Total Energy =                       -384.0923654001986165
  Basis Set: CC-PVTZ
  Basis Set:
  Basis Set: CC-PVTZ
  Basis Set:
  @DF-RHF Final Energy:  -384.09219904854621
    Total Energy =                       -384.0921990485462629
  Basis Set: CC-PVTZ
  Basis Set:
  Basis Set: CC-PVTZ
  Basis Set:
  @DF-RHF Final Energy:  -384.09238863158083
    Total Energy =                       -384.0923886315806612
  Basis Set: CC-PVTZ
  Basis Set:
  Basis Set: CC-PVTZ
  Basis Set:
  @DF-RHF Final Energy:  -384.09239531392177
    Total Energy =                       -384.0923953139216565
  Basis Set: CC-PVTZ
  Basis Set:
  Charge       = 0
  Multiplicity = 1
  Basis Set: CC-PVTZ
  Basis Set:

    Orbital Energies (a.u.)
    -----------------------

    Doubly Occupied:

       1A    -20.604009     2A    -20.540652     3A    -11.373611
       4A    -11.238817     5A    -11.221092     6A    -11.218821
       7A    -11.218208     8A    -11.209459     9A     -1.477603
      10A     -1.369107    11A     -1.097161    12A     -1.040624
      13A     -0.960275    14A     -0.876462    15A     -0.817450
      16A     -0.772169    17A     -0.703781    18A     -0.693475
      19A     -0.669210    20A     -0.628562    21A     -0.618892
      22A     -0.584990    23A     -0.579463    24A     -0.567922
      25A     -0.524827    26A     -0.511530    27A     -0.510755
      28A     -0.484745    29A     -0.469987    30A     -0.461487
      31A     -0.458640    32A     -0.446728

  @DF-RHF Final Energy:  -384.09239630904580

   => Energetics <=

    Nuclear Repulsion Energy =            379.8676065643476818
    One-Electron Energy =               -1276.0189735910230411
    Two-Electron Energy =                 512.0589707176291085
    DFT Exchange-Correlation Energy =       0.0000000000000000
    Empirical Dispersion Energy =           0.0000000000000000
    PCM Polarization Energy =               0.0000000000000000
    EFP Energy =                            0.0000000000000000
    Total Energy =                       -384.0923963090463076
    Molecular point group: c1
  Basis Set: CC-PVTZ
  Basis Set:

  -Total Gradient:
     Atom            X                  Y                   Z
    ------   -----------------  -----------------  -----------------
       1        0.000000837375     0.000000801358     0.000001836075
       2        0.000001720785    -0.000008027098    -0.000006551355
       3       -0.000003493685     0.000013002672    -0.000027792909
       4       -0.000028016252    -0.000015491730    -0.000047817995
       5        0.000007153368     0.000000369982     0.000016422801
       6        0.000500918134    -0.001408297601     0.000994075754
       7       -0.000004830438    -0.000015194005     0.000019193622
       8        0.000006867208     0.000022692916     0.000007003040
       9       -0.000533238879     0.002273680723    -0.001887750571
      10        0.000011518915     0.000030788387     0.000015935443
      11       -0.000007966347    -0.000012028953     0.000040234205
      12       -0.000691327429    -0.002211608492     0.002839438853
      13        0.000001973757     0.000009663599    -0.000039475822
      14        0.000000351252     0.000034474532     0.000014424866
      15       -0.000005530021    -0.000000672328    -0.000004665432
      16        0.000735140505     0.001281001570    -0.001936635324
      17        0.000004984493     0.000005329972     0.000008119187
      18       -0.000000444555    -0.000000443656    -0.000006021484
      19        0.000001539865     0.000003406704    -0.000000568517
      20        0.000001841960    -0.000003448550     0.000000595560

  **** Optimization is complete! (in 7 steps) ****
    Final optimized geometry and variables:
    Molecular point group: c1

    Geometry (in Angstrom), charge = 0, multiplicity = 1:

    H            3.617710524425    -1.015783714331     0.179455667217
    O            2.728993551518    -1.227294583389     0.422715791426
    C            1.962225285179    -0.168740566569     0.175677245783
    C            0.524503964408    -0.426184574412     0.538234943595
    O            2.400026953554     0.832862175267    -0.275032546017
    C           -0.388332240928     0.766733027778     0.283632464556
    H            0.215465392960    -1.305170329045    -0.014969880425
    H            0.507380465703    -0.714720455187     1.584337540124
    C           -1.845836909953     0.511030547613     0.677884813564
    H           -0.320934598850     1.053742155401    -0.758987260184
    H           -0.011776799406     1.611794946242     0.847051803888
    C           -2.621112733310    -0.436458383886    -0.247189051373
    H           -2.367771674862     1.461707049455     0.719231375152
    H           -1.863441816615     0.117266599291     1.690634040213
    C           -3.160607228794     0.249745421236    -1.501163309946
    H           -1.987622378307    -1.262290967983    -0.553970732915
    H           -3.450858573838    -0.870676523152     0.299762026861
    H           -3.682528072642    -0.456055739225    -2.137226881487
    H           -2.364802201427     0.693178687248    -2.089060314943
    H           -3.857338462863     1.039655842846    -1.241817255405

  Mulliken Charges: (a.u.)
   Center  Symbol    Alpha    Beta     Spin     Total
       1     H     0.38241  0.38241  0.00000  0.23518
       2     O     4.16036  4.16036  0.00000 -0.32072
       3     C     2.80326  2.80326  0.00000  0.39349
       4     C     3.11132  3.11132  0.00000 -0.22264
       5     O     4.19114  4.19114  0.00000 -0.38227
       6     C     3.09368  3.09368  0.00000 -0.18736
       7     H     0.43744  0.43744  0.00000  0.12511
       8     H     0.43738  0.43738  0.00000  0.12524
       9     C     3.10747  3.10747  0.00000 -0.21494
      10     H     0.44435  0.44435  0.00000  0.11129
      11     H     0.43972  0.43972  0.00000  0.12057
      12     C     3.09058  3.09058  0.00000 -0.18115
      13     H     0.44514  0.44514  0.00000  0.10972
      14     H     0.44890  0.44890  0.00000  0.10219
      15     C     3.14824  3.14824  0.00000 -0.29647
      16     H     0.45611  0.45611  0.00000  0.08777
      17     H     0.44671  0.44671  0.00000  0.10657
      18     H     0.44793  0.44793  0.00000  0.10414
      19     H     0.45372  0.45372  0.00000  0.09256
      20     H     0.45414  0.45414  0.00000  0.09172

   Total alpha = 32.00000, Total beta = 32.00000, Total charge = -0.00000
