                              Psi4 1.0.54 Driver

  ==> Input File <==

--------------------------------------------------------------------------
set {
	reference rhf
	basis cc-pvtz
}

set_num_threads( 4 )
memory 2 gb

molecule MOL {
0 1

O	 0.623971	 1.347241	 -0.000777
C	 0.485107	 0.171416	 -0.000134
C	 1.606966	 -0.836201	 0.000174
O	 -0.695554	 -0.422406	 0.000602
C	 2.988788	 -0.202529	 -0.000115
H	 1.465110	 -1.474645	 -0.864821
H	 1.465209	 -1.474077	 0.865596
H	 3.131767	 0.419673	 -0.873407
H	 3.750876	 -0.972315	 0.000098
H	 3.131883	 0.420264	 0.872742
C	 -0.855047	 -1.579662	 0.809062
C	 -2.275276	 -2.067157	 0.642370
H	 -0.641275	 -1.324114	 1.837335
H	 -0.139516	 -2.328210	 0.499202
H	 -2.982565	 -1.309167	 0.954725
H	 -2.431456	 -2.952119	 1.247914
H	 -2.477946	 -2.319046	 -0.390997

	symmetry c1
}
set optking {
	frozen_dihedral = ("
		11 4 2 3
	")
}

ee,wfn = optimize('scf', return_wfn=True)
oeprop( wfn, 'DIPOLE', 'QUADRUPOLE', 'MULLIKEN_CHARGES')
f=open( 'psi4out.xyz', 'w' )
f.write( "17  " )
f.write( str(ee) + "\n" )
f.write( MOL.save_string_xyz() )
f.close()
--------------------------------------------------------------------------

    Molecular point group: c1
  Charge       = 0
  Multiplicity = 1
  Basis Set: CC-PVTZ
  Basis Set:
  @DF-RHF Final Energy:  -345.01661262812547
    Total Energy =                       -345.0166126281253582
    Molecular point group: c1
  Basis Set: CC-PVTZ
  Basis Set:
  Basis Set: CC-PVTZ
  Basis Set:
  @DF-RHF Final Energy:  -345.01010129512235
    Total Energy =                       -345.0101012951222401
  Basis Set: CC-PVTZ
  Basis Set:
  Basis Set: CC-PVTZ
  Basis Set:
  @DF-RHF Final Energy:  -345.02283168921861
    Total Energy =                       -345.0228316892187195
  Basis Set: CC-PVTZ
  Basis Set:
  Basis Set: CC-PVTZ
  Basis Set:
  @DF-RHF Final Energy:  -345.02267791141452
    Total Energy =                       -345.0226779114149167
  Basis Set: CC-PVTZ
  Basis Set:
  @DF-RHF Final Energy:  -345.02417295190753
    Total Energy =                       -345.0241729519071896
  Basis Set: CC-PVTZ
  Basis Set:
  @DF-RHF Final Energy:  -345.02441482836559
    Total Energy =                       -345.0244148283656500
  Basis Set: CC-PVTZ
  Basis Set:
  Basis Set: CC-PVTZ
  Basis Set:
  @DF-RHF Final Energy:  -345.02450566292043
    Total Energy =                       -345.0245056629207738
  Basis Set: CC-PVTZ
  Basis Set:
  Basis Set: CC-PVTZ
  Basis Set:
  @DF-RHF Final Energy:  -345.02450910218471
    Total Energy =                       -345.0245091021848225
  Basis Set: CC-PVTZ
  Basis Set:
  Charge       = 0
  Multiplicity = 1
  Basis Set: CC-PVTZ
  Basis Set:

    Orbital Energies (a.u.)
    -----------------------

    Doubly Occupied:

       1A    -20.586258     2A    -20.533050     3A    -11.365246
       4A    -11.296573     5A    -11.243903     6A    -11.224695
       7A    -11.217666     8A     -1.462551     9A     -1.368054
      10A     -1.064188    11A     -1.045148    12A     -0.901901
      13A     -0.878439    14A     -0.771511    15A     -0.705557
      16A     -0.694070    17A     -0.658715    18A     -0.637355
      19A     -0.598740    20A     -0.568610    21A     -0.560670
      22A     -0.538306    23A     -0.527149    24A     -0.519359
      25A     -0.510153    26A     -0.493145    27A     -0.451220
      28A     -0.434744

  @DF-RHF Final Energy:  -345.02450960929752

   => Energetics <=

    Nuclear Repulsion Energy =            315.6452528904886776
    One-Electron Energy =               -1095.6255646544998399
    Two-Electron Energy =                 434.9558021547136377
    DFT Exchange-Correlation Energy =       0.0000000000000000
    Empirical Dispersion Energy =           0.0000000000000000
    PCM Polarization Energy =               0.0000000000000000
    EFP Energy =                            0.0000000000000000
    Total Energy =                       -345.0245096092975245
    Molecular point group: c1
  Basis Set: CC-PVTZ
  Basis Set:

  -Total Gradient:
     Atom            X                  Y                   Z
    ------   -----------------  -----------------  -----------------
       1        0.000013007726    -0.000011901919     0.000016088611
       2       -0.000887195173     0.001946326473     0.004972525555
       3        0.000177014209    -0.000525757697    -0.002683246968
       4        0.001747819346    -0.003532991364    -0.004228438755
       5        0.000008234659     0.000011855276     0.000018471113
       6        0.000021912553     0.000018681244     0.000027732354
       7       -0.000004455738     0.000009632935     0.000031487666
       8       -0.000005818622    -0.000001417682    -0.000007808380
       9       -0.000001955325    -0.000004303591    -0.000003924596
      10       -0.000009379031    -0.000009187492    -0.000005842992
      11       -0.001059593282     0.002086647218     0.001875768413
      12       -0.000007557463     0.000007253242    -0.000014606914
      13        0.000009271995    -0.000004823066    -0.000007840995
      14       -0.000003654029     0.000016084748    -0.000002632957
      15       -0.000001507550    -0.000009160955    -0.000003931700
      16        0.000001379443    -0.000001134371     0.000002888828
      17        0.000002476285     0.000004196999     0.000013311718

  **** Optimization is complete! (in 9 steps) ****
    Final optimized geometry and variables:
    Molecular point group: c1

    Geometry (in Angstrom), charge = 0, multiplicity = 1:

    O            0.329972690158     1.712997023492    -0.564177908670
    C            0.270698439581     0.574693376022    -0.267178666386
    C            1.489578859975    -0.286399950311    -0.014426364779
    O           -0.915326150571    -0.039811816127    -0.238711733917
    C            2.797306056665     0.455291221314    -0.244082747847
    H            1.412853387841    -1.152411935054    -0.663586086469
    H            1.445791986957    -0.666921247288     1.000524749200
    H            2.865301775622     0.816180184126    -1.261095488703
    H            3.635596091124    -0.204614532647    -0.056036716470
    H            2.878609115942     1.310063752979     0.413052411773
    C           -1.214810835824    -1.039029895192     0.715879321277
    C           -2.686521950628    -1.361460782689     0.596133987429
    H           -0.986657631951    -0.671736732378     1.710065850346
    H           -0.618666403192    -1.925363649344     0.535273997383
    H           -3.285153677471    -0.480619576710     0.786185295109
    H           -2.956055140446    -2.127831433359     1.313482270364
    H           -2.915498414956    -1.722912017417    -0.398068383713

  Mulliken Charges: (a.u.)
   Center  Symbol    Alpha    Beta     Spin     Total
       1     O     4.17555  4.17555  0.00000 -0.35111
       2     C     2.81290  2.81290  0.00000  0.37420
       3     C     3.12046  3.12046  0.00000 -0.24092
       4     O     4.13923  4.13923  0.00000 -0.27846
       5     C     3.13896  3.13896  0.00000 -0.27793
       6     H     0.43772  0.43772  0.00000  0.12456
       7     H     0.44338  0.44338  0.00000  0.11323
       8     H     0.44553  0.44553  0.00000  0.10893
       9     H     0.45145  0.45145  0.00000  0.09709
      10     H     0.44642  0.44642  0.00000  0.10715
      11     C     2.98673  2.98673  0.00000  0.02654
      12     C     3.13289  3.13289  0.00000 -0.26577
      13     H     0.45831  0.45831  0.00000  0.08338
      14     H     0.45950  0.45950  0.00000  0.08101
      15     H     0.44554  0.44554  0.00000  0.10892
      16     H     0.45686  0.45686  0.00000  0.08628
      17     H     0.44856  0.44856  0.00000  0.10287

   Total alpha = 28.00000, Total beta = 28.00000, Total charge =  0.00000

*** Psi4 exiting successfully. Buy a developer a beer!
