  ==> Input File <==

--------------------------------------------------------------------------
set {
	reference rhf
	basis 6-31G*
}

set_num_threads( 4 )
memory 2 gb

molecule MOL {
0 1

H	 -3.420663	 1.227371	 -1.044276
O	 -3.452007	 0.283848	 -0.965577
C	 -3.181085	 -0.079926	 0.364119
C	 -1.765924	 0.277073	 0.805136
H	 -3.327791	 -1.152017	 0.410903
H	 -3.905698	 0.375695	 1.036898
C	 -0.677594	 -0.417312	 -0.014550
H	 -1.637766	 1.358238	 0.744969
H	 -1.659588	 0.017670	 1.857098
C	 0.738335	 -0.034840	 0.421385
H	 -0.814977	 -0.178223	 -1.064632
H	 -0.802730	 -1.495410	 0.071702
C	 1.822265	 -0.738362	 -0.399735
H	 0.853533	 1.043532	 0.342250
H	 0.871597	 -0.279636	 1.474438
C	 2.944026	 0.178548	 -0.900817
H	 1.361385	 -1.238411	 -1.250167
H	 2.265085	 -1.523778	 0.209238
C	 2.499327	 1.228313	 -1.920935
H	 3.717630	 -0.438623	 -1.351292
H	 3.409252	 0.674805	 -0.051407
H	 2.018713	 0.761490	 -2.776637
H	 3.350476	 1.793144	 -2.288832
H	 1.798500	 1.938319	 -1.494441

	symmetry c1
}
set optking {
	frozen_dihedral = ("
		17 13 10 7
	")
}

ee = optimize('scf')
oeprop('DIPOLE', 'QUADRUPOLE', 'MULLIKEN_CHARGES')
f=open( 'psi4out.xyz', 'w' )
f.write( "24  " )
f.write( str(ee) + "\n" )
f.write( MOL.save_string_xyz() )
f.close()
--------------------------------------------------------------------------

    Molecular point group: c1
  Charge       = 0
  Multiplicity = 1
  Basis Set: 6-31G*
  Basis Set:
  @DF-RHF Final Energy:  -349.24259425365017
    Total Energy =                       -349.2425942536501680
    Molecular point group: c1
  Basis Set: 6-31G*
  Basis Set:
  Basis Set: 6-31G*
  Basis Set:
  @DF-RHF Final Energy:  -349.24275888270017
    Total Energy =                       -349.2427588827000022
  Basis Set: 6-31G*
  Basis Set:
  Basis Set: 6-31G*
  Basis Set:
  @DF-RHF Final Energy:  -349.24292332597241
    Total Energy =                       -349.2429233259721286
  Basis Set: 6-31G*
  Basis Set:
  Basis Set: 6-31G*
  Basis Set:
  @DF-RHF Final Energy:  -349.24302591518091
    Total Energy =                       -349.2430259151807945
  Basis Set: 6-31G*
  Basis Set:
  Basis Set: 6-31G*
  Basis Set:
  @DF-RHF Final Energy:  -349.24303374078022
    Total Energy =                       -349.2430337407803336
  Basis Set: 6-31G*
  Basis Set:
  Basis Set: 6-31G*
  Basis Set:
  @DF-RHF Final Energy:  -349.24303549408506
    Total Energy =                       -349.2430354940851771
  Basis Set: 6-31G*
  Basis Set:
  Charge       = 0
  Multiplicity = 1
  Basis Set: 6-31G*
  Basis Set:

    Orbital Energies (a.u.)
    -----------------------

    Doubly Occupied:

       1A    -20.553521     2A    -11.267671     3A    -11.217213
       4A    -11.214285     5A    -11.212334     6A    -11.211317
       7A    -11.211136     8A    -11.207306     9A     -1.360119
      10A     -1.087044    11A     -1.047973    12A     -0.984326
      13A     -0.915552    14A     -0.849453    15A     -0.800505
      16A     -0.778231    17A     -0.679097    18A     -0.653000
      19A     -0.624010    20A     -0.617828    21A     -0.599356
      22A     -0.575663    23A     -0.568390    24A     -0.533315
      25A     -0.519667    26A     -0.509797    27A     -0.494432
      28A     -0.475784    29A     -0.467176    30A     -0.459699
      31A     -0.453804    32A     -0.448325    33A     -0.418407

  @DF-RHF Final Energy:  -349.24303616311869

   => Energetics <=

    Nuclear Repulsion Energy =            387.8182793847334437
    One-Electron Energy =               -1242.0911576205630809
    Two-Electron Energy =                 505.0298420727109487
    DFT Exchange-Correlation Energy =       0.0000000000000000
    Empirical Dispersion Energy =           0.0000000000000000
    PCM Polarization Energy =               0.0000000000000000
    EFP Energy =                            0.0000000000000000
    Total Energy =                       -349.2430361631187452
    Molecular point group: c1
  Basis Set: 6-31G*
  Basis Set:

  -Total Gradient:
     Atom            X                  Y                   Z
    ------   -----------------  -----------------  -----------------
       1        0.000000748800    -0.000002418175     0.000000740159
       2        0.000002342162    -0.000002483541    -0.000009596861
       3        0.000014044496     0.000012936768    -0.000013634121
       4       -0.000005336650     0.000018493987    -0.000027511195
       5        0.000001413420     0.000000702524     0.000003349600
       6        0.000008641666     0.000002534071     0.000002263610
       7       -0.000056353291     0.001225827493    -0.001021282328
       8        0.000000549660     0.000011778848     0.000011122117
       9        0.000007652982    -0.000012389806    -0.000004761628
      10       -0.000083617326    -0.002177860782     0.001804787230
      11       -0.000001839606    -0.000034537644    -0.000020606465
      12       -0.000012667764    -0.000003221419     0.000026160213
      13        0.000342869669     0.002819570197    -0.001917044353
      14       -0.000006969316    -0.000019950875     0.000042717734
      15        0.000009783416     0.000005379927    -0.000010662874
      16        0.000038889342    -0.000032567556    -0.000070833936
      17       -0.000244924875    -0.001851744268     0.001208674573
      18       -0.000023126490    -0.000006968756    -0.000017245705
      19       -0.000010918887     0.000031827192     0.000027044615
      20        0.000012419379    -0.000007555349     0.000009508041
      21       -0.000008130427     0.000018856843    -0.000010639043
      22        0.000010717443    -0.000011742566    -0.000000426142
      23       -0.000001680413     0.000001630849     0.000003089284
      24        0.000005492621     0.000013902039    -0.000015212525

  **** Optimization is complete! (in 7 steps) ****
    Final optimized geometry and variables:
    Molecular point group: c1

    Geometry (in Angstrom), charge = 0, multiplicity = 1:

    H           -3.235607671207     1.168943951142    -0.635381997426
    O           -3.269817836779     0.223279900664    -0.591913268932
    C           -2.998279273878    -0.190709807835     0.722920505552
    C           -1.581163238322     0.144621085523     1.174699752387
    H           -3.148468325696    -1.263217828967     0.729793450315
    H           -3.720339298196     0.241788943664     1.413373188848
    C           -0.496833062995    -0.519777363561     0.326337399330
    H           -1.449854838769     1.227071734045     1.156795088122
    H           -1.473419200085    -0.156037412022     2.215508813609
    C            0.921812090555    -0.148828656267     0.764595569362
    H           -0.637287324507    -0.245737595001    -0.714625390433
    H           -0.620221758645    -1.600780317557     0.375800673066
    C            2.025184121807    -0.838771658419    -0.067759305158
    H            1.029645077207     0.931377961085     0.699268939050
    H            1.052732878476    -0.392654412847     1.816057068768
    C            3.151483865955     0.090078324993    -0.535184498281
    H            1.582354251673    -1.329673644558    -0.931884471878
    H            2.461584116846    -1.641015003198     0.521702141552
    C            2.729096136185     1.077459295650    -1.624335868504
    H            3.971916207517    -0.514933611620    -0.913242053259
    H            3.545704264821     0.636018069702     0.319668747396
    H            2.384460672405     0.551660372919    -2.510393851944
    H            3.560279941848     1.711165237903    -1.918426337282
    H            1.924808871081     1.727597368112    -1.294274686775

  Mulliken Charges: (a.u.)
   Center  Symbol    Alpha    Beta     Spin     Total
       1     H     0.28338  0.28338  0.00000  0.43323
       2     O     4.36829  4.36829  0.00000 -0.73658
       3     C     2.99607  2.99607  0.00000  0.00787
       4     C     3.16958  3.16958  0.00000 -0.33917
       5     H     0.41632  0.41632  0.00000  0.16737
       6     H     0.42821  0.42821  0.00000  0.14359
       7     C     3.15401  3.15401  0.00000 -0.30803
       8     H     0.42844  0.42844  0.00000  0.14312
       9     H     0.42231  0.42231  0.00000  0.15538
      10     C     3.15534  3.15534  0.00000 -0.31067
      11     H     0.41146  0.41146  0.00000  0.17708
      12     H     0.42325  0.42325  0.00000  0.15349
      13     C     3.15624  3.15624  0.00000 -0.31249
      14     H     0.42291  0.42291  0.00000  0.15418
      15     H     0.42215  0.42215  0.00000  0.15571
      16     C     3.15369  3.15369  0.00000 -0.30737
      17     H     0.42019  0.42019  0.00000  0.15961
      18     H     0.42036  0.42036  0.00000  0.15927
      19     C     3.24003  3.24003  0.00000 -0.48005
      20     H     0.42164  0.42164  0.00000  0.15672
      21     H     0.42348  0.42348  0.00000  0.15303
      22     H     0.42116  0.42116  0.00000  0.15767
      23     H     0.41968  0.41968  0.00000  0.16064
      24     H     0.42180  0.42180  0.00000  0.15641

   Total alpha = 33.00000, Total beta = 33.00000, Total charge = -0.00000
