                              Psi4 1.0.54 Driver

  ==> Input File <==

--------------------------------------------------------------------------
set {
	reference rhf
	basis cc-pvtz
}

set_num_threads( 4 )
memory 2 gb

molecule MOL {
0 1

H	 -2.362939	 -1.309000	 -0.383250
C	 -1.359344	 -1.272457	 0.020748
C	 -0.684082	 0.000127	 -0.464918
H	 -0.825835	 -2.151141	 -0.318537
H	 -1.416276	 -1.292399	 1.099455
C	 -1.359089	 1.272668	 0.021259
N	 0.742439	 -0.000109	 0.007333
H	 -0.596914	 0.000345	 -1.538146
H	 -2.362696	 1.309620	 -0.382686
H	 -0.825392	 2.151374	 -0.317674
H	 -1.415983	 1.292181	 1.099973
O	 1.424423	 -0.911448	 -0.321306
O	 1.096207	 0.911150	 0.678709

	symmetry c1
}
set optking {
	frozen_dihedral = ("
		12 7 3 8
	")
}

ee,wfn = optimize('scf', return_wfn=True)
oeprop( wfn, 'DIPOLE', 'QUADRUPOLE', 'MULLIKEN_CHARGES')
f=open( 'psi4out.xyz', 'w' )
f.write( "13  " )
f.write( str(ee) + "\n" )
f.write( MOL.save_string_xyz() )
f.close()
--------------------------------------------------------------------------

    Molecular point group: c1
  Charge       = 0
  Multiplicity = 1
  Basis Set: CC-PVTZ
  Basis Set:
  @DF-RHF Final Energy:  -321.86216803086637
    Total Energy =                       -321.8621680308663713
    Molecular point group: c1
  Basis Set: CC-PVTZ
  Basis Set:
  Basis Set: CC-PVTZ
  Basis Set:
  @DF-RHF Final Energy:  -321.86221984589275
    Total Energy =                       -321.8622198458925823
  Basis Set: CC-PVTZ
  Basis Set:
  Basis Set: CC-PVTZ
  Basis Set:
  @DF-RHF Final Energy:  -321.85886123185333
    Total Energy =                       -321.8588612318529840
  Basis Set: CC-PVTZ
  Basis Set:
  Basis Set: CC-PVTZ
  Basis Set:
  @DF-RHF Final Energy:  -321.86265879025530
    Total Energy =                       -321.8626587902554093
  Basis Set: CC-PVTZ
  Basis Set:
  Basis Set: CC-PVTZ
  Basis Set:
  @DF-RHF Final Energy:  -321.86280705179706
    Total Energy =                       -321.8628070517971764
  Basis Set: CC-PVTZ
  Basis Set:
  Basis Set: CC-PVTZ
  Basis Set:
  @DF-RHF Final Energy:  -321.86301727929919
    Total Energy =                       -321.8630172792990720
  Basis Set: CC-PVTZ
  Basis Set:
  Basis Set: CC-PVTZ
  Basis Set:
  @DF-RHF Final Energy:  -321.86302339635847
    Total Energy =                       -321.8630233963584146
  Basis Set: CC-PVTZ
  Basis Set:
  Charge       = 0
  Multiplicity = 1
  Basis Set: CC-PVTZ
  Basis Set:

    Orbital Energies (a.u.)
    -----------------------

    Doubly Occupied:

       1A    -20.591627     2A    -20.585576     3A    -15.833603
       4A    -11.306161     5A    -11.242170     6A    -11.237316
       7A     -1.634393     8A     -1.418298     9A     -1.140584
      10A     -0.969421    11A     -0.957960    12A     -0.815270
      13A     -0.762326    14A     -0.730307    15A     -0.724237
      16A     -0.642980    17A     -0.593563    18A     -0.587733
      19A     -0.570469    20A     -0.524898    21A     -0.521537
      22A     -0.484321    23A     -0.472360    24A     -0.451525

  @DF-RHF Final Energy:  -321.86302387377697

   => Energetics <=

    Nuclear Repulsion Energy =            257.3372175936523831
    One-Electron Energy =                -948.8032163605986398
    Two-Electron Energy =                 369.6029748931694030
    DFT Exchange-Correlation Energy =       0.0000000000000000
    Empirical Dispersion Energy =           0.0000000000000000
    PCM Polarization Energy =               0.0000000000000000
    EFP Energy =                            0.0000000000000000
    Total Energy =                       -321.8630238737769105
    Molecular point group: c1
  Basis Set: CC-PVTZ
  Basis Set:

  -Total Gradient:
     Atom            X                  Y                   Z
    ------   -----------------  -----------------  -----------------
       1        0.000007607132     0.000002405140     0.000000821165
       2        0.000012340984    -0.000003847611     0.000013220536
       3       -0.000159493990    -0.001925273998     0.000312750373
       4        0.000001863256    -0.000009911040    -0.000000092796
       5       -0.000002338027    -0.000004540226     0.000000238282
       6       -0.000008524513     0.000006964721     0.000000699837
       7        0.000520094279     0.001240918419    -0.001549172072
       8        0.000042370575     0.001449229846     0.000078891804
       9       -0.000006944579     0.000006511724     0.000001287635
      10        0.000003531554     0.000006803535    -0.000002555682
      11        0.000000102669    -0.000001411358     0.000001301743
      12       -0.000409243767    -0.000755710356     0.001149264618
      13       -0.000001365572    -0.000012138793    -0.000006655444

  **** Optimization is complete! (in 8 steps) ****
    Final optimized geometry and variables:
    Molecular point group: c1

    Geometry (in Angstrom), charge = 0, multiplicity = 1:

    H           -2.378072445460    -1.240355209948    -0.448261457485
    C           -1.367692671032    -1.251058509647    -0.061093824026
    C           -0.678003115537     0.046394231273    -0.458294709393
    H           -0.849904725680    -2.108460696706    -0.460693071852
    H           -1.419484632741    -1.341690647112     1.017337262175
    C           -1.384944920542     1.288566268522     0.046828411478
    N            0.750992900210    -0.005131663357     0.026172351561
    H           -0.564259307518     0.093229992584    -1.532141261912
    H           -2.376826394522     1.311536334726    -0.387607402459
    H           -0.862761818127     2.188676943123    -0.240417931589
    H           -1.480170638088     1.278110130479     1.123512018375
    O            1.400673770835    -0.923497308617    -0.350445781486
    O            1.141426290659     0.853635831320     0.740555002925

  Mulliken Charges: (a.u.)
   Center  Symbol    Alpha    Beta     Spin     Total
       1     H     0.44966  0.44966  0.00000  0.10069
       2     C     3.14426  3.14426  0.00000 -0.28852
       3     C     3.00684  3.00684  0.00000 -0.01367
       4     H     0.43113  0.43113  0.00000  0.13773
       5     H     0.44620  0.44620  0.00000  0.10760
       6     C     3.14237  3.14237  0.00000 -0.28474
       7     N     3.27510  3.27510  0.00000  0.44981
       8     H     0.42952  0.42952  0.00000  0.14096
       9     H     0.45031  0.45031  0.00000  0.09938
      10     H     0.43681  0.43681  0.00000  0.12637
      11     H     0.44281  0.44281  0.00000  0.11438
      12     O     4.17589  4.17589  0.00000 -0.35177
      13     O     4.16911  4.16911  0.00000 -0.33821

   Total alpha = 24.00000, Total beta = 24.00000, Total charge =  0.00000

*** Psi4 exiting successfully. Buy a developer a beer!
