                              Psi4 1.0.54 Driver

  ==> Input File <==

--------------------------------------------------------------------------
set {
	reference rhf
	basis cc-pvtz
}

set_num_threads( 4 )
memory 2 gb

molecule MOL {
0 1

O	 -1.278239	 1.034789	 -0.784693
C	 -1.204115	 0.062668	 -0.112312
C	 -2.386398	 -0.667698	 0.460323
O	 -0.068058	 -0.518372	 0.226882
H	 -2.382952	 -1.693172	 0.114333
H	 -3.296656	 -0.175702	 0.158400
H	 -2.312537	 -0.685191	 1.540100
C	 1.058759	 0.292452	 0.575667
C	 2.289543	 -0.535251	 0.263915
C	 0.970037	 0.697782	 2.035956
H	 1.037720	 1.174346	 -0.046353
H	 2.312194	 -0.807638	 -0.783483
H	 3.184783	 0.031504	 0.489852
H	 2.300938	 -1.443891	 0.853982
H	 1.828790	 1.301669	 2.304961
H	 0.077441	 1.279356	 2.219509
H	 0.955943	 -0.179011	 2.673387

	symmetry c1
}
set optking {
	frozen_dihedral = ("
		8 4 2 1
	")
}

ee,wfn = optimize('scf', return_wfn=True)
oeprop( wfn, 'DIPOLE', 'QUADRUPOLE', 'MULLIKEN_CHARGES')
f=open( 'psi4out.xyz', 'w' )
f.write( "17  " )
f.write( str(ee) + "\n" )
f.write( MOL.save_string_xyz() )
f.close()
--------------------------------------------------------------------------

    Molecular point group: c1
  Charge       = 0
  Multiplicity = 1
  Basis Set: CC-PVTZ
  Basis Set:
  @DF-RHF Final Energy:  -345.03583655794233
    Total Energy =                       -345.0358365579422752
    Molecular point group: c1
  Basis Set: CC-PVTZ
  Basis Set:
  Basis Set: CC-PVTZ
  Basis Set:
  @DF-RHF Final Energy:  -344.99175946138979
    Total Energy =                       -344.9917594613899041
  Basis Set: CC-PVTZ
  Basis Set:
  Basis Set: CC-PVTZ
  Basis Set:
  @DF-RHF Final Energy:  -345.03293644854801
    Total Energy =                       -345.0329364485480141
  Basis Set: CC-PVTZ
  Basis Set:
  Basis Set: CC-PVTZ
  Basis Set:
  @DF-RHF Final Energy:  -345.03654028638312
    Total Energy =                       -345.0365402863832855
  Basis Set: CC-PVTZ
  Basis Set:
  @DF-RHF Final Energy:  -345.03661277743043
    Total Energy =                       -345.0366127774304914
  @DF-RHF Final Energy:  -345.03645372822933
    Total Energy =                       -345.0364537282299580
  @DF-RHF Final Energy:  -345.03664129639765
    Total Energy =                       -345.0366412963970788
  @DF-RHF Final Energy:  -345.03665199533805
    Total Energy =                       -345.0366519953381612
  @DF-RHF Final Energy:  -345.03665516425446
    Total Energy =                       -345.0366551642540571
  @DF-RHF Final Energy:  -344.81409651483528
    Total Energy =                       -344.8140965148355690
  @DF-RHF Final Energy:  -344.93888283494829
    Total Energy =                       -344.9388828349483447
  @DF-RHF Final Energy:  -344.79477286584495
    Total Energy =                       -344.7947728658446636
  @DF-RHF Final Energy:  -344.65637149339915
    Total Energy =                       -344.6563714933992060
  @DF-RHF Final Energy:  -344.83507709836090
    Total Energy =                       -344.8350770983611255
  @DF-RHF Final Energy:  -344.76709392803110
    Total Energy =                       -344.7670939280314997
  @DF-RHF Final Energy:  -344.96602505396078
    Total Energy =                       -344.9660250539609478
  @DF-RHF Final Energy:  -345.02914741799617
    Total Energy =                       -345.0291474179963416
  @DF-RHF Final Energy:  -345.03496625593095
    Total Energy =                       -345.0349662559307262
  @DF-RHF Final Energy:  -345.03594417311689
    Total Energy =                       -345.0359441731171728
  @DF-RHF Final Energy:  -345.03636093011107
    Total Energy =                       -345.0363609301107886
  @DF-RHF Final Energy:  -345.03655321575752
    Total Energy =                       -345.0365532157578627
  @DF-RHF Final Energy:  -345.03663009265387
    Total Energy =                       -345.0366300926541498
  @DF-RHF Final Energy:  -345.03664929753455
    Total Energy =                       -345.0366492975346091
  @DF-RHF Final Energy:  -345.03665244034249
    Total Energy =                       -345.0366524403428912
  @DF-RHF Final Energy:  -345.03665552003122
    Total Energy =                       -345.0366555200313314
  @DF-RHF Final Energy:  -345.03665690953358
    Total Energy =                       -345.0366569095336331
  @DF-RHF Final Energy:  -345.03665687837412
    Total Energy =                       -345.0366568783746288
  Basis Set: CC-PVTZ
  Basis Set:
  @DF-RHF Final Energy:  -345.03665659165773
    Total Energy =                       -345.0366565916575610
  Basis Set: CC-PVTZ
  Basis Set:
  Basis Set: CC-PVTZ
  Basis Set:
  @DF-RHF Final Energy:  -345.03649375225353
    Total Energy =                       -345.0364937522534206
  Basis Set: CC-PVTZ
  Basis Set:
  Basis Set: CC-PVTZ
  Basis Set:
  @DF-RHF Final Energy:  -345.03665759533908
    Total Energy =                       -345.0366575953386814
  Basis Set: CC-PVTZ
  Basis Set:
  Charge       = 0
  Multiplicity = 1
  Basis Set: CC-PVTZ
  Basis Set:

    Orbital Energies (a.u.)
    -----------------------

    Doubly Occupied:

       1A    -20.583678     2A    -20.535300     3A    -11.367311
       4A    -11.290600     5A    -11.231293     6A    -11.220876
       7A    -11.217833     8A     -1.463944     9A     -1.365188
      10A     -1.078281    11A     -1.007948    12A     -0.952318
      13A     -0.848689    14A     -0.765049    15A     -0.696591
      16A     -0.667635    17A     -0.665699    18A     -0.621497
      19A     -0.587124    20A     -0.580361    21A     -0.564114
      22A     -0.551854    23A     -0.536668    24A     -0.526387
      25A     -0.505826    26A     -0.485189    27A     -0.450291
      28A     -0.437113

  @DF-RHF Final Energy:  -345.03665742089561

   => Energetics <=

    Nuclear Repulsion Energy =            323.5135993344155168
    One-Electron Energy =               -1111.4911928183355485
    Two-Electron Energy =                 442.9409360630244805
    DFT Exchange-Correlation Energy =       0.0000000000000000
    Empirical Dispersion Energy =           0.0000000000000000
    PCM Polarization Energy =               0.0000000000000000
    EFP Energy =                            0.0000000000000000
    Total Energy =                       -345.0366574208955512
    Molecular point group: c1
  Basis Set: CC-PVTZ
  Basis Set:

  -Total Gradient:
     Atom            X                  Y                   Z
    ------   -----------------  -----------------  -----------------
       1       -0.004579857565    -0.006324000622     0.004509393729
       2        0.010137443424     0.009760797701    -0.008690651201
       3       -0.000034914959     0.000055818751     0.000040698139
       4       -0.011571272990    -0.004018723259     0.007752857599
       5       -0.000017794227    -0.000093869633    -0.000127657958
       6       -0.000004144187     0.000059633338     0.000197830397
       7        0.000005228646    -0.000050412565    -0.000102201580
       8        0.006238823768     0.000516777394    -0.003657393660
       9        0.000020845301    -0.000160021272     0.000154831172
      10       -0.000051583515     0.000082179111     0.000061960849
      11       -0.000091109179     0.000108173284     0.000062843836
      12        0.000032033990     0.000008391944    -0.000020968076
      13       -0.000068012107     0.000131140538    -0.000135446538
      14       -0.000005128780     0.000009819598    -0.000013876876
      15       -0.000048458439    -0.000030341329    -0.000037361561
      16        0.000026302736    -0.000032824281     0.000015493725
      17        0.000011598084    -0.000022538696    -0.000010351996

  **** Optimization is complete! (in 31 steps) ****
    Final optimized geometry and variables:
    Molecular point group: c1

    Geometry (in Angstrom), charge = 0, multiplicity = 1:

    O            0.094958927791     0.634901352572     1.808416217413
    C            0.488107386616    -0.215290800038     1.088122085802
    C            1.688013681622    -1.075109956658     1.364817928157
    O           -0.143859578891    -0.588473821535    -0.021962715159
    H            1.413531588185    -2.118694470449     1.284503220519
    H            2.076174298206    -0.860230628822     2.347546394019
    H            2.446167389984    -0.879475233573     0.615682224734
    C           -0.742972578121     0.413096378050    -0.848654725303
    C           -1.744186029786    -0.302253535276    -1.732298096983
    C            0.334657706229     1.135980090536    -1.637348374835
    H           -1.257486184340     1.113205875149    -0.206369124184
    H           -2.487993082289    -0.807352767375    -1.130316710000
    H           -2.247799081028     0.408830367365    -2.376511351440
    H           -1.248920961111    -1.038408496941    -2.354355288983
    H           -0.114678954318     1.887940100761    -2.274956273286
    H            1.032292772764     1.636184595377    -0.976560706277
    H            0.883559756518     0.440035726782    -2.261122690464

  Mulliken Charges: (a.u.)
   Center  Symbol    Alpha    Beta     Spin     Total
       1     O     4.18985  4.18985  0.00000 -0.37969
       2     C     2.80607  2.80607  0.00000  0.38786
       3     C     3.13742  3.13742  0.00000 -0.27484
       4     O     4.17224  4.17224  0.00000 -0.34449
       5     H     0.44393  0.44393  0.00000  0.11215
       6     H     0.43824  0.43824  0.00000  0.12351
       7     H     0.44936  0.44936  0.00000  0.10129
       8     C     2.93291  2.93291  0.00000  0.13419
       9     C     3.13990  3.13990  0.00000 -0.27979
      10     C     3.15408  3.15408  0.00000 -0.30816
      11     H     0.43838  0.43838  0.00000  0.12323
      12     H     0.44427  0.44427  0.00000  0.11146
      13     H     0.45562  0.45562  0.00000  0.08875
      14     H     0.45291  0.45291  0.00000  0.09419
      15     H     0.44747  0.44747  0.00000  0.10506
      16     H     0.44583  0.44583  0.00000  0.10834
      17     H     0.45153  0.45153  0.00000  0.09694

   Total alpha = 28.00000, Total beta = 28.00000, Total charge =  0.00000

*** Psi4 exiting successfully. Buy a developer a beer!
