  ==> Input File <==

--------------------------------------------------------------------------
set {
	reference rhf
	basis cc-pvtz
}

set_num_threads( 4 )
memory 2 gb

molecule MOL {
0 1

H	 -2.243521	 -1.037587	 -1.214041
C	 -2.743588	 -0.077537	 -1.401451
C	 -2.653809	 0.914422	 -0.273689
O	 -3.304969	 0.106966	 -2.425227
C	 -1.216901	 1.136108	 0.207794
H	 -3.115428	 1.840217	 -0.591721
H	 -3.246044	 0.509150	 0.543818
C	 -0.247837	 0.040196	 -0.230469
H	 -0.872882	 2.093195	 -0.169002
H	 -1.209325	 1.218376	 1.291938
C	 1.181757	 0.280428	 0.247371
H	 -0.259600	 -0.030819	 -1.314870
H	 -0.591284	 -0.923375	 0.136958
C	 2.151032	 -0.811012	 -0.202643
H	 1.515939	 1.247397	 -0.115449
H	 1.191514	 0.341223	 1.333422
C	 3.580021	 -0.656538	 0.320835
H	 2.170545	 -0.847575	 -1.289412
H	 1.766632	 -1.772905	 0.124928
C	 4.327657	 0.562694	 -0.213579
H	 4.138806	 -1.549270	 0.057813
H	 3.561991	 -0.620783	 1.406976
H	 4.355973	 0.557257	 -1.298551
H	 3.867136	 1.491650	 0.100501
H	 5.351524	 0.571613	 0.142204

	symmetry c1
}
set optking {
	frozen_dihedral = ("
		6 3 5 8
	")
}

ee = optimize('scf')
oeprop('DIPOLE', 'QUADRUPOLE', 'MULLIKEN_CHARGES')
f=open( 'psi4out.xyz', 'w' )
f.write( "25  " )
f.write( str(ee) + "\n" )
f.write( MOL.save_string_xyz() )
f.close()
--------------------------------------------------------------------------

    Molecular point group: c1
  Charge       = 0
  Multiplicity = 1
  Basis Set: CC-PVTZ
  Basis Set:
  @DF-RHF Final Energy:  -387.25044961867201
    Total Energy =                       -387.2504496186714960
    Molecular point group: c1
  Basis Set: CC-PVTZ
  Basis Set:
  Basis Set: CC-PVTZ
  Basis Set:
  @DF-RHF Final Energy:  -387.25096190679972
    Total Energy =                       -387.2509619067996027
  Basis Set: CC-PVTZ
  Basis Set:
  Basis Set: CC-PVTZ
  Basis Set:
  @DF-RHF Final Energy:  -387.25294749892441
    Total Energy =                       -387.2529474989240725
  Basis Set: CC-PVTZ
  Basis Set:
  Basis Set: CC-PVTZ
  Basis Set:
  @DF-RHF Final Energy:  -387.25322590717604
    Total Energy =                       -387.2532259071755334
  Basis Set: CC-PVTZ
  Basis Set:
  @DF-RHF Final Energy:  -387.25315541977909
    Total Energy =                       -387.2531554197789774
  @DF-RHF Final Energy:  -387.25348746473060
    Total Energy =                       -387.2534874647304832
  Basis Set: CC-PVTZ
  Basis Set:
  @DF-RHF Final Energy:  -387.25353324567931
    Total Energy =                       -387.2535332456792503
  Basis Set: CC-PVTZ
  Basis Set:
  Basis Set: CC-PVTZ
  Basis Set:
  @DF-RHF Final Energy:  -387.25355468811318
    Total Energy =                       -387.2535546881133541
  Basis Set: CC-PVTZ
  Basis Set:
  Basis Set: CC-PVTZ
  Basis Set:
  @DF-RHF Final Energy:  -387.25355869037372
    Total Energy =                       -387.2535586903732110
  Basis Set: CC-PVTZ
  Basis Set:
  Charge       = 0
  Multiplicity = 1
  Basis Set: CC-PVTZ
  Basis Set:

    Orbital Energies (a.u.)
    -----------------------

    Doubly Occupied:

       1A    -20.549996     2A    -11.319292     3A    -11.233361
       4A    -11.232770     5A    -11.225096     6A    -11.218994
       7A    -11.217232     8A    -11.216427     9A    -11.209102
      10A     -1.404731    11A     -1.104476    12A     -1.068844
      13A     -1.013935    14A     -0.944015    15A     -0.878176
      16A     -0.832241    17A     -0.783770    18A     -0.771744
      19A     -0.682017    20A     -0.655725    21A     -0.631631
      22A     -0.622492    23A     -0.613300    24A     -0.587563
      25A     -0.574436    26A     -0.560246    27A     -0.535563
      28A     -0.525249    29A     -0.511488    30A     -0.499491
      31A     -0.491413    32A     -0.474324    33A     -0.466514
      34A     -0.460780    35A     -0.444648    36A     -0.409046

  @DF-RHF Final Energy:  -387.25355965642581

   => Energetics <=

    Nuclear Repulsion Energy =            441.0774402888336567
    One-Electron Energy =               -1398.7217455729571611
    Two-Electron Energy =                 570.3907456276976973
    DFT Exchange-Correlation Energy =       0.0000000000000000
    Empirical Dispersion Energy =           0.0000000000000000
    PCM Polarization Energy =               0.0000000000000000
    EFP Energy =                            0.0000000000000000
    Total Energy =                       -387.2535596564257503
    Molecular point group: c1
  Basis Set: CC-PVTZ
  Basis Set:

  -Total Gradient:
     Atom            X                  Y                   Z
    ------   -----------------  -----------------  -----------------
       1       -0.000003495934     0.000001528305     0.000007878523
       2        0.000016234787     0.000015259504    -0.000029364009
       3       -0.001356231658     0.001643569555     0.003830984112
       4        0.000003117030    -0.000010907246     0.000028342615
       5       -0.000560166582    -0.002474952151     0.002938090711
       6        0.001297151323    -0.000747143001    -0.004056794208
       7        0.000007267672    -0.000005627365    -0.000004264093
       8        0.000611436423     0.001567688631    -0.002698232389
       9       -0.000012046641     0.000009620888    -0.000005921035
      10        0.000001931084    -0.000004666336     0.000004896717
      11       -0.000001265012     0.000008215651    -0.000013190772
      12       -0.000001632595     0.000005831200     0.000006316795
      13        0.000008812812    -0.000010408713    -0.000007816333
      14       -0.000000755086    -0.000006401993    -0.000000007276
      15        0.000000003660     0.000001151905    -0.000003528155
      16       -0.000000965617     0.000000757336    -0.000003511458
      17       -0.000005234631     0.000003389271     0.000009872248
      18        0.000000003070     0.000004430319    -0.000000444437
      19       -0.000003403091    -0.000002489952    -0.000001876687
      20       -0.000000024798     0.000001581884    -0.000002185268
      21       -0.000006929343     0.000000143034    -0.000001498044
      22        0.000003207221    -0.000001038841     0.000003439822
      23        0.000001332989     0.000000314491    -0.000000544488
      24        0.000002287824     0.000000000766    -0.000001080983
      25       -0.000000634913     0.000000152857     0.000000438098

  **** Optimization is complete! (in 10 steps) ****
    Final optimized geometry and variables:
    Molecular point group: c1

    Geometry (in Angstrom), charge = 0, multiplicity = 1:

    H           -2.815483686141    -1.280621808026    -0.761335213006
    C           -3.007405732332    -0.220269986756    -0.956604037127
    C           -2.811592182736     0.714157359647     0.210312961873
    O           -3.361989540284     0.124669483124    -2.031465566923
    C           -1.335885846687     0.894143970430     0.647479158558
    H           -3.227280310644     1.663339240010    -0.097201832925
    H           -3.400139762265     0.320650273114     1.033512103653
    C           -0.358600080411    -0.203522512594     0.224320753083
    H           -0.979353614700     1.830378243733     0.232872356188
    H           -1.303322807894     1.009951541202     1.724496544500
    C            1.064535364537     0.072158456238     0.703185409921
    H           -0.355585735143    -0.293664958169    -0.858202757287
    H           -0.682110802209    -1.165991230017     0.613230631105
    C            2.056123668980    -1.007902861815     0.274886747051
    H            1.380700673548     1.038802163434     0.324494134061
    H            1.068353572625     0.151632111107     1.787867503999
    C            3.479472686418    -0.817106436967     0.801764710481
    H            2.081428871243    -1.061682629653    -0.810995880076
    H            1.689235326934    -1.971790621820     0.617039733303
    C            4.205346626872     0.407722517897     0.250462023775
    H            4.056577455209    -1.702945742123     0.555499175336
    H            3.455815446241    -0.764154476525     1.887099744266
    H            4.237657521240     0.385646545150    -0.834118030974
    H            3.726010832289     1.332489081942     0.548171039390
    H            5.227496165241     0.441835896423     0.609570206076

  Mulliken Charges: (a.u.)
   Center  Symbol    Alpha    Beta     Spin     Total
       1     H     0.46032  0.46032  0.00000  0.07935
       2     C     2.90839  2.90839  0.00000  0.18323
       3     C     3.08436  3.08436  0.00000 -0.16872
       4     O     4.16715  4.16715  0.00000 -0.33429
       5     C     3.10031  3.10031  0.00000 -0.20062
       6     H     0.44093  0.44093  0.00000  0.11813
       7     H     0.44889  0.44889  0.00000  0.10223
       8     C     3.10647  3.10647  0.00000 -0.21294
       9     H     0.44631  0.44631  0.00000  0.10738
      10     H     0.44746  0.44746  0.00000  0.10508
      11     C     3.09291  3.09291  0.00000 -0.18583
      12     H     0.44483  0.44483  0.00000  0.11034
      13     H     0.45053  0.45053  0.00000  0.09895
      14     C     3.09511  3.09511  0.00000 -0.19021
      15     H     0.45047  0.45047  0.00000  0.09907
      16     H     0.45345  0.45345  0.00000  0.09310
      17     C     3.09106  3.09106  0.00000 -0.18212
      18     H     0.45225  0.45225  0.00000  0.09551
      19     H     0.44972  0.44972  0.00000  0.10056
      20     C     3.15258  3.15258  0.00000 -0.30515
      21     H     0.44778  0.44778  0.00000  0.10443
      22     H     0.45477  0.45477  0.00000  0.09046
      23     H     0.45400  0.45400  0.00000  0.09199
      24     H     0.45401  0.45401  0.00000  0.09197
      25     H     0.44595  0.44595  0.00000  0.10810

   Total alpha = 36.00000, Total beta = 36.00000, Total charge = -0.00000
