  ==> Input File <==

--------------------------------------------------------------------------
set {
	reference rhf
	basis cc-pvtz
}

set_num_threads( 4 )
memory 2 gb

molecule MOL {
0 1

H	 1.130199	 1.561778	 1.611162
O	 1.347174	 0.740110	 1.208377
C	 0.706474	 0.636793	 -0.025501
C	 -0.793473	 0.591216	 0.050087
H	 1.068345	 -0.276227	 -0.483482
H	 1.000523	 1.451551	 -0.684593
C	 -1.534243	 -0.493009	 -0.013340
H	 -1.266611	 1.552628	 0.164437
H	 -1.101195	 -1.466332	 -0.144046
H	 -2.604242	 -0.437780	 0.050785

	symmetry c1
}
set optking {
	frozen_dihedral = ("
		5 3 4 7
	")
}

ee = optimize('scf')
oeprop('DIPOLE', 'QUADRUPOLE', 'MULLIKEN_CHARGES')
f=open( 'psi4out.xyz', 'w' )
f.write( "10  " )
f.write( str(ee) + "\n" )
f.write( MOL.save_string_xyz() )
f.close()
--------------------------------------------------------------------------

    Molecular point group: c1
  Charge       = 0
  Multiplicity = 1
  Basis Set: CC-PVTZ
  Basis Set:
  @DF-RHF Final Energy:  -191.99524465497112
    Total Energy =                       -191.9952446549710317
    Molecular point group: c1
  Basis Set: CC-PVTZ
  Basis Set:
  Basis Set: CC-PVTZ
  Basis Set:
  @DF-RHF Final Energy:  -191.99564042832026
    Total Energy =                       -191.9956404283203426
  Basis Set: CC-PVTZ
  Basis Set:
  Basis Set: CC-PVTZ
  Basis Set:
  @DF-RHF Final Energy:  -191.99569721873598
    Total Energy =                       -191.9956972187359270
  Basis Set: CC-PVTZ
  Basis Set:
  Basis Set: CC-PVTZ
  Basis Set:
  @DF-RHF Final Energy:  -191.99570267843981
    Total Energy =                       -191.9957026784398408
  Basis Set: CC-PVTZ
  Basis Set:
  Charge       = 0
  Multiplicity = 1
  Basis Set: CC-PVTZ
  Basis Set:

    Orbital Energies (a.u.)
    -----------------------

    Doubly Occupied:

       1A    -20.550683     2A    -11.275046     3A    -11.229600
       4A    -11.224137     5A     -1.368419     6A     -1.066155
       7A     -0.923868     8A     -0.782353     9A     -0.686800
      10A     -0.661450    11A     -0.617694    12A     -0.574814
      13A     -0.549304    14A     -0.485751    15A     -0.444966
      16A     -0.378419

  @DF-RHF Final Energy:  -191.99570361269991

   => Energetics <=

    Nuclear Repulsion Energy =            117.8333200165072867
    One-Electron Energy =                -494.0191281409648809
    Two-Electron Energy =                 184.1901045117576246
    DFT Exchange-Correlation Energy =       0.0000000000000000
    Empirical Dispersion Energy =           0.0000000000000000
    PCM Polarization Energy =               0.0000000000000000
    EFP Energy =                            0.0000000000000000
    Total Energy =                       -191.9957036126999697
    Molecular point group: c1
  Basis Set: CC-PVTZ
  Basis Set:

  -Total Gradient:
     Atom            X                  Y                   Z
    ------   -----------------  -----------------  -----------------
       1        0.000020769347     0.000027003289    -0.000024195964
       2        0.000001646615     0.000005909713     0.000063493536
       3        0.000155598061    -0.001332251846     0.003647237667
       4       -0.000212838232     0.000555558514    -0.003718687318
       5       -0.000140066248     0.000961882703    -0.002161324196
       6        0.000015396078     0.000001235592     0.000057052611
       7        0.000155563003    -0.000179182127     0.002192814384
       8        0.000013088382    -0.000025526595    -0.000035030629
       9       -0.000014489091     0.000004881814    -0.000016763013
      10        0.000005332089    -0.000019511056    -0.000004597076

  **** Optimization is complete! (in 5 steps) ****
    Final optimized geometry and variables:
    Molecular point group: c1

    Geometry (in Angstrom), charge = 0, multiplicity = 1:

    H            1.070567487716     1.141526879547     1.284833697325
    O            1.328204637166     0.339566037115     0.867210422876
    C            0.705822775548     0.224802896830    -0.384844648803
    C           -0.796341432606     0.209036340379    -0.300811221566
    H            1.061584794836    -0.694308931834    -0.827529085242
    H            1.024201933442     1.035065394498    -1.036308526344
    C           -1.528247032624    -0.881806255123    -0.346683873599
    H           -1.279672649674     1.161638728864    -0.153307731776
    H           -1.084217318552    -1.851355445369    -0.483672684009
    H           -2.597669947872    -0.847859513478    -0.255381925290

  Mulliken Charges: (a.u.)
   Center  Symbol    Alpha    Beta     Spin     Total
       1     H     0.39533  0.39533  0.00000  0.20933
       2     O     4.19653  4.19653  0.00000 -0.39305
       3     C     2.95488  2.95488  0.00000  0.09025
       4     C     3.07892  3.07892  0.00000 -0.15784
       5     H     0.45633  0.45633  0.00000  0.08734
       6     H     0.47265  0.47265  0.00000  0.05471
       7     C     3.16385  3.16385  0.00000 -0.32769
       8     H     0.42451  0.42451  0.00000  0.15098
       9     H     0.42904  0.42904  0.00000  0.14193
      10     H     0.42797  0.42797  0.00000  0.14405

   Total alpha = 16.00000, Total beta = 16.00000, Total charge = -0.00000
