                              Psi4 1.0.54 Driver

  ==> Input File <==

--------------------------------------------------------------------------
set {
	reference rhf
	basis cc-pvtz
}

set_num_threads( 4 )
memory 2 gb

molecule MOL {
0 1

O	 -2.081319	 -0.951530	 -0.502732
N	 -1.613558	 0.006676	 0.014756
C	 -0.329345	 -0.171618	 0.743966
O	 -2.068523	 1.100482	 -0.024385
C	 0.835904	 0.041968	 -0.213982
H	 -0.346048	 -1.174374	 1.137184
H	 -0.333613	 0.555559	 1.538590
C	 2.177039	 -0.130175	 0.494460
H	 0.754456	 -0.665923	 -1.030569
H	 0.765464	 1.037260	 -0.637266
C	 2.256918	 -1.434340	 1.280114
H	 2.340458	 0.707238	 1.166375
H	 2.978547	 -0.099628	 -0.237701
H	 1.487579	 -1.478742	 2.042901
H	 2.128128	 -2.291512	 0.628665
H	 3.217297	 -1.532150	 1.771303

	symmetry c1
}
set optking {
	frozen_dihedral = ("
		11 8 5 9
	")
}

ee,wfn = optimize('scf', return_wfn=True)
oeprop( wfn, 'DIPOLE', 'QUADRUPOLE', 'MULLIKEN_CHARGES')
f=open( 'psi4out.xyz', 'w' )
f.write( "16  " )
f.write( str(ee) + "\n" )
f.write( MOL.save_string_xyz() )
f.close()
--------------------------------------------------------------------------

    Molecular point group: c1
  Charge       = 0
  Multiplicity = 1
  Basis Set: CC-PVTZ
  Basis Set:
  @DF-RHF Final Energy:  -360.90568441431634
    Total Energy =                       -360.9056844143162834
    Molecular point group: c1
  Basis Set: CC-PVTZ
  Basis Set:
  Basis Set: CC-PVTZ
  Basis Set:
  @DF-RHF Final Energy:  -360.41310996276798
    Total Energy =                       -360.4131099627683170
  Basis Set: CC-PVTZ
  Basis Set:
  Basis Set: CC-PVTZ
  Basis Set:
  @DF-RHF Final Energy:  -360.60983680487487
    Total Energy =                       -360.6098368048747602
  Basis Set: CC-PVTZ
  Basis Set:
  Basis Set: CC-PVTZ
  Basis Set:
  @DF-RHF Final Energy:  -360.84438234402739
    Total Energy =                       -360.8443823440269398
  Basis Set: CC-PVTZ
  Basis Set:
  @DF-RHF Final Energy:  -360.90028341916485
    Total Energy =                       -360.9002834191649072
  @DF-RHF Final Energy:  -360.90689329209272
    Total Energy =                       -360.9068932920928319
  @DF-RHF Final Energy:  -360.90541173338494
    Total Energy =                       -360.9054117333851082
  @DF-RHF Final Energy:  -360.89987488902358
    Total Energy =                       -360.8998748890234083
  @DF-RHF Final Energy:  -360.90709950153547
    Total Energy =                       -360.9070995015352992
  @DF-RHF Final Energy:  -360.90719165945990
    Total Energy =                       -360.9071916594598974
  @DF-RHF Final Energy:  -360.90730848415848
    Total Energy =                       -360.9073084841584205
  Basis Set: CC-PVTZ
  Basis Set:
  @DF-RHF Final Energy:  -360.90732390800440
    Total Energy =                       -360.9073239080040594
  Basis Set: CC-PVTZ
  Basis Set:
  Basis Set: CC-PVTZ
  Basis Set:
  @DF-RHF Final Energy:  -360.90732617215417
    Total Energy =                       -360.9073261721537733
  Basis Set: CC-PVTZ
  Basis Set:
  Basis Set: CC-PVTZ
  Basis Set:
  @DF-RHF Final Energy:  -360.90732759001861
    Total Energy =                       -360.9073275900184399
  Basis Set: CC-PVTZ
  Basis Set:
  Charge       = 0
  Multiplicity = 1
  Basis Set: CC-PVTZ
  Basis Set:

    Orbital Energies (a.u.)
    -----------------------

    Doubly Occupied:

       1A    -20.589735     2A    -20.589291     3A    -15.836106
       4A    -11.295939     5A    -11.250797     6A    -11.241964
       7A    -11.228800     8A     -1.635089     9A     -1.419357
      10A     -1.136553    11A     -1.058000    12A     -0.952113
      13A     -0.854899    14A     -0.818016    15A     -0.761567
      16A     -0.737670    17A     -0.724594    18A     -0.669157
      19A     -0.626910    20A     -0.606008    21A     -0.574257
      22A     -0.551509    23A     -0.512241    24A     -0.499494
      25A     -0.495180    26A     -0.485535    27A     -0.471688
      28A     -0.451893

  @DF-RHF Final Energy:  -360.90732858009977

   => Energetics <=

    Nuclear Repulsion Energy =            316.6799032165744734
    One-Electron Energy =               -1119.0257378490960036
    Two-Electron Energy =                 441.4385060524217579
    DFT Exchange-Correlation Energy =       0.0000000000000000
    Empirical Dispersion Energy =           0.0000000000000000
    PCM Polarization Energy =               0.0000000000000000
    EFP Energy =                            0.0000000000000000
    Total Energy =                       -360.9073285800997155
    Molecular point group: c1
  Basis Set: CC-PVTZ
  Basis Set:

  -Total Gradient:
     Atom            X                  Y                   Z
    ------   -----------------  -----------------  -----------------
       1       -0.000019148056    -0.000037601410    -0.000033331408
       2       -0.000039659110     0.000131812795     0.000080960466
       3        0.000102796534    -0.000001522685     0.000002018605
       4        0.000003916650    -0.000071657617    -0.000037410865
       5        0.000435364561    -0.001185956918     0.003583518037
       6        0.000018196950    -0.000006876415     0.000012780332
       7       -0.000015948101    -0.000013090840    -0.000017325186
       8        0.000716957422    -0.001227911030    -0.002847232516
       9       -0.000566612654     0.001312921311    -0.002345318296
      10       -0.000002127365     0.000020960097    -0.000012976048
      11       -0.000593349876     0.001071391483     0.001596043452
      12       -0.000010801542     0.000022418689     0.000012177101
      13       -0.000019765123    -0.000010035763    -0.000022161381
      14       -0.000022096538    -0.000006247560     0.000035033186
      15        0.000010290519     0.000008888342    -0.000001688193
      16        0.000001985722    -0.000007492477    -0.000005087284

  **** Optimization is complete! (in 15 steps) ****
    Final optimized geometry and variables:
    Molecular point group: c1

    Geometry (in Angstrom), charge = 0, multiplicity = 1:

    O           -1.523033850498    -1.603992054144     0.230930673859
    N           -1.404743382671    -0.432592517476     0.369200464505
    C           -0.023039262304     0.096427338877     0.525514202089
    O           -2.292207244526     0.352946973667     0.365986512194
    C            0.574793953912     0.347783795477    -0.853751282562
    H            0.516509420359    -0.652579165117     1.078203006290
    H           -0.114683257008     1.007066611758     1.094122724026
    C            1.945176914788     1.027752155512    -0.804451573236
    H            0.639487735537    -0.587411287582    -1.397421006973
    H           -0.107359483845     0.981782496380    -1.408395085414
    C            2.981832872893     0.333631647318     0.075782413728
    H            1.820105741232     2.051255485179    -0.463446804608
    H            2.317494785135     1.090099300767    -1.820369136791
    H            2.710429536358     0.364949761694     1.124574197047
    H            3.106631707538    -0.707057317253    -0.204924787027
    H            3.945315187712     0.818569774471    -0.021251060226

  Mulliken Charges: (a.u.)
   Center  Symbol    Alpha    Beta     Spin     Total
       1     O     4.17453  4.17453  0.00000 -0.34906
       2     N     3.27527  3.27527  0.00000  0.44946
       3     C     3.04267  3.04267  0.00000 -0.08533
       4     O     4.17329  4.17329  0.00000 -0.34659
       5     C     3.10988  3.10988  0.00000 -0.21977
       6     H     0.43284  0.43284  0.00000  0.13433
       7     H     0.43351  0.43351  0.00000  0.13298
       8     C     3.09689  3.09689  0.00000 -0.19379
       9     H     0.43578  0.43578  0.00000  0.12844
      10     H     0.43336  0.43336  0.00000  0.13329
      11     C     3.15677  3.15677  0.00000 -0.31354
      12     H     0.44813  0.44813  0.00000  0.10374
      13     H     0.44251  0.44251  0.00000  0.11498
      14     H     0.45427  0.45427  0.00000  0.09147
      15     H     0.44909  0.44909  0.00000  0.10182
      16     H     0.44121  0.44121  0.00000  0.11757

   Total alpha = 28.00000, Total beta = 28.00000, Total charge = -0.00000

*** Psi4 exiting successfully. Buy a developer a beer!
