  ==> Input File <==

--------------------------------------------------------------------------
set {
	reference rhf
	basis 6-31G*
}

set_num_threads( 1 )
memory 2 gb

molecule MOL {
0 1

H	 -3.721755	 -0.036125	 -0.205147
C	 -3.238426	 0.367365	 -1.103596
C	 -2.269403	 1.494910	 -0.854096
O	 -3.493381	 -0.083991	 -2.172720
C	 -1.220012	 1.144545	 0.209990
H	 -1.806884	 1.763394	 -1.796806
H	 -2.853411	 2.349061	 -0.513487
C	 -0.252658	 0.041456	 -0.226725
H	 -0.658657	 2.043079	 0.448319
H	 -1.722737	 0.849078	 1.129623
C	 1.180775	 0.282413	 0.250794
H	 -0.266029	 -0.034465	 -1.312038
H	 -0.597733	 -0.921000	 0.146291
C	 2.148627	 -0.814315	 -0.201312
H	 1.516199	 1.249228	 -0.115937
H	 1.192670	 0.346017	 1.338083
C	 3.580890	 -0.659131	 0.322722
H	 2.166869	 -0.852443	 -1.289387
H	 1.762857	 -1.776509	 0.128956
C	 4.324889	 0.564933	 -0.213704
H	 4.142010	 -1.551473	 0.056605
H	 3.564836	 -0.624694	 1.410140
H	 4.342616	 0.565491	 -1.300421
H	 3.866655	 1.493402	 0.110242
H	 5.353900	 0.572371	 0.132816

	symmetry c1
}
set optking {
	frozen_dihedral = ("
		6 3 5 8,
		6 3 2 4,
		12 8 11 14,
		8 11 14 18,
		20 17 14 18
	")
}

ee = energy('scf')
oeprop('DIPOLE', 'QUADRUPOLE', 'MULLIKEN_CHARGES')
f=open( 'psi4out.xyz', 'w' )
f.write( "25  " )
f.write( str(ee) + "\n" )
f.write( MOL.save_string_xyz() )
f.close()
--------------------------------------------------------------------------

    Molecular point group: c1

    Geometry (in Angstrom), charge = 0, multiplicity = 1:

       Center              X                  Y                   Z               Mass
    ------------   -----------------  -----------------  -----------------  -----------------
           H         -3.812206539819    -0.295253861537     0.249024575185     1.007825032070
           C         -3.328877539819     0.108236138463    -0.649424424815    12.000000000000
           C         -2.359854539819     1.235781138463    -0.399924424815    12.000000000000
           O         -3.583832539819    -0.343119861537    -1.718548424815    15.994914619560
           C         -1.310463539819     0.885416138463     0.664161575185    12.000000000000
           H         -1.897335539819     1.504265138463    -1.342634424815     1.007825032070
           H         -2.943862539819     2.089932138463    -0.059315424815     1.007825032070
           C         -0.343109539819    -0.217672861537     0.227446575185    12.000000000000
           H         -0.749108539819     1.783950138463     0.902490575185     1.007825032070
           H         -1.813188539819     0.589949138463     1.583794575185     1.007825032070
           C          1.090323460181     0.023284138463     0.704965575185    12.000000000000
           H         -0.356480539819    -0.293593861537    -0.857866424815     1.007825032070
           H         -0.688184539819    -1.180128861537     0.600462575185     1.007825032070
           C          2.058175460181    -1.073443861537     0.252859575185    12.000000000000
           H          1.425747460181     0.990099138463     0.338234575185     1.007825032070
           H          1.102218460181     0.086888138463     1.792254575185     1.007825032070
           C          3.490438460181    -0.918259861537     0.776893575185    12.000000000000
           H          2.076417460181    -1.111571861537    -0.835215424815     1.007825032070
           H          1.672405460181    -2.035637861537     0.583127575185     1.007825032070
           C          4.234437460181     0.305804138463     0.240467575185    12.000000000000
           H          4.051558460181    -1.810601861537     0.510776575185     1.007825032070
           H          3.474384460181    -0.883822861537     1.864311575185     1.007825032070
           H          4.252164460181     0.306362138463    -0.846249424815     1.007825032070
           H          3.776203460181     1.234273138463     0.564413575185     1.007825032070
           H          5.263448460181     0.313242138463     0.586987575185     1.007825032070

  Charge       = 0
  Multiplicity = 1
  Basis Set: 6-31G*
  Basis Set:

    Orbital Energies (a.u.)
    -----------------------

    Doubly Occupied:

       1A    -20.562214     2A    -11.326144     3A    -11.235039
       4A    -11.233923     5A    -11.222452     6A    -11.219937
       7A    -11.217760     8A    -11.216503     9A    -11.210406
      10A     -1.402093    11A     -1.103907    12A     -1.069447
      13A     -1.012995    14A     -0.942279    15A     -0.874988
      16A     -0.821122    17A     -0.787096    18A     -0.782038
      19A     -0.664915    20A     -0.658784    21A     -0.635725
      22A     -0.624293    23A     -0.603636    24A     -0.591420
      25A     -0.578082    26A     -0.546617    27A     -0.537021
      28A     -0.523921    29A     -0.509698    30A     -0.497083
      31A     -0.490173    32A     -0.475973    33A     -0.463505
      34A     -0.459166    35A     -0.440646    36A     -0.409423

  @DF-RHF Final Energy:  -387.11829354179741

   => Energetics <=

    Nuclear Repulsion Energy =            439.5925059874255680
    One-Electron Energy =               -1395.5207916545034550
    Two-Electron Energy =                 568.8099921252785407
    DFT Exchange-Correlation Energy =       0.0000000000000000
    Empirical Dispersion Energy =           0.0000000000000000
    PCM Polarization Energy =               0.0000000000000000
    EFP Energy =                            0.0000000000000000
    Total Energy =                       -387.1182935417994031

  Mulliken Charges: (a.u.)
   Center  Symbol    Alpha    Beta     Spin     Total
       1     H     0.43251  0.43251  0.00000  0.13497
       2     C     2.83007  2.83007  0.00000  0.33985
       3     C     3.20996  3.20996  0.00000 -0.41992
       4     O     4.23774  4.23774  0.00000 -0.47548
       5     C     3.16719  3.16719  0.00000 -0.33438
       6     H     0.39968  0.39968  0.00000  0.20064
       7     H     0.40746  0.40746  0.00000  0.18508
       8     C     3.15816  3.15816  0.00000 -0.31632
       9     H     0.41142  0.41142  0.00000  0.17716
      10     H     0.41770  0.41770  0.00000  0.16461
      11     C     3.15592  3.15592  0.00000 -0.31183
      12     H     0.41390  0.41390  0.00000  0.17220
      13     H     0.41869  0.41869  0.00000  0.16263
      14     C     3.15349  3.15349  0.00000 -0.30697
      15     H     0.42049  0.42049  0.00000  0.15901
      16     H     0.42326  0.42326  0.00000  0.15348
      17     C     3.15271  3.15271  0.00000 -0.30542
      18     H     0.42224  0.42224  0.00000  0.15551
      19     H     0.42143  0.42143  0.00000  0.15714
      20     C     3.24133  3.24133  0.00000 -0.48266
      21     H     0.42008  0.42008  0.00000  0.15984
      22     H     0.42342  0.42342  0.00000  0.15316
      23     H     0.42160  0.42160  0.00000  0.15680
      24     H     0.42082  0.42082  0.00000  0.15836
      25     H     0.41873  0.41873  0.00000  0.16255

   Total alpha = 36.00000, Total beta = 36.00000, Total charge =  0.00000
