  ==> Input File <==

--------------------------------------------------------------------------
set {
	reference rhf
	basis cc-pvtz
}

set_num_threads( 4 )
memory 2 gb

molecule MOL {
0 1

H	 -1.514942	 -0.229484	 0.001247
N	 -0.625934	 -0.663929	 -0.000707
C	 -0.567170	 -2.106715	 -0.003937
C	 0.468494	 0.129045	 -0.002160
H	 -1.050809	 -2.516739	 0.874677
H	 0.467561	 -2.404074	 -0.002482
H	 -1.047171	 -2.513202	 -0.886210
C	 1.785715	 -0.615093	 0.000603
O	 0.413285	 1.323206	 0.000532
H	 1.866994	 -1.243310	 -0.878792
H	 2.591506	 0.100263	 0.006422
H	 1.860358	 -1.250360	 0.875522

	symmetry c1
}
set optking {
	frozen_dihedral = ("
		3 2 4 9
	")
}

ee = optimize('scf')
oeprop('DIPOLE', 'QUADRUPOLE', 'MULLIKEN_CHARGES')
f=open( 'psi4out.xyz', 'w' )
f.write( "12  " )
f.write( str(ee) + "\n" )
f.write( MOL.save_string_xyz() )
f.close()
--------------------------------------------------------------------------

    Molecular point group: c1
  Charge       = 0
  Multiplicity = 1
  Basis Set: CC-PVTZ
  Basis Set:
  @DF-RHF Final Energy:  -247.09213003096559
    Total Energy =                       -247.0921300309655066
    Molecular point group: c1
  Basis Set: CC-PVTZ
  Basis Set:
  Basis Set: CC-PVTZ
  Basis Set:
  @DF-RHF Final Energy:  -247.09380197024896
    Total Energy =                       -247.0938019702489896
  Basis Set: CC-PVTZ
  Basis Set:
  Basis Set: CC-PVTZ
  Basis Set:
  @DF-RHF Final Energy:  -247.09630595925384
    Total Energy =                       -247.0963059592537547
  Basis Set: CC-PVTZ
  Basis Set:
  Basis Set: CC-PVTZ
  Basis Set:
  @DF-RHF Final Energy:  -247.09655272106335
    Total Energy =                       -247.0965527210634036
  Basis Set: CC-PVTZ
  Basis Set:
  Basis Set: CC-PVTZ
  Basis Set:
  @DF-RHF Final Energy:  -247.09657340482789
    Total Energy =                       -247.0965734048280069
  Basis Set: CC-PVTZ
  Basis Set:
  Basis Set: CC-PVTZ
  Basis Set:
  @DF-RHF Final Energy:  -247.09656829033815
    Total Energy =                       -247.0965682903381548
  Basis Set: CC-PVTZ
  Basis Set:
  Charge       = 0
  Multiplicity = 1
  Basis Set: CC-PVTZ
  Basis Set:

    Orbital Energies (a.u.)
    -----------------------

    Doubly Occupied:

       1A    -20.503627     2A    -15.574163     3A    -11.337750
       4A    -11.268999     5A    -11.228429     6A     -1.386942
       7A     -1.230953     8A     -1.006271     9A     -0.959574
      10A     -0.784448    11A     -0.675931    12A     -0.670692
      13A     -0.640647    14A     -0.589846    15A     -0.580581
      16A     -0.559793    17A     -0.558042    18A     -0.516524
      19A     -0.415351    20A     -0.386241

  @DF-RHF Final Energy:  -247.09657991003036

   => Energetics <=

    Nuclear Repulsion Energy =            181.4897115878768545
    One-Electron Energy =                -695.4229751615263240
    Two-Electron Energy =                 266.8366836636188282
    DFT Exchange-Correlation Energy =       0.0000000000000000
    Empirical Dispersion Energy =           0.0000000000000000
    PCM Polarization Energy =               0.0000000000000000
    EFP Energy =                            0.0000000000000000
    Total Energy =                       -247.0965799100306413
    Molecular point group: c1
  Basis Set: CC-PVTZ
  Basis Set:

  -Total Gradient:
     Atom            X                  Y                   Z
    ------   -----------------  -----------------  -----------------
       1       -0.000007126895    -0.000011381287    -0.000003262679
       2        0.000059938093     0.000050128303    -0.000021274005
       3       -0.000019428961    -0.000058834409     0.000017348909
       4       -0.000051639940    -0.000023804263     0.000001863621
       5        0.000006677032     0.000008174495    -0.000002397709
       6        0.000000589070     0.000000032233    -0.000004412783
       7        0.000003941915     0.000012972516     0.000005229017
       8        0.000000507742    -0.000003386059     0.000003629652
       9        0.000011368474     0.000028591809     0.000008340534
      10       -0.000001273476     0.000000337055    -0.000005484831
      11       -0.000001086441    -0.000003836221    -0.000000730659
      12       -0.000002466614     0.000001005831     0.000001150932

  **** Optimization is complete! (in 7 steps) ****
    Final optimized geometry and variables:
    Molecular point group: c1

    Geometry (in Angstrom), charge = 0, multiplicity = 1:

    H           -1.740667632403     0.208519039726    -0.000671778936
    N           -0.882399496318    -0.290693218196    -0.000995312117
    C           -0.947147029587    -1.730206121278    -0.004344211120
    C            0.204170505454     0.515642652213     0.001244671369
    H           -1.469596501271    -2.097891446177     0.871208760491
    H            0.042551122684    -2.155563612044    -0.000173040437
    H           -1.461064172342    -2.094797451089    -0.886267274965
    C            1.570044639520    -0.133010028883     0.000296517930
    O            0.083193427911     1.706228172276     0.003954155291
    H            1.706975970586    -0.752658440929    -0.877494007617
    H            2.307138434703     0.652672076568     0.001438217579
    H            1.706932023900    -0.755039266352     0.876408125768

  Mulliken Charges: (a.u.)
   Center  Symbol    Alpha    Beta     Spin     Total
       1     H     0.40912  0.40912  0.00000  0.18175
       2     N     3.60671  3.60671  0.00000 -0.21341
       3     C     3.08117  3.08117  0.00000 -0.16234
       4     C     2.84720  2.84720  0.00000  0.30559
       5     H     0.45108  0.45108  0.00000  0.09783
       6     H     0.45086  0.45086  0.00000  0.09827
       7     H     0.45117  0.45117  0.00000  0.09766
       8     C     3.16095  3.16095  0.00000 -0.32190
       9     O     4.21358  4.21358  0.00000 -0.42716
      10     H     0.44954  0.44954  0.00000  0.10093
      11     H     0.42907  0.42907  0.00000  0.14185
      12     H     0.44954  0.44954  0.00000  0.10092

   Total alpha = 20.00000, Total beta = 20.00000, Total charge =  0.00000
