                              Psi4 1.0.54 Driver

  ==> Input File <==

--------------------------------------------------------------------------
set {
	reference rhf
	basis cc-pvtz
}

set_num_threads( 4 )
memory 2 gb

molecule MOL {
0 1

H	 -0.894078	 0.505671	 1.376675
C	 0.117776	 0.748919	 1.073126
N	 0.526300	 -0.128137	 0.000000
H	 0.761767	 0.603941	 1.931204
H	 0.137505	 1.807600	 0.805961
C	 -0.247113	 0.037112	 -1.209233
H	 1.495047	 0.002122	 -0.195501
H	 -0.996493	 -0.743733	 -1.271440
H	 0.397975	 -0.057351	 -2.073512
H	 -0.763794	 0.997171	 -1.271673

	symmetry c1
}
set optking {
	frozen_dihedral = ("
		2 3 6 8
	")
}

ee,wfn = optimize('scf', return_wfn=True)
oeprop( wfn, 'DIPOLE', 'QUADRUPOLE', 'MULLIKEN_CHARGES')
f=open( 'psi4out.xyz', 'w' )
f.write( "10  " )
f.write( str(ee) + "\n" )
f.write( MOL.save_string_xyz() )
f.close()
--------------------------------------------------------------------------

    Molecular point group: c1
  Charge       = 0
  Multiplicity = 1
  Basis Set: CC-PVTZ
  Basis Set:
  @DF-RHF Final Energy:  -134.28961520962838
    Total Energy =                       -134.2896152096284084
    Molecular point group: c1
  Basis Set: CC-PVTZ
  Basis Set:
  Basis Set: CC-PVTZ
  Basis Set:
  @DF-RHF Final Energy:  -134.28986257398694
    Total Energy =                       -134.2898625739869658
  Basis Set: CC-PVTZ
  Basis Set:
  Basis Set: CC-PVTZ
  Basis Set:
  @DF-RHF Final Energy:  -134.28990437050933
    Total Energy =                       -134.2899043705093618
  Basis Set: CC-PVTZ
  Basis Set:
  Charge       = 0
  Multiplicity = 1
  Basis Set: CC-PVTZ
  Basis Set:

    Orbital Energies (a.u.)
    -----------------------

    Doubly Occupied:

       1A    -15.531496     2A    -11.234367     3A    -11.234141
       4A     -1.198554     5A     -0.948518     6A     -0.854384
       7A     -0.660756     8A     -0.614099     9A     -0.590464
      10A     -0.543325    11A     -0.507840    12A     -0.505518
      13A     -0.363436

  @DF-RHF Final Energy:  -134.28990530697502

   => Energetics <=

    Nuclear Repulsion Energy =             84.5597404446420882
    One-Electron Energy =                -348.1254935819543448
    Two-Electron Energy =                 129.2758478303372272
    DFT Exchange-Correlation Energy =       0.0000000000000000
    Empirical Dispersion Energy =           0.0000000000000000
    PCM Polarization Energy =               0.0000000000000000
    EFP Energy =                            0.0000000000000000
    Total Energy =                       -134.2899053069750153
    Molecular point group: c1
  Basis Set: CC-PVTZ
  Basis Set:

  -Total Gradient:
     Atom            X                  Y                   Z
    ------   -----------------  -----------------  -----------------
       1        0.000024349226    -0.000017997873    -0.000031403175
       2        0.002033130121     0.002020830540    -0.001023903986
       3       -0.002121754707    -0.003429515547     0.000867233282
       4       -0.000000362179     0.000006725406     0.000027513274
       5       -0.000017866004     0.000001062072    -0.000006356427
       6       -0.002401794284     0.003699120898     0.002075288619
       7       -0.000045860929    -0.000021407606     0.000050019985
       8        0.002544145149    -0.002271926784    -0.001914809914
       9       -0.000004612923     0.000013725589    -0.000017017480
      10       -0.000009373469    -0.000000616696    -0.000026564180

  **** Optimization is complete! (in 4 steps) ****
    Final optimized geometry and variables:
    Molecular point group: c1

    Geometry (in Angstrom), charge = 0, multiplicity = 1:

    H           -1.019394948421     0.274263634747     1.443912157977
    C           -0.009839064637     0.514890975916     1.130262025137
    N            0.392687605286    -0.362861350775     0.054357812192
    H            0.639928401034     0.369025061173     1.984068256321
    H            0.009323661909     1.572400579270     0.860907244964
    C           -0.384363747424    -0.212709404036    -1.163235586907
    H            1.357207753175    -0.216383580811    -0.142819969382
    H           -1.136968112611    -0.989757648413    -1.240794663539
    H            0.259220770726    -0.322783066969    -2.028302219431
    H           -0.871751309843     0.756933519781    -1.239626738231

  Mulliken Charges: (a.u.)
   Center  Symbol    Alpha    Beta     Spin     Total
       1     H     0.45653  0.45653  0.00000  0.08694
       2     C     3.08327  3.08327  0.00000 -0.16654
       3     N     3.62921  3.62921  0.00000 -0.25842
       4     H     0.45297  0.45297  0.00000  0.09406
       5     H     0.47378  0.47378  0.00000  0.05245
       6     C     3.07624  3.07624  0.00000 -0.15248
       7     H     0.44110  0.44110  0.00000  0.11780
       8     H     0.45584  0.45584  0.00000  0.08831
       9     H     0.45863  0.45863  0.00000  0.08274
      10     H     0.47243  0.47243  0.00000  0.05515

   Total alpha = 13.00000, Total beta = 13.00000, Total charge =  0.00000

*** Psi4 exiting successfully. Buy a developer a beer!
