  ==> Input File <==

--------------------------------------------------------------------------
set {
	reference rhf
	basis cc-pvtz
}

set_num_threads( 4 )
memory 2 gb

molecule MOL {
0 1

H	 -3.144994	 -1.202467	 -0.018751
O	 -2.321472	 -0.864941	 -0.318626
C	 -2.021813	 0.336996	 0.342658
C	 -0.669613	 0.837286	 -0.127252
H	 -2.780861	 1.084746	 0.127159
H	 -2.006390	 0.184138	 1.420053
C	 0.490865	 -0.082543	 0.241244
H	 -0.708709	 0.967192	 -1.204587
H	 -0.507562	 1.822272	 0.303070
C	 0.807042	 -1.108750	 -0.842978
H	 0.259548	 -0.593993	 1.168588
H	 1.376782	 0.519374	 0.433523
C	 1.971739	 -2.023438	 -0.478819
H	 -0.076792	 -1.711320	 -1.033894
H	 1.031248	 -0.594441	 -1.774057
H	 1.762846	 -2.578351	 0.429669
H	 2.169930	 -2.741115	 -1.266832
H	 2.880468	 -1.453640	 -0.314539

	symmetry c1
}
set optking {
	frozen_dihedral = ("
		10 7 4 8
	")
}

ee = optimize('scf')
oeprop('DIPOLE', 'QUADRUPOLE', 'MULLIKEN_CHARGES')
f=open( 'psi4out.xyz', 'w' )
f.write( "18  " )
f.write( str(ee) + "\n" )
f.write( MOL.save_string_xyz() )
f.close()
--------------------------------------------------------------------------

    Molecular point group: c1
  Charge       = 0
  Multiplicity = 1
  Basis Set: CC-PVTZ
  Basis Set:
  @DF-RHF Final Energy:  -271.28301499806048
    Total Energy =                       -271.2830149980604801
    Molecular point group: c1
  Basis Set: CC-PVTZ
  Basis Set:
  Basis Set: CC-PVTZ
  Basis Set:
  @DF-RHF Final Energy:  -271.28342354186134
    Total Energy =                       -271.2834235418611115
  Basis Set: CC-PVTZ
  Basis Set:
  Basis Set: CC-PVTZ
  Basis Set:
  @DF-RHF Final Energy:  -271.28347804179350
    Total Energy =                       -271.2834780417933871
  Basis Set: CC-PVTZ
  Basis Set:
  Basis Set: CC-PVTZ
  Basis Set:
  @DF-RHF Final Energy:  -271.28348197735636
    Total Energy =                       -271.2834819773564163
  Basis Set: CC-PVTZ
  Basis Set:
  Charge       = 0
  Multiplicity = 1
  Basis Set: CC-PVTZ
  Basis Set:

    Orbital Energies (a.u.)
    -----------------------

    Doubly Occupied:

       1A    -20.547768     2A    -11.266713     3A    -11.211401
       4A    -11.206773     5A    -11.200682     6A    -11.198542
       7A     -1.365618     8A     -1.072648     9A     -1.007598
      10A     -0.913062    11A     -0.821292    12A     -0.778742
      13A     -0.707763    14A     -0.648465    15A     -0.617718
      16A     -0.579076    17A     -0.571558    18A     -0.557846
      19A     -0.526038    20A     -0.506428    21A     -0.486336
      22A     -0.463355    23A     -0.451331    24A     -0.447820
      25A     -0.431172

  @DF-RHF Final Energy:  -271.28348228673894

   => Energetics <=

    Nuclear Repulsion Energy =            254.0339538785897275
    One-Electron Energy =                -871.4633809789673933
    Two-Electron Energy =                 346.1459448136390620
    DFT Exchange-Correlation Energy =       0.0000000000000000
    Empirical Dispersion Energy =           0.0000000000000000
    PCM Polarization Energy =               0.0000000000000000
    EFP Energy =                            0.0000000000000000
    Total Energy =                       -271.2834822867386038
    Molecular point group: c1
  Basis Set: CC-PVTZ
  Basis Set:

  -Total Gradient:
     Atom            X                  Y                   Z
    ------   -----------------  -----------------  -----------------
       1       -0.000003205038     0.000006821374    -0.000001398692
       2       -0.000001224468     0.000010033532    -0.000009706686
       3        0.000013397141    -0.000008589658     0.000019062241
       4        0.001218797547     0.001562362965    -0.000044857114
       5       -0.000004961892    -0.000017856399    -0.000010092154
       6        0.000007948104     0.000006039049     0.000003191179
       7       -0.001058587925    -0.001135871492     0.000546570224
       8       -0.000788408364    -0.001042705268    -0.000105815243
       9       -0.000002507998     0.000000224008     0.000006959024
      10        0.000606682396     0.000639320933    -0.000382069550
      11        0.000001201516    -0.000000054543    -0.000014516608
      12        0.000010556136     0.000002038043    -0.000002854342
      13        0.000016741222    -0.000001736462    -0.000003472774
      14       -0.000019716121    -0.000011262674    -0.000006357265
      15       -0.000000062690    -0.000001981186     0.000010712194
      16       -0.000006725838     0.000004892476    -0.000007724076
      17        0.000010405054    -0.000009397040     0.000002034276
      18       -0.000000328783    -0.000002277657     0.000000335366

  **** Optimization is complete! (in 5 steps) ****
    Final optimized geometry and variables:
    Molecular point group: c1

    Geometry (in Angstrom), charge = 0, multiplicity = 1:

    H           -2.845752477924    -0.667915929078     0.220460691784
    O           -2.015025711169    -0.355435773310    -0.086691926485
    C           -1.695277713124     0.859239811847     0.540933175190
    C           -0.337481460260     1.342819085725     0.065627382367
    H           -2.445905794349     1.610971367641     0.309122476463
    H           -1.679304909187     0.732620250426     1.621572465204
    C            0.834614183141     0.412271680779     0.411883679413
    H           -0.386454239128     1.493134154981    -1.008301878803
    H           -0.175922255602     2.318072830265     0.514105191082
    C            1.174789409547    -0.610355715420    -0.671219381239
    H            0.623344920996    -0.104208836107     1.344588086926
    H            1.718031979232     1.016959692303     0.597183670163
    C            2.336412720429    -1.517946645292    -0.280666953328
    H            0.299794209410    -1.208521308661    -0.890903745734
    H            1.425850780837    -0.080854609810    -1.586633817677
    H            2.102605655720    -2.090590622901     0.610996443652
    H            2.567602255013    -2.221738585844    -1.072284760972
    H            3.234855080967    -0.943959470265    -0.076534579442

  Mulliken Charges: (a.u.)
   Center  Symbol    Alpha    Beta     Spin     Total
       1     H     0.39720  0.39720  0.00000  0.20559
       2     O     4.19570  4.19570  0.00000 -0.39139
       3     C     2.97150  2.97150  0.00000  0.05700
       4     C     3.10103  3.10103  0.00000 -0.20205
       5     H     0.46580  0.46580  0.00000  0.06841
       6     H     0.47471  0.47471  0.00000  0.05058
       7     C     3.08884  3.08884  0.00000 -0.17767
       8     H     0.45244  0.45244  0.00000  0.09512
       9     H     0.44663  0.44663  0.00000  0.10673
      10     C     3.08028  3.08028  0.00000 -0.16057
      11     H     0.45760  0.45760  0.00000  0.08479
      12     H     0.45057  0.45057  0.00000  0.09885
      13     C     3.15119  3.15119  0.00000 -0.30237
      14     H     0.44451  0.44451  0.00000  0.11098
      15     H     0.45910  0.45910  0.00000  0.08180
      16     H     0.45591  0.45591  0.00000  0.08818
      17     H     0.44939  0.44939  0.00000  0.10121
      18     H     0.45760  0.45760  0.00000  0.08480

   Total alpha = 25.00000, Total beta = 25.00000, Total charge =  0.00000
