                              Psi4 1.0.54 Driver

  ==> Input File <==

--------------------------------------------------------------------------
set {
	reference rhf
	basis cc-pvtz
}

set_num_threads( 4 )
memory 2 gb

molecule MOL {
0 1

O	 -3.629453	 -0.346894	 0.497793
C	 -2.664672	 0.129869	 0.003507
C	 -2.652196	 1.470132	 -0.680470
O	 -1.481217	 -0.452708	 0.001092
H	 -2.979368	 2.220413	 0.026719
H	 -1.673777	 1.720942	 -1.057870
H	 -3.367230	 1.448720	 -1.491852
C	 -0.332055	 0.384012	 -0.000250
C	 0.892252	 -0.506059	 -0.000295
H	 -0.360822	 1.020205	 -0.874146
H	 -0.359817	 1.021310	 0.872861
C	 2.188199	 0.299473	 -0.001416
H	 0.857046	 -1.152781	 -0.871031
H	 0.857910	 -1.151798	 0.871202
C	 3.437151	 -0.577593	 -0.000991
H	 2.209565	 0.950707	 -0.871712
H	 2.210062	 0.952234	 0.867721
C	 4.732399	 0.226982	 -0.000914
H	 3.417321	 -1.229122	 -0.869998
H	 3.416993	 -1.228707	 0.868337
H	 4.797903	 0.863451	 -0.876963
H	 5.598517	 -0.424436	 -0.000420
H	 4.797415	 0.864118	 0.874691

	symmetry c1
}
set optking {
	frozen_dihedral = ("
		1 2 4 8
	")
}

ee,wfn = optimize('scf', return_wfn=True)
oeprop( wfn, 'DIPOLE', 'QUADRUPOLE', 'MULLIKEN_CHARGES')
f=open( 'psi4out.xyz', 'w' )
f.write( "23  " )
f.write( str(ee) + "\n" )
f.write( MOL.save_string_xyz() )
f.close()
--------------------------------------------------------------------------

    Molecular point group: c1
  Charge       = 0
  Multiplicity = 1
  Basis Set: CC-PVTZ
  Basis Set:
  @DF-RHF Final Energy:  -423.10402197007528
    Total Energy =                       -423.1040219700755642
    Molecular point group: c1
  Basis Set: CC-PVTZ
  Basis Set:
  Basis Set: CC-PVTZ
  Basis Set:
  @DF-RHF Final Energy:  -423.05815563187946
    Total Energy =                       -423.0581556318795720
  Basis Set: CC-PVTZ
  Basis Set:
  Basis Set: CC-PVTZ
  Basis Set:
  @DF-RHF Final Energy:  -423.10830141676252
    Total Energy =                       -423.1083014167624015
  Basis Set: CC-PVTZ
  Basis Set:
  Basis Set: CC-PVTZ
  Basis Set:
  @DF-RHF Final Energy:  -423.11658167376027
    Total Energy =                       -423.1165816737606065
  Basis Set: CC-PVTZ
  Basis Set:
  @DF-RHF Final Energy:  -423.11697174185343
    Total Energy =                       -423.1169717418530354
  @DF-RHF Final Energy:  -423.11849790802091
    Total Energy =                       -423.1184979080207995
  @DF-RHF Final Energy:  -423.11861679917985
    Total Energy =                       -423.1186167991794491
  @DF-RHF Final Energy:  -423.11875771182378
    Total Energy =                       -423.1187577118239460
  @DF-RHF Final Energy:  -423.11876946319580
    Total Energy =                       -423.1187694631955765
  @DF-RHF Final Energy:  -423.11893101466859
    Total Energy =                       -423.1189310146688740
  @DF-RHF Final Energy:  -423.11952603683079
    Total Energy =                       -423.1195260368308482
  @DF-RHF Final Energy:  -423.12003825999267
    Total Energy =                       -423.1200382599930663
  @DF-RHF Final Energy:  -423.12028915743764
    Total Energy =                       -423.1202891574375826
  @DF-RHF Final Energy:  -423.12042737785447
    Total Energy =                       -423.1204273778541847
  Basis Set: CC-PVTZ
  Basis Set:
  @DF-RHF Final Energy:  -423.12049302012321
    Total Energy =                       -423.1204930201238312
  Basis Set: CC-PVTZ
  Basis Set:
  Basis Set: CC-PVTZ
  Basis Set:
  @DF-RHF Final Energy:  -423.12058505217919
    Total Energy =                       -423.1205850521791945
  Basis Set: CC-PVTZ
  Basis Set:
  Basis Set: CC-PVTZ
  Basis Set:
  @DF-RHF Final Energy:  -423.12059071060696
    Total Energy =                       -423.1205907106071891
  Basis Set: CC-PVTZ
  Basis Set:
  Charge       = 0
  Multiplicity = 1
  Basis Set: CC-PVTZ
  Basis Set:

    Orbital Energies (a.u.)
    -----------------------

    Doubly Occupied:

       1A    -20.588567     2A    -20.530366     3A    -11.367797
       4A    -11.293854     5A    -11.239097     6A    -11.227090
       7A    -11.226470     8A    -11.222877     9A    -11.214121
      10A     -1.463472    11A     -1.367507    12A     -1.098584
      13A     -1.037238    14A     -1.015194    15A     -0.943256
      16A     -0.848271    17A     -0.807702    18A     -0.779400
      19A     -0.701258    20A     -0.695986    21A     -0.662794
      22A     -0.651580    23A     -0.614272    24A     -0.595965
      25A     -0.582513    26A     -0.575077    27A     -0.569616
      28A     -0.543932    29A     -0.528347    30A     -0.504812
      31A     -0.498358    32A     -0.482577    33A     -0.475761
      34A     -0.474632    35A     -0.449796    36A     -0.433658

  @DF-RHF Final Energy:  -423.12059116045572

   => Energetics <=

    Nuclear Repulsion Energy =            450.4133137609374558
    One-Electron Energy =               -1468.4442123190951861
    Two-Electron Energy =                 594.9103073977014446
    DFT Exchange-Correlation Energy =       0.0000000000000000
    Empirical Dispersion Energy =           0.0000000000000000
    PCM Polarization Energy =               0.0000000000000000
    EFP Energy =                            0.0000000000000000
    Total Energy =                       -423.1205911604563425
    Molecular point group: c1
  Basis Set: CC-PVTZ
  Basis Set:

  -Total Gradient:
     Atom            X                  Y                   Z
    ------   -----------------  -----------------  -----------------
       1        0.000530206960     0.001657636429     0.002630107008
       2       -0.000874888829    -0.002261301266    -0.002258689566
       3       -0.000015521406    -0.000023134860     0.000016371573
       4        0.000371371037     0.000445085231    -0.003042952842
       5        0.000021753458     0.000007364032     0.000005994589
       6        0.000007927168     0.000010710388    -0.000020605852
       7        0.000028369966    -0.000023549663     0.000005558111
       8       -0.000101646041     0.000176894021     0.002656501292
       9        0.000016600452     0.000000835312     0.000004666700
      10        0.000011247040     0.000015828500    -0.000003680703
      11       -0.000006196218    -0.000008810445    -0.000001746723
      12        0.000005552729    -0.000001124357    -0.000004272925
      13       -0.000006747690     0.000002031675    -0.000000051680
      14        0.000003803701     0.000000119126    -0.000000608425
      15        0.000002069229    -0.000001491319     0.000010718431
      16       -0.000004129123     0.000000599633    -0.000000533711
      17        0.000004418004     0.000001536491     0.000001439376
      18        0.000000877573     0.000003263376     0.000000268852
      19       -0.000003434891     0.000000888761    -0.000001344531
      20        0.000004096909    -0.000002621267     0.000001814548
      21       -0.000000732148     0.000000837753    -0.000001353886
      22        0.000003436627    -0.000003019647     0.000000478013
      23        0.000001565486     0.000001422096     0.000001922352

  **** Optimization is complete! (in 18 steps) ****
    Final optimized geometry and variables:
    Molecular point group: c1

    Geometry (in Angstrom), charge = 0, multiplicity = 1:

    O           -3.606983777194    -0.521517098638     0.381047675861
    C           -2.714405791780     0.038180193161    -0.146491350779
    C           -2.898916238587     1.311906007894    -0.933885917716
    O           -1.483704559183    -0.468318173866    -0.079917545308
    H           -2.397499232726     2.140285269324    -0.449311035850
    H           -2.484706838116     1.207484259387    -1.928766233971
    H           -3.953358732988     1.523014065944    -0.995670491270
    C           -0.332047844424     0.350576678224    -0.105710933733
    C            0.873709720917    -0.538158833175     0.118285617896
    H           -0.251513988438     0.861264934661    -1.058281133434
    H           -0.400501951601     1.098677149917     0.676590191093
    C            2.182040035041     0.246684315525     0.112818635317
    H            0.890347195368    -1.298503780816    -0.655261290032
    H            0.750596183678    -1.055610077711     1.063100444969
    C            3.406734883547    -0.635358338429     0.339651482112
    H            2.289969659561     0.768997493956    -0.835031028624
    H            2.149010357027     1.014543000937     0.882262956381
    C            4.715457832365     0.146960894357     0.334985502626
    H            3.441968038824    -1.402620742612    -0.428407643983
    H            3.301156498447    -1.156892444097     1.286493489415
    H            4.866311839324     0.652819474184    -0.612890460733
    H            5.563303533156    -0.507882700127     0.498247060769
    H            4.724490069873     0.900128468589     1.115814754262

  Mulliken Charges: (a.u.)
   Center  Symbol    Alpha    Beta     Spin     Total
       1     O     4.17780  4.17780  0.00000 -0.35561
       2     C     2.82052  2.82052  0.00000  0.35896
       3     C     3.16696  3.16696  0.00000 -0.33392
       4     O     4.13278  4.13278  0.00000 -0.26556
       5     H     0.44743  0.44743  0.00000  0.10513
       6     H     0.44406  0.44406  0.00000  0.11189
       7     H     0.42692  0.42692  0.00000  0.14617
       8     C     2.98473  2.98473  0.00000  0.03055
       9     C     3.08226  3.08226  0.00000 -0.16453
      10     H     0.46143  0.46143  0.00000  0.07713
      11     H     0.45933  0.45933  0.00000  0.08134
      12     C     3.09928  3.09928  0.00000 -0.19856
      13     H     0.44728  0.44728  0.00000  0.10544
      14     H     0.44466  0.44466  0.00000  0.11068
      15     C     3.08591  3.08591  0.00000 -0.17181
      16     H     0.45468  0.45468  0.00000  0.09063
      17     H     0.45384  0.45384  0.00000  0.09232
      18     C     3.14942  3.14942  0.00000 -0.29885
      19     H     0.45240  0.45240  0.00000  0.09520
      20     H     0.45175  0.45175  0.00000  0.09649
      21     H     0.45507  0.45507  0.00000  0.08985
      22     H     0.44675  0.44675  0.00000  0.10650
      23     H     0.45473  0.45473  0.00000  0.09054

   Total alpha = 36.00000, Total beta = 36.00000, Total charge = -0.00000

*** Psi4 exiting successfully. Buy a developer a beer!
