  ==> Input File <==

--------------------------------------------------------------------------
set {
	reference rhf
	basis cc-pvtz
}

set_num_threads( 4 )
memory 2 gb

molecule MOL {
0 1

H	 2.910917	 0.369334	 1.346912
O	 2.212608	 0.910799	 1.028739
C	 1.135873	 0.113391	 0.608264
C	 0.027642	 1.012027	 0.090274
H	 0.755359	 -0.476514	 1.438317
H	 1.456979	 -0.581266	 -0.162971
C	 -1.138737	 0.285728	 -0.581921
H	 0.464661	 1.708096	 -0.618252
H	 -0.340737	 1.603071	 0.925246
C	 -1.933983	 -0.631436	 0.343653
H	 -0.763151	 -0.285569	 -1.422081
H	 -1.808359	 1.035291	 -0.992333
H	 -2.789188	 -1.049673	 -0.174718
H	 -1.335629	 -1.461368	 0.700418
H	 -2.305435	 -0.092167	 1.209725

	symmetry c1
}
set optking {
	frozen_dihedral = ("
		2 3 4 8
	")
}

ee = optimize('scf')
oeprop('DIPOLE', 'QUADRUPOLE', 'MULLIKEN_CHARGES')
f=open( 'psi4out.xyz', 'w' )
f.write( "15  " )
f.write( str(ee) + "\n" )
f.write( MOL.save_string_xyz() )
f.close()
--------------------------------------------------------------------------

    Molecular point group: c1
  Charge       = 0
  Multiplicity = 1
  Basis Set: CC-PVTZ
  Basis Set:
  @DF-RHF Final Energy:  -232.23701586937136
    Total Energy =                       -232.2370158693712483
    Molecular point group: c1
  Basis Set: CC-PVTZ
  Basis Set:
  Basis Set: CC-PVTZ
  Basis Set:
  @DF-RHF Final Energy:  -232.23723792605088
    Total Energy =                       -232.2372379260508524
  Basis Set: CC-PVTZ
  Basis Set:
  Basis Set: CC-PVTZ
  Basis Set:
  @DF-RHF Final Energy:  -232.23726808598454
    Total Energy =                       -232.2372680859845104
  Basis Set: CC-PVTZ
  Basis Set:
  Basis Set: CC-PVTZ
  Basis Set:
  @DF-RHF Final Energy:  -232.23726972954168
    Total Energy =                       -232.2372697295415946
  Basis Set: CC-PVTZ
  Basis Set:
  Charge       = 0
  Multiplicity = 1
  Basis Set: CC-PVTZ
  Basis Set:

    Orbital Energies (a.u.)
    -----------------------

    Doubly Occupied:

       1A    -20.545521     2A    -11.264911     3A    -11.216472
       4A    -11.209557     5A    -11.209000     6A     -1.363326
       7A     -1.070928     8A     -0.972010     9A     -0.870452
      10A     -0.784781    11A     -0.699314    12A     -0.652489
      13A     -0.617384    14A     -0.586135    15A     -0.558672
      16A     -0.538308    17A     -0.509045    18A     -0.474618
      19A     -0.473778    20A     -0.456823    21A     -0.436568

  @DF-RHF Final Energy:  -232.23727012367590

   => Energetics <=

    Nuclear Repulsion Energy =            188.3989635867444008
    One-Electron Energy =                -688.2522819255586910
    Two-Electron Energy =                 267.6160482151384485
    DFT Exchange-Correlation Energy =       0.0000000000000000
    Empirical Dispersion Energy =           0.0000000000000000
    PCM Polarization Energy =               0.0000000000000000
    EFP Energy =                            0.0000000000000000
    Total Energy =                       -232.2372701236758417
    Molecular point group: c1
  Basis Set: CC-PVTZ
  Basis Set:

  -Total Gradient:
     Atom            X                  Y                   Z
    ------   -----------------  -----------------  -----------------
       1       -0.000061429659    -0.000024147246    -0.000024307926
       2        0.000271647167     0.000021094214    -0.000623201601
       3       -0.000248037969     0.000098464035     0.000935991192
       4       -0.000207543797    -0.000729365795    -0.000931381182
       5       -0.000014346370     0.000027782160    -0.000035667829
       6        0.000008116480     0.000013456691     0.000015050608
       7        0.000096280101    -0.000027933198    -0.000023104020
       8        0.000176460143     0.000537219839     0.000603677362
       9       -0.000031248853    -0.000007095322     0.000036659054
      10        0.000013056893     0.000038389068     0.000033800618
      11        0.000015156143     0.000022486158     0.000009390512
      12       -0.000016127955     0.000003086767    -0.000002060619
      13        0.000012082520     0.000019925545    -0.000009772094
      14       -0.000007414348     0.000010745640    -0.000014512583
      15       -0.000006650498    -0.000004108557     0.000029438504

  **** Optimization is complete! (in 5 steps) ****
    Final optimized geometry and variables:
    Molecular point group: c1

    Geometry (in Angstrom), charge = 0, multiplicity = 1:

    H            2.771532282902     0.045522450651     1.053151991653
    O            2.087897899399     0.579007468868     0.692479249668
    C            1.018883772995    -0.227219712571     0.271342549692
    C           -0.088169067184     0.680964986512    -0.230709626628
    H            0.666831080444    -0.845291346161     1.091936420868
    H            1.339067808773    -0.892723179740    -0.528422685778
    C           -1.248654224277    -0.050860458194    -0.903381733337
    H            0.355374736716     1.381023005902    -0.930294202367
    H           -0.456390099733     1.272487694431     0.602374073687
    C           -2.053028667933    -0.959911802856     0.023705327353
    H           -0.872516052634    -0.632022919938    -1.741166283904
    H           -1.916173732419     0.691397103599    -1.328384208403
    H           -2.903971452223    -1.383586114763    -0.497051214630
    H           -1.459442350845    -1.785271682089     0.399231046543
    H           -2.430055024662    -0.408378810485     0.878823859585

  Mulliken Charges: (a.u.)
   Center  Symbol    Alpha    Beta     Spin     Total
       1     H     0.39689  0.39689  0.00000  0.20622
       2     O     4.19608  4.19608  0.00000 -0.39217
       3     C     2.96260  2.96260  0.00000  0.07481
       4     C     3.09053  3.09053  0.00000 -0.18106
       5     H     0.47250  0.47250  0.00000  0.05501
       6     H     0.47524  0.47524  0.00000  0.04951
       7     C     3.09815  3.09815  0.00000 -0.19630
       8     H     0.44563  0.44563  0.00000  0.10875
       9     H     0.45246  0.45246  0.00000  0.09508
      10     C     3.15191  3.15191  0.00000 -0.30382
      11     H     0.45464  0.45464  0.00000  0.09071
      12     H     0.44745  0.44745  0.00000  0.10510
      13     H     0.44634  0.44634  0.00000  0.10732
      14     H     0.45604  0.45604  0.00000  0.08792
      15     H     0.45354  0.45354  0.00000  0.09292

   Total alpha = 21.00000, Total beta = 21.00000, Total charge = -0.00000
