  ==> Input File <==

--------------------------------------------------------------------------
set {
	reference rhf
	basis 6-31G*
}

set_num_threads( 1 )
memory 2 gb

molecule MOL {
0 1

O	 0.749854	 1.307668	 -0.000040
C	 0.576249	 0.131685	 -0.000108
C	 -0.766779	 -0.556801	 -0.000461
O	 1.568443	 -0.749345	 -0.000005
C	 -1.945214	 0.412366	 0.000161
H	 -0.796911	 -1.211249	 -0.867467
H	 -0.796854	 -1.212390	 0.865687
C	 -2.336032	 0.839305	 1.414216
H	 -2.791719	 -0.053000	 -0.493262
H	 -1.691728	 1.284473	 -0.592924
H	 -2.624998	 -0.015097	 2.019979
H	 -3.175073	 1.527023	 1.392833
H	 -1.513230	 1.338181	 1.918788
C	 2.886820	 -0.232538	 0.000322
H	 3.059106	 0.369571	 -0.880203
H	 3.540187	 -1.091012	 0.000050
H	 3.059019	 0.368956	 0.881266

	symmetry c1
}
set optking {
	frozen_dihedral = ("
		1 2 3 6,
		14 4 2 1
	")
}

ee = energy('scf')
oeprop('DIPOLE', 'QUADRUPOLE', 'MULLIKEN_CHARGES')
f=open( 'psi4out.xyz', 'w' )
f.write( "17  " )
f.write( str(ee) + "\n" )
f.write( MOL.save_string_xyz() )
f.close()
--------------------------------------------------------------------------

    Molecular point group: c1

    Geometry (in Angstrom), charge = 0, multiplicity = 1:

       Center              X                  Y                   Z               Mass
    ------------   -----------------  -----------------  -----------------  -----------------
           O          0.609750599927     1.137446281073    -0.208203047663    15.994914619560
           C          0.436145599927    -0.038536718927    -0.208271047663    12.000000000000
           C         -0.906882400073    -0.727022718927    -0.208624047663    12.000000000000
           O          1.428339599927    -0.919566718927    -0.208168047663    15.994914619560
           C         -2.085317400073     0.242144281073    -0.208002047663    12.000000000000
           H         -0.937014400073    -1.381470718927    -1.075630047663     1.007825032070
           H         -0.936957400073    -1.382611718927     0.657523952337     1.007825032070
           C         -2.476135400073     0.669083281073     1.206052952337    12.000000000000
           H         -2.931822400073    -0.223221718927    -0.701425047663     1.007825032070
           H         -1.831831400073     1.114251281073    -0.801087047663     1.007825032070
           H         -2.765101400073    -0.185318718927     1.811815952337     1.007825032070
           H         -3.315176400073     1.356801281073     1.184669952337     1.007825032070
           H         -1.653333400073     1.167959281073     1.710624952337     1.007825032070
           C          2.746716599927    -0.402759718927    -0.207841047663    12.000000000000
           H          2.919002599927     0.199349281073    -1.088366047663     1.007825032070
           H          3.400083599927    -1.261233718927    -0.208113047663     1.007825032070
           H          2.918915599927     0.198734281073     0.673102952337     1.007825032070

  Charge       = 0
  Multiplicity = 1
  Basis Set: 6-31G*
  Basis Set:

    Orbital Energies (a.u.)
    -----------------------

    Doubly Occupied:

       1A    -20.604769     2A    -20.546833     3A    -11.373433
       4A    -11.281579     5A    -11.235259     6A    -11.220377
       7A    -11.209123     8A     -1.470539     9A     -1.364248
      10A     -1.079729    11A     -0.999697    12A     -0.937791
      13A     -0.829194    14A     -0.766492    15A     -0.703356
      16A     -0.681928    17A     -0.672574    18A     -0.618925
      19A     -0.613397    20A     -0.568255    21A     -0.565694
      22A     -0.533846    23A     -0.523977    24A     -0.487035
      25A     -0.484191    26A     -0.479274    27A     -0.457203
      28A     -0.439226

  @DF-RHF Final Energy:  -344.90507183790214

   => Energetics <=

    Nuclear Repulsion Energy =            317.0605211037126310
    One-Electron Energy =               -1098.4352204662591248
    Two-Electron Energy =                 436.4696275246440109
    DFT Exchange-Correlation Energy =       0.0000000000000000
    Empirical Dispersion Energy =           0.0000000000000000
    PCM Polarization Energy =               0.0000000000000000
    EFP Energy =                            0.0000000000000000
    Total Energy =                       -344.9050718379024829

  Mulliken Charges: (a.u.)
   Center  Symbol    Alpha    Beta     Spin     Total
       1     O     4.28581  4.28581  0.00000 -0.57162
       2     C     2.60797  2.60797  0.00000  0.78406
       3     C     3.20848  3.20848  0.00000 -0.41697
       4     O     4.30616  4.30616  0.00000 -0.61232
       5     C     3.15692  3.15692  0.00000 -0.31385
       6     H     0.39811  0.39811  0.00000  0.20378
       7     H     0.39984  0.39984  0.00000  0.20033
       8     C     3.24402  3.24402  0.00000 -0.48804
       9     H     0.41844  0.41844  0.00000  0.16311
      10     H     0.40229  0.40229  0.00000  0.19542
      11     H     0.42398  0.42398  0.00000  0.15204
      12     H     0.41759  0.41759  0.00000  0.16481
      13     H     0.41172  0.41172  0.00000  0.17656
      14     C     3.09243  3.09243  0.00000 -0.18486
      15     H     0.40893  0.40893  0.00000  0.18214
      16     H     0.40829  0.40829  0.00000  0.18342
      17     H     0.40901  0.40901  0.00000  0.18198

   Total alpha = 28.00000, Total beta = 28.00000, Total charge = -0.00000
