  ==> Input File <==

--------------------------------------------------------------------------
set {
	reference rhf
	basis 6-31G*
}

set_num_threads( 4 )
memory 2 gb

molecule MOL {
0 1

H	 -3.110304	 1.081296	 1.915592
O	 -2.410928	 0.507093	 1.637980
C	 -2.306886	 0.532354	 0.237577
C	 -1.177863	 -0.397191	 -0.171080
H	 -3.240289	 0.209808	 -0.221802
H	 -2.103056	 1.543136	 -0.113300
C	 0.198102	 0.111031	 0.262842
H	 -1.208843	 -0.518759	 -1.250427
H	 -1.368741	 -1.376554	 0.258909
C	 1.331804	 -0.827780	 -0.158768
H	 0.361943	 1.100838	 -0.156218
H	 0.217265	 0.229072	 1.345532
C	 2.723619	 -0.410569	 0.329459
H	 1.342964	 -0.912588	 -1.244120
H	 1.116806	 -1.824343	 0.220779
C	 3.243875	 0.895854	 -0.272975
H	 3.424222	 -1.207124	 0.091250
H	 2.714788	 -0.329854	 1.414619
H	 3.251977	 0.848779	 -1.358681
H	 2.637085	 1.747371	 0.016682
H	 4.259473	 1.094070	 0.055697

	symmetry c1
}
set optking {
	frozen_dihedral = ("
		2 3 4 8
	")
}

ee = optimize('scf')
oeprop('DIPOLE', 'QUADRUPOLE', 'MULLIKEN_CHARGES')
f=open( 'psi4out.xyz', 'w' )
f.write( "21  " )
f.write( str(ee) + "\n" )
f.write( MOL.save_string_xyz() )
f.close()
--------------------------------------------------------------------------

    Molecular point group: c1
  Charge       = 0
  Multiplicity = 1
  Basis Set: 6-31G*
  Basis Set:
  @DF-RHF Final Energy:  -310.21287379289504
    Total Energy =                       -310.2128737928950954
    Molecular point group: c1
  Basis Set: 6-31G*
  Basis Set:
  Basis Set: 6-31G*
  Basis Set:
  @DF-RHF Final Energy:  -310.21295492744753
    Total Energy =                       -310.2129549274479245
  Basis Set: 6-31G*
  Basis Set:
  Basis Set: 6-31G*
  Basis Set:
  @DF-RHF Final Energy:  -310.21297082778472
    Total Energy =                       -310.2129708277848295
  Basis Set: 6-31G*
  Basis Set:
  Basis Set: 6-31G*
  Basis Set:
  @DF-RHF Final Energy:  -310.21297317144376
    Total Energy =                       -310.2129731714437639
  Basis Set: 6-31G*
  Basis Set:
  Charge       = 0
  Multiplicity = 1
  Basis Set: 6-31G*
  Basis Set:

    Orbital Energies (a.u.)
    -----------------------

    Doubly Occupied:

       1A    -20.552887     2A    -11.267784     3A    -11.211688
       4A    -11.211139     5A    -11.208966     6A    -11.206394
       7A    -11.204870     8A     -1.359520     9A     -1.081064
      10A     -1.030018    11A     -0.953180    12A     -0.875106
      13A     -0.802067    14A     -0.772985    15A     -0.704859
      16A     -0.642226    17A     -0.623867    18A     -0.602658
      19A     -0.583822    20A     -0.567617    21A     -0.532704
      22A     -0.525168    23A     -0.503092    24A     -0.487217
      25A     -0.479319    26A     -0.456992    27A     -0.452748
      28A     -0.442822    29A     -0.426208

  @DF-RHF Final Energy:  -310.21297254203967

   => Energetics <=

    Nuclear Repulsion Energy =            316.7667080883994686
    One-Electron Energy =               -1048.4213823981071982
    Two-Electron Energy =                 421.4417017676683486
    DFT Exchange-Correlation Energy =       0.0000000000000000
    Empirical Dispersion Energy =           0.0000000000000000
    PCM Polarization Energy =               0.0000000000000000
    EFP Energy =                            0.0000000000000000
    Total Energy =                       -310.2129725420393811
    Molecular point group: c1
  Basis Set: 6-31G*
  Basis Set:

  -Total Gradient:
     Atom            X                  Y                   Z
    ------   -----------------  -----------------  -----------------
       1        0.000014733992     0.000008980463    -0.000052950299
       2       -0.000361301389    -0.000690723121    -0.000061172501
       3        0.000466327377     0.000643400385    -0.000004167180
       4        0.000556722157     0.000802359889    -0.000069539018
       5        0.000062227519    -0.000040183612    -0.000092439349
       6        0.000007880814     0.000020602906     0.000062065817
       7        0.000081968158     0.000126605424    -0.000154117163
       8       -0.000774079359    -0.000815312697     0.000158469207
       9       -0.000020385770    -0.000097435824    -0.000021010572
      10       -0.000133824675    -0.000060909846     0.000135976798
      11        0.000120691605     0.000096708751     0.000015992953
      12        0.000086230196    -0.000016603690     0.000018308746
      13        0.000060915389    -0.000009891871    -0.000009289731
      14       -0.000048930905     0.000002161402     0.000061588692
      15       -0.000051530768    -0.000005094440     0.000012453104
      16       -0.000045952772     0.000017113285     0.000020966984
      17        0.000006834554     0.000031487972    -0.000038427293
      18        0.000039530490    -0.000048835048    -0.000001194726
      19        0.000015086555    -0.000013758214     0.000022041855
      20       -0.000073081502     0.000031086600    -0.000017038579
      21       -0.000010061665     0.000018241284     0.000013482247

  **** Optimization is complete! (in 5 steps) ****
    Final optimized geometry and variables:
    Molecular point group: c1

    Geometry (in Angstrom), charge = 0, multiplicity = 1:

    H           -3.268280334551     1.007088545172     1.635549159857
    O           -2.592583805681     0.408584753121     1.350845165039
    C           -2.490529645450     0.442172279744    -0.050678370813
    C           -1.349107535977    -0.466613721599    -0.473422762721
    H           -3.418756215461     0.100371351894    -0.505149600817
    H           -2.309485582800     1.458503362534    -0.398153987933
    C            0.028315904399     0.037368918678    -0.039463067942
    H           -1.383988079104    -0.579960946787    -1.555361581268
    H           -1.531873488815    -1.451744260268    -0.051901188547
    C            1.156492213485    -0.912580921969    -0.448949558364
    H            0.195196102444     1.021576916281    -0.471421808209
    H            0.034397676162     0.165743742646     1.038727696407
    C            2.549526340199    -0.497732298951     0.038465508872
    H            1.171753162358    -1.011193793757    -1.533686149280
    H            0.935822371446    -1.903673302925    -0.057851898101
    C            3.070281010486     0.808779370491    -0.563364386366
    H            3.249813965367    -1.294584830554    -0.200308339102
    H            2.540292892630    -0.417095321034     1.123415870031
    H            3.081021585456     0.761245514641    -1.649167332914
    H            2.461731304259     1.659491100326    -0.275319937518
    H            4.085052512609     1.008130639814    -0.232555067090

  Mulliken Charges: (a.u.)
   Center  Symbol    Alpha    Beta     Spin     Total
       1     H     0.28069  0.28069  0.00000  0.43862
       2     O     4.36974  4.36974  0.00000 -0.73949
       3     C     2.99747  2.99747  0.00000  0.00507
       4     C     3.15981  3.15981  0.00000 -0.31962
       5     H     0.42929  0.42929  0.00000  0.14141
       6     H     0.43271  0.43271  0.00000  0.13458
       7     C     3.15652  3.15652  0.00000 -0.31304
       8     H     0.42399  0.42399  0.00000  0.15201
       9     H     0.41437  0.41437  0.00000  0.17126
      10     C     3.15279  3.15279  0.00000 -0.30557
      11     H     0.42517  0.42517  0.00000  0.14965
      12     H     0.40892  0.40892  0.00000  0.18216
      13     C     3.15194  3.15194  0.00000 -0.30387
      14     H     0.42644  0.42644  0.00000  0.14712
      15     H     0.42165  0.42165  0.00000  0.15670
      16     C     3.24107  3.24107  0.00000 -0.48214
      17     H     0.42196  0.42196  0.00000  0.15608
      18     H     0.42241  0.42241  0.00000  0.15517
      19     H     0.42324  0.42324  0.00000  0.15352
      20     H     0.41990  0.41990  0.00000  0.16020
      21     H     0.41991  0.41991  0.00000  0.16019

   Total alpha = 29.00000, Total beta = 29.00000, Total charge =  0.00000
