                              Psi4 1.0.54 Driver

  ==> Input File <==

--------------------------------------------------------------------------
set {
	reference rhf
	basis cc-pvtz
}

set_num_threads( 4 )
memory 2 gb

molecule MOL {
0 1

H	 3.459101	 0.139266	 -0.762951
C	 2.749156	 -0.051729	 0.031265
C	 1.322304	 0.099773	 -0.484271
H	 2.929445	 -1.053887	 0.403481
H	 2.954281	 0.646699	 0.834672
C	 0.308557	 -0.162619	 0.622645
H	 1.143368	 -0.594400	 -1.295960
H	 1.169532	 1.100095	 -0.870217
N	 -1.069352	 -0.004081	 0.085342
H	 0.371632	 -1.172932	 0.991288
H	 0.400391	 0.548875	 1.426218
O	 -1.358839	 1.054760	 -0.361457
O	 -1.794388	 -0.938253	 0.166514

	symmetry c1
}
set optking {
	frozen_dihedral = ("
		12 9 6 3
	")
}

ee,wfn = optimize('scf', return_wfn=True)
oeprop( wfn, 'DIPOLE', 'QUADRUPOLE', 'MULLIKEN_CHARGES')
f=open( 'psi4out.xyz', 'w' )
f.write( "13  " )
f.write( str(ee) + "\n" )
f.write( MOL.save_string_xyz() )
f.close()
--------------------------------------------------------------------------

    Molecular point group: c1
  Charge       = 0
  Multiplicity = 1
  Basis Set: CC-PVTZ
  Basis Set:
  @DF-RHF Final Energy:  -321.86099351932910
    Total Energy =                       -321.8609935193292131
    Molecular point group: c1
  Basis Set: CC-PVTZ
  Basis Set:
  Basis Set: CC-PVTZ
  Basis Set:
  @DF-RHF Final Energy:  -321.85597052744896
    Total Energy =                       -321.8559705274486760
  Basis Set: CC-PVTZ
  Basis Set:
  Basis Set: CC-PVTZ
  Basis Set:
  @DF-RHF Final Energy:  -321.86096320905233
    Total Energy =                       -321.8609632090521586
  Basis Set: CC-PVTZ
  Basis Set:
  Basis Set: CC-PVTZ
  Basis Set:
  @DF-RHF Final Energy:  -321.86124233014891
    Total Energy =                       -321.8612423301486842
  Basis Set: CC-PVTZ
  Basis Set:
  Basis Set: CC-PVTZ
  Basis Set:
  @DF-RHF Final Energy:  -321.86116773879996
    Total Energy =                       -321.8611677388000771
  Basis Set: CC-PVTZ
  Basis Set:
  Basis Set: CC-PVTZ
  Basis Set:
  @DF-RHF Final Energy:  -321.86125580595814
    Total Energy =                       -321.8612558059580806
  Basis Set: CC-PVTZ
  Basis Set:
  Basis Set: CC-PVTZ
  Basis Set:
  @DF-RHF Final Energy:  -321.86125725014705
    Total Energy =                       -321.8612572501465365
  Basis Set: CC-PVTZ
  Basis Set:
  Charge       = 0
  Multiplicity = 1
  Basis Set: CC-PVTZ
  Basis Set:

    Orbital Energies (a.u.)
    -----------------------

    Doubly Occupied:

       1A    -20.592525     2A    -20.588977     3A    -15.837412
       4A    -11.297743     5A    -11.251935     6A    -11.236440
       7A     -1.636457     8A     -1.420655     9A     -1.133300
      10A     -1.027572    11A     -0.884356    12A     -0.832297
      13A     -0.762707    14A     -0.741300    15A     -0.728900
      16A     -0.669660    17A     -0.604700    18A     -0.585579
      19A     -0.551297    20A     -0.521704    21A     -0.511962
      22A     -0.487653    23A     -0.474685    24A     -0.453804

  @DF-RHF Final Energy:  -321.86125740125942

   => Energetics <=

    Nuclear Repulsion Energy =            247.8454636115277196
    One-Electron Energy =                -929.7462000514210558
    Two-Electron Energy =                 360.0394790386334876
    DFT Exchange-Correlation Energy =       0.0000000000000000
    Empirical Dispersion Energy =           0.0000000000000000
    PCM Polarization Energy =               0.0000000000000000
    EFP Energy =                            0.0000000000000000
    Total Energy =                       -321.8612574012598202
    Molecular point group: c1
  Basis Set: CC-PVTZ
  Basis Set:

  -Total Gradient:
     Atom            X                  Y                   Z
    ------   -----------------  -----------------  -----------------
       1        0.000008583940    -0.000000600050     0.000003327418
       2        0.000003788144     0.000002574122    -0.000011074493
       3        0.000013194692     0.000379430633     0.000093086238
       4        0.000003012904    -0.000002650232    -0.000000489815
       5       -0.000002767841    -0.000002049008    -0.000001883510
       6        0.000026414430    -0.000568259892    -0.000289205000
       7        0.000001708977     0.000001785735     0.000004452933
       8        0.000002603611     0.000002424486    -0.000006816571
       9       -0.000213834822     0.000365411858     0.000674294126
      10       -0.000008858071    -0.000000988101     0.000001036365
      11       -0.000002398648    -0.000001678874    -0.000006261939
      12        0.000157117005    -0.000183896232    -0.000458786548
      13        0.000011435677     0.000008495555    -0.000001679202

  **** Optimization is complete! (in 8 steps) ****
    Final optimized geometry and variables:
    Molecular point group: c1

    Geometry (in Angstrom), charge = 0, multiplicity = 1:

    H            3.461545219603     0.117974102867    -0.827142474228
    C            2.758384668410    -0.066337183851    -0.025375968517
    C            1.327561661217     0.106763869192    -0.524032842405
    H            2.931737971162    -1.071126876729     0.343089050738
    H            2.981920341445     0.627788295424     0.777156761483
    C            0.328014285973    -0.152316914039     0.593181594335
    H            1.134279189901    -0.582287410667    -1.338717862795
    H            1.179942438537     1.107075437306    -0.905512380678
    N           -1.071151833971    -0.002438519780     0.104126040861
    H            0.397302736361    -1.151045144655     0.987794326843
    H            0.431160301441     0.571451024284     1.388309069670
    O           -1.379264825110     1.055645615512    -0.333553887470
    O           -1.783237211565    -0.945612209379     0.182777215008

  Mulliken Charges: (a.u.)
   Center  Symbol    Alpha    Beta     Spin     Total
       1     H     0.44157  0.44157  0.00000  0.11686
       2     C     3.15133  3.15133  0.00000 -0.30265
       3     C     3.09617  3.09617  0.00000 -0.19235
       4     H     0.45197  0.45197  0.00000  0.09607
       5     H     0.45206  0.45206  0.00000  0.09587
       6     C     3.04011  3.04011  0.00000 -0.08023
       7     H     0.44283  0.44283  0.00000  0.11435
       8     H     0.43359  0.43359  0.00000  0.13283
       9     N     3.27684  3.27684  0.00000  0.44633
      10     H     0.43267  0.43267  0.00000  0.13467
      11     H     0.43716  0.43716  0.00000  0.12569
      12     O     4.17465  4.17465  0.00000 -0.34930
      13     O     4.16906  4.16906  0.00000 -0.33813

   Total alpha = 24.00000, Total beta = 24.00000, Total charge = -0.00000

*** Psi4 exiting successfully. Buy a developer a beer!
