  ==> Input File <==

--------------------------------------------------------------------------
set {
	reference rhf
	basis 6-31G*
}

set_num_threads( 4 )
memory 2 gb

molecule MOL {
0 1

O	 1.846825	 1.296220	 0.000415
C	 1.705091	 0.115954	 0.001797
C	 0.381791	 -0.609817	 0.001258
O	 2.721346	 -0.737485	 -0.000216
C	 -0.823008	 0.326187	 0.001381
H	 0.371250	 -1.265087	 -0.865474
H	 0.370908	 -1.265746	 0.867490
C	 -2.057001	 -0.316046	 -0.634118
H	 -0.567325	 1.238188	 -0.528779
H	 -1.045377	 0.622749	 1.021632
C	 -3.274863	 0.609474	 -0.643180
H	 -1.826518	 -0.614460	 -1.655795
H	 -2.306885	 -1.231289	 -0.099544
C	 -4.507852	 -0.033211	 -1.277170
H	 -3.027684	 1.523188	 -1.179063
H	 -3.506884	 0.907740	 0.376791
H	 -4.318047	 -0.311486	 -2.310007
H	 -5.353880	 0.646946	 -1.268447
H	 -4.800792	 -0.932152	 -0.742006
C	 4.024888	 -0.184556	 -0.001949
H	 4.179030	 0.422472	 -0.882452
H	 4.701782	 -1.024608	 -0.003642
H	 4.181981	 0.421185	 0.878906

	symmetry c1
}
set optking {
	frozen_dihedral = ("
		9 5 3 6
	")
}

ee = optimize('scf')
oeprop('DIPOLE', 'QUADRUPOLE', 'MULLIKEN_CHARGES')
f=open( 'psi4out.xyz', 'w' )
f.write( "23  " )
f.write( str(ee) + "\n" )
f.write( MOL.save_string_xyz() )
f.close()
--------------------------------------------------------------------------

    Molecular point group: c1
  Charge       = 0
  Multiplicity = 1
  Basis Set: 6-31G*
  Basis Set:
  @DF-RHF Final Energy:  -422.97423707061699
    Total Energy =                       -422.9742370706165957
    Molecular point group: c1
  Basis Set: 6-31G*
  Basis Set:
  Basis Set: 6-31G*
  Basis Set:
  @DF-RHF Final Energy:  -422.97440267159442
    Total Energy =                       -422.9744026715945893
  Basis Set: 6-31G*
  Basis Set:
  Basis Set: 6-31G*
  Basis Set:
  @DF-RHF Final Energy:  -422.97368759825514
    Total Energy =                       -422.9736875982550828
  Basis Set: 6-31G*
  Basis Set:
  Basis Set: 6-31G*
  Basis Set:
  @DF-RHF Final Energy:  -422.97448543487968
    Total Energy =                       -422.9744854348796252
  Basis Set: 6-31G*
  Basis Set:
  Basis Set: 6-31G*
  Basis Set:
  @DF-RHF Final Energy:  -422.97449041773416
    Total Energy =                       -422.9744904177342733
  Basis Set: 6-31G*
  Basis Set:
  Basis Set: 6-31G*
  Basis Set:
  @DF-RHF Final Energy:  -422.97449185472038
    Total Energy =                       -422.9744918547200996
  Basis Set: 6-31G*
  Basis Set:
  Basis Set: 6-31G*
  Basis Set:
  @DF-RHF Final Energy:  -422.97449391724058
    Total Energy =                       -422.9744939172403519
  Basis Set: 6-31G*
  Basis Set:
  Charge       = 0
  Multiplicity = 1
  Basis Set: 6-31G*
  Basis Set:

    Orbital Energies (a.u.)
    -----------------------

    Doubly Occupied:

       1A    -20.603835     2A    -20.545886     3A    -11.372934
       4A    -11.280974     5A    -11.235303     6A    -11.218560
       7A    -11.217889     8A    -11.216346     9A    -11.209569
      10A     -1.469694    11A     -1.363092    12A     -1.092339
      13A     -1.043374    14A     -0.987064    15A     -0.932082
      16A     -0.843941    17A     -0.795440    18A     -0.767472
      19A     -0.699067    20A     -0.682490    21A     -0.671944
      22A     -0.649200    23A     -0.608961    24A     -0.599912
      25A     -0.572493    26A     -0.558117    27A     -0.556782
      28A     -0.524702    29A     -0.522503    30A     -0.505802
      31A     -0.483126    32A     -0.469816    33A     -0.464739
      34A     -0.460535    35A     -0.456150    36A     -0.436718

  @DF-RHF Final Energy:  -422.97449391857498

   => Energetics <=

    Nuclear Repulsion Energy =            452.1555616823405330
    One-Electron Energy =               -1472.0224071045299752
    Two-Electron Energy =                 596.8923515036142362
    DFT Exchange-Correlation Energy =       0.0000000000000000
    Empirical Dispersion Energy =           0.0000000000000000
    PCM Polarization Energy =               0.0000000000000000
    EFP Energy =                            0.0000000000000000
    Total Energy =                       -422.9744939185752628
    Molecular point group: c1
  Basis Set: 6-31G*
  Basis Set:

  -Total Gradient:
     Atom            X                  Y                   Z
    ------   -----------------  -----------------  -----------------
       1        0.000009962612     0.000003940820     0.000005350053
       2        0.000011093424    -0.000003386971    -0.000004758530
       3        0.002596052155     0.003330389014    -0.001612831734
       4        0.000005424751     0.000002435059     0.000005647640
       5       -0.001836858680    -0.002400569648    -0.003219276774
       6       -0.001851310265    -0.002378162725     0.001839229777
       7        0.000001092298     0.000001779669    -0.000005766057
       8       -0.000014264027    -0.000000723019     0.000010569637
       9        0.001086180318     0.001449488699     0.002988896845
      10       -0.000004991597    -0.000001571781    -0.000005120646
      11       -0.000002591475    -0.000003604978    -0.000000218659
      12        0.000009251637     0.000001041841     0.000003381507
      13       -0.000008935938    -0.000002410606    -0.000001708927
      14        0.000000803659     0.000002390136    -0.000000758635
      15       -0.000001524895     0.000001446646    -0.000001284783
      16        0.000002358214    -0.000000331535     0.000000939188
      17        0.000001123405    -0.000002146313    -0.000000632462
      18       -0.000000496307     0.000001570076    -0.000001405107
      19       -0.000001901654    -0.000001296271     0.000002621667
      20       -0.000000228157    -0.000000175592    -0.000006437661
      21        0.000001182029    -0.000000102745     0.000001066419
      22       -0.000000133757    -0.000000234173     0.000001056429
      23       -0.000001287759     0.000000234396     0.000001440811

  **** Optimization is complete! (in 8 steps) ****
    Final optimized geometry and variables:
    Molecular point group: c1

    Geometry (in Angstrom), charge = 0, multiplicity = 1:

    O            1.838454696776     1.248842874301     0.271105231629
    C            1.678943488751     0.070875588579     0.269698516048
    C            0.348521775679    -0.639674266777     0.226827280965
    O            2.682046798205    -0.796908705828     0.309534524877
    C           -0.863013690574     0.294765264858     0.214626890548
    H            0.348325660384    -1.303994413946    -0.633138166549
    H            0.316200450569    -1.304835815163     1.085463302486
    C           -2.110298114268    -0.361780062428    -0.376552905155
    H           -0.613200874033     1.203965865647    -0.320083187043
    H           -1.070370867929     0.612050103288     1.233541156434
    C           -3.340827665204     0.545430406927    -0.334972658949
    H           -1.911120582225    -0.649383480194    -1.407697069939
    H           -2.326863722218    -1.284535673904     0.160086739852
    C           -4.583965554557    -0.107496341741    -0.938003149097
    H           -3.123403678830     1.469175187404    -0.866427439046
    H           -3.545008325300     0.827403563544     0.695569897301
    H           -4.423175954183    -0.369638725132    -1.979946886262
    H           -5.439076136383     0.559734370122    -0.893500974678
    H           -4.846618947276    -1.017502274083    -0.405785989914
    C            3.992738362085    -0.262763667296     0.352648755913
    H            4.187800619295     0.337153674697    -0.524584311281
    H            4.656835286670    -1.112584937844     0.379697091744
    H            4.126374181996     0.345267553979     1.235785797256

  Mulliken Charges: (a.u.)
   Center  Symbol    Alpha    Beta     Spin     Total
       1     O     4.28558  4.28558  0.00000 -0.57115
       2     C     2.60711  2.60711  0.00000  0.78577
       3     C     3.20996  3.20996  0.00000 -0.41992
       4     O     4.30647  4.30647  0.00000 -0.61295
       5     C     3.15583  3.15583  0.00000 -0.31165
       6     H     0.39984  0.39984  0.00000  0.20032
       7     H     0.39950  0.39950  0.00000  0.20099
       8     C     3.15415  3.15415  0.00000 -0.30830
       9     H     0.40233  0.40233  0.00000  0.19534
      10     H     0.41712  0.41712  0.00000  0.16577
      11     C     3.15201  3.15201  0.00000 -0.30402
      12     H     0.42301  0.42301  0.00000  0.15397
      13     H     0.42417  0.42417  0.00000  0.15165
      14     C     3.23958  3.23958  0.00000 -0.47916
      15     H     0.42056  0.42056  0.00000  0.15889
      16     H     0.42194  0.42194  0.00000  0.15612
      17     H     0.42161  0.42161  0.00000  0.15678
      18     H     0.41851  0.41851  0.00000  0.16299
      19     H     0.42196  0.42196  0.00000  0.15608
      20     C     3.09230  3.09230  0.00000 -0.18459
      21     H     0.40907  0.40907  0.00000  0.18186
      22     H     0.40841  0.40841  0.00000  0.18318
      23     H     0.40900  0.40900  0.00000  0.18201

   Total alpha = 36.00000, Total beta = 36.00000, Total charge =  0.00000
