  ==> Input File <==

--------------------------------------------------------------------------
set {
	reference rhf
	basis 6-31G*
}

set_num_threads( 4 )
memory 2 gb

molecule MOL {
0 1

O	 -1.276010	 1.052711	 -0.768302
C	 -1.204840	 0.067374	 -0.106123
C	 -2.388195	 -0.672128	 0.458071
O	 -0.067104	 -0.527208	 0.221609
H	 -2.388023	 -1.694060	 0.097175
H	 -3.300579	 -0.174919	 0.164318
H	 -2.315377	 -0.706351	 1.539059
C	 0.353091	 -1.682721	 -0.517415
C	 1.249820	 -2.473091	 0.418951
C	 1.058858	 -1.248372	 -1.792514
H	 -0.527748	 -2.256705	 -0.764745
H	 0.714127	 -2.748707	 1.320236
H	 1.591272	 -3.380629	 -0.067995
H	 2.118262	 -1.888318	 0.702683
H	 1.399709	 -2.118115	 -2.345128
H	 0.388794	 -0.685028	 -2.429409
H	 1.921472	 -0.632967	 -1.557607

	symmetry c1
}
set optking {
	frozen_dihedral = ("
		8 4 2 1
	")
}

ee = optimize('scf')
oeprop('DIPOLE', 'QUADRUPOLE', 'MULLIKEN_CHARGES')
f=open( 'psi4out.xyz', 'w' )
f.write( "17  " )
f.write( str(ee) + "\n" )
f.write( MOL.save_string_xyz() )
f.close()
--------------------------------------------------------------------------

    Molecular point group: c1
  Charge       = 0
  Multiplicity = 1
  Basis Set: 6-31G*
  Basis Set:
  @DF-RHF Final Energy:  -344.89261254593151
    Total Energy =                       -344.8926125459313994
    Molecular point group: c1
  Basis Set: 6-31G*
  Basis Set:
  Basis Set: 6-31G*
  Basis Set:
  @DF-RHF Final Energy:  -344.89089696452226
    Total Energy =                       -344.8908969645220850
  Basis Set: 6-31G*
  Basis Set:
  Basis Set: 6-31G*
  Basis Set:
  @DF-RHF Final Energy:  -344.89402613481531
    Total Energy =                       -344.8940261348154195
  Basis Set: 6-31G*
  Basis Set:
  Basis Set: 6-31G*
  Basis Set:
  @DF-RHF Final Energy:  -344.89474380783685
    Total Energy =                       -344.8947438078367895
  Basis Set: 6-31G*
  Basis Set:
  @DF-RHF Final Energy:  -344.89477658490790
    Total Energy =                       -344.8947765849083567
  Basis Set: 6-31G*
  Basis Set:
  @DF-RHF Final Energy:  -344.89478461234717
    Total Energy =                       -344.8947846123473937
  Basis Set: 6-31G*
  Basis Set:
  Basis Set: 6-31G*
  Basis Set:
  @DF-RHF Final Energy:  -344.89478785000665
    Total Energy =                       -344.8947878500067645
  Basis Set: 6-31G*
  Basis Set:
  Basis Set: 6-31G*
  Basis Set:
  @DF-RHF Final Energy:  -344.89478901260514
    Total Energy =                       -344.8947890126048037
  Basis Set: 6-31G*
  Basis Set:
  Charge       = 0
  Multiplicity = 1
  Basis Set: 6-31G*
  Basis Set:

    Orbital Energies (a.u.)
    -----------------------

    Doubly Occupied:

       1A    -20.581183     2A    -20.554526     3A    -11.376698
       4A    -11.302690     5A    -11.237242     6A    -11.223086
       7A    -11.217861     8A     -1.455914     9A     -1.365762
      10A     -1.073794    11A     -1.011051    12A     -0.951416
      13A     -0.848086    14A     -0.770352    15A     -0.692694
      16A     -0.673496    17A     -0.653324    18A     -0.618942
      19A     -0.591069    20A     -0.589340    21A     -0.556190
      22A     -0.551804    23A     -0.544798    24A     -0.520251
      25A     -0.507850    26A     -0.478916    27A     -0.447844
      28A     -0.434509

  @DF-RHF Final Energy:  -344.89478953611871

   => Energetics <=

    Nuclear Repulsion Energy =            322.3133729645481367
    One-Electron Energy =               -1108.7549487892158595
    Two-Electron Energy =                 441.5467862885487307
    DFT Exchange-Correlation Energy =       0.0000000000000000
    Empirical Dispersion Energy =           0.0000000000000000
    PCM Polarization Energy =               0.0000000000000000
    EFP Energy =                            0.0000000000000000
    Total Energy =                       -344.8947895361190490
    Molecular point group: c1
  Basis Set: 6-31G*
  Basis Set:

  -Total Gradient:
     Atom            X                  Y                   Z
    ------   -----------------  -----------------  -----------------
       1        0.000032474228     0.000593829107     0.000927993233
       2       -0.000269600624    -0.001145425945    -0.001084195933
       3       -0.000001320629    -0.000016754853    -0.000002153879
       4        0.000709813303     0.001082820408    -0.000381314731
       5        0.000002820414     0.000006244189     0.000002203015
       6        0.000002157685     0.000004192604     0.000001537028
       7       -0.000002505404     0.000001541203     0.000002300400
       8       -0.000474175885    -0.000564612977     0.000507951621
       9        0.000004773669     0.000020776858     0.000010437899
      10        0.000004495672     0.000015882681     0.000017667995
      11       -0.000002980770    -0.000001524533     0.000004698275
      12       -0.000001683381     0.000001358880    -0.000001032481
      13       -0.000005767088     0.000005838719    -0.000003303128
      14        0.000004593627    -0.000003829008     0.000003037549
      15       -0.000007112339    -0.000000321639     0.000005436342
      16        0.000002539603    -0.000001622167    -0.000009777240
      17        0.000001477926     0.000001606473    -0.000001485961

  **** Optimization is complete! (in 9 steps) ****
    Final optimized geometry and variables:
    Molecular point group: c1

    Geometry (in Angstrom), charge = 0, multiplicity = 1:

    O           -0.907889650383     1.828381897964    -0.439227543156
    C           -0.902688981856     0.825915030312     0.187010762606
    C           -2.143730711807     0.177391084535     0.746097046828
    O            0.245859166545     0.212201233140     0.541126289370
    H           -2.188342752470    -0.873693359951     0.485073686415
    H           -3.023642363150     0.684526122694     0.378905075624
    H           -2.109601702628     0.240058629923     1.828663777503
    C            0.697463889894    -0.911428179634    -0.219696430555
    C            1.627999378635    -1.693342036082     0.689196432642
    C            1.373443184112    -0.438195501764    -1.498124490709
    H           -0.159968387676    -1.530159764306    -0.470544613486
    H            1.107676457841    -2.011666812624     1.585023906845
    H            2.006931415382    -2.571710821220     0.177260643130
    H            2.468653543567    -1.075097044049     0.983625476235
    H            1.712473711807    -1.289907750565    -2.079888506883
    H            0.694653852368     0.144751363031    -2.108751039683
    H            2.229022369619     0.183241793365    -1.259274718684

  Mulliken Charges: (a.u.)
   Center  Symbol    Alpha    Beta     Spin     Total
       1     O     4.25213  4.25213  0.00000 -0.50426
       2     C     2.62477  2.62477  0.00000  0.75046
       3     C     3.28730  3.28730  0.00000 -0.57460
       4     O     4.32180  4.32180  0.00000 -0.64360
       5     H     0.40769  0.40769  0.00000  0.18462
       6     H     0.39655  0.39655  0.00000  0.20691
       7     H     0.39775  0.39775  0.00000  0.20450
       8     C     2.92994  2.92994  0.00000  0.14011
       9     C     3.23985  3.23985  0.00000 -0.47969
      10     C     3.24338  3.24338  0.00000 -0.48677
      11     H     0.42325  0.42325  0.00000  0.15350
      12     H     0.41228  0.41228  0.00000  0.17544
      13     H     0.41837  0.41837  0.00000  0.16326
      14     H     0.40913  0.40913  0.00000  0.18174
      15     H     0.42087  0.42087  0.00000  0.15827
      16     H     0.40553  0.40553  0.00000  0.18894
      17     H     0.40941  0.40941  0.00000  0.18117

   Total alpha = 28.00000, Total beta = 28.00000, Total charge =  0.00000
