  ==> Input File <==

--------------------------------------------------------------------------
set {
	reference rhf
	basis cc-pvtz
}

set_num_threads( 4 )
memory 2 gb

molecule MOL {
0 1

H	 2.462485	 -2.216993	 0.000000
O	 2.777472	 -1.330706	 0.000000
C	 1.763288	 -0.447523	 0.000000
C	 1.684748	 0.437036	 -1.066071
C	 0.822960	 -0.399516	 1.006895
H	 2.426247	 0.382534	 -1.838317
C	 0.668412	 1.363074	 -1.119599
H	 0.859257	 -1.069445	 1.840666
C	 -0.182969	 0.542521	 0.920630
H	 0.615711	 2.042661	 -1.947326
C	 -0.287914	 1.430748	 -0.120197
N	 -1.180302	 0.587871	 1.995837
H	 -1.082299	 2.144107	 -0.148390
O	 -1.066300	 -0.190860	 2.883337
O	 -2.039414	 1.398959	 1.913616

	symmetry c1
}
set optking {
	frozen_dihedral = ("
		4 3 2 1
	")
}

ee = optimize('scf')
oeprop('DIPOLE', 'QUADRUPOLE', 'MULLIKEN_CHARGES')
f=open( 'psi4out.xyz', 'w' )
f.write( "15  " )
f.write( str(ee) + "\n" )
f.write( MOL.save_string_xyz() )
f.close()
--------------------------------------------------------------------------

    Molecular point group: c1
  Charge       = 0
  Multiplicity = 1
  Basis Set: CC-PVTZ
  Basis Set:
  @DF-RHF Final Energy:  -509.21527584927509
    Total Energy =                       -509.2152758492746898
    Molecular point group: c1
  Basis Set: CC-PVTZ
  Basis Set:
  Basis Set: CC-PVTZ
  Basis Set:
  @DF-RHF Final Energy:  -509.21550023858197
    Total Energy =                       -509.2155002385818534
  Basis Set: CC-PVTZ
  Basis Set:
  Basis Set: CC-PVTZ
  Basis Set:
  @DF-RHF Final Energy:  -509.20081935489486
    Total Energy =                       -509.2008193548952022
  Basis Set: CC-PVTZ
  Basis Set:
  Basis Set: CC-PVTZ
  Basis Set:
  @DF-RHF Final Energy:  -509.21517178515495
    Total Energy =                       -509.2151717851552348
  Basis Set: CC-PVTZ
  Basis Set:
  Basis Set: CC-PVTZ
  Basis Set:
  @DF-RHF Final Energy:  -509.21568934525681
    Total Energy =                       -509.2156893452568056
  Basis Set: CC-PVTZ
  Basis Set:
  Basis Set: CC-PVTZ
  Basis Set:
  @DF-RHF Final Energy:  -509.21570012726249
    Total Energy =                       -509.2157001272628349
  Basis Set: CC-PVTZ
  Basis Set:
  Charge       = 0
  Multiplicity = 1
  Basis Set: CC-PVTZ
  Basis Set:

    Orbital Energies (a.u.)
    -----------------------

    Doubly Occupied:

       1A    -20.597346     2A    -20.594439     3A    -20.594194
       4A    -15.850369     5A    -11.320950     6A    -11.307938
       7A    -11.264217     8A    -11.263666     9A    -11.262334
      10A    -11.259532    11A     -1.644005    12A     -1.427188
      13A     -1.426260    14A     -1.203061    15A     -1.095417
      16A     -1.048349    17A     -0.965592    18A     -0.874197
      19A     -0.833774    20A     -0.796214    21A     -0.747083
      22A     -0.743253    23A     -0.727956    24A     -0.710673
      25A     -0.681602    26A     -0.643531    27A     -0.629143
      28A     -0.572130    29A     -0.556973    30A     -0.538578
      31A     -0.517585    32A     -0.494593    33A     -0.489955
      34A     -0.459948    35A     -0.380024    36A     -0.357683

  @DF-RHF Final Energy:  -509.21570236897520

   => Energetics <=

    Nuclear Repulsion Energy =            504.1916637301246169
    One-Electron Energy =               -1695.0552211792287380
    Two-Electron Energy =                 681.6478550801289202
    DFT Exchange-Correlation Energy =       0.0000000000000000
    Empirical Dispersion Energy =           0.0000000000000000
    PCM Polarization Energy =               0.0000000000000000
    EFP Energy =                            0.0000000000000000
    Total Energy =                       -509.2157023689751441
    Molecular point group: c1
  Basis Set: CC-PVTZ
  Basis Set:

  -Total Gradient:
     Atom            X                  Y                   Z
    ------   -----------------  -----------------  -----------------
       1        0.000054418623    -0.000023962002    -0.002170417296
       2       -0.000438956931    -0.000499517914     0.002313544646
       3        0.001175013270     0.001478672844     0.000857326738
       4       -0.000986128989    -0.000865121990    -0.000909190813
       5        0.000210916249    -0.000116573280    -0.000112984970
       6        0.000012136929    -0.000005103724     0.000017788545
       7        0.000174506690    -0.000096990159    -0.000118394525
       8       -0.000005096905     0.000013376029    -0.000003333223
       9       -0.000131228794     0.000144595541    -0.000130949677
      10       -0.000014932982     0.000005618447     0.000000785330
      11       -0.000024744654    -0.000045568802     0.000200793799
      12        0.000126438310     0.000057663084    -0.000019130946
      13        0.000012191266    -0.000009316551    -0.000022248143
      14       -0.000139810458     0.000095150600    -0.000025447540
      15       -0.000024721618    -0.000132922123     0.000121858079

  **** Optimization is complete! (in 7 steps) ****
    Final optimized geometry and variables:
    Molecular point group: c1

    Geometry (in Angstrom), charge = 0, multiplicity = 1:

    H            2.202172506259    -2.527296259294    -0.676463247068
    O            2.519219638230    -1.641050589932    -0.678649074849
    C            1.490955902817    -0.753440356959    -0.717123898529
    C            1.409851393666     0.128448670293    -1.779619497123
    C            0.556631694988    -0.705777969659     0.296412226247
    H            2.148283868039     0.072738764131    -2.554857703226
    C            0.398184617081     1.066213661105    -1.826329304002
    H            0.613209436887    -1.372768195303     1.130138116033
    C           -0.450119032819     0.232884704651     0.215182760283
    H            0.343623290053     1.749421146198    -2.650805013410
    C           -0.551589733308     1.127847732294    -0.825043245316
    N           -1.447513109066     0.278561929189     1.289146086357
    H           -1.344664743920     1.843280825025    -0.846941583600
    O           -1.351915454654    -0.518428755613     2.161760335539
    O           -2.290847345098     1.107996336556     1.219559288850

  Mulliken Charges: (a.u.)
   Center  Symbol    Alpha    Beta     Spin     Total
       1     H     0.38317  0.38317  0.00000  0.23366
       2     O     4.18347  4.18347  0.00000 -0.36694
       3     C     2.86237  2.86237  0.00000  0.27526
       4     C     3.09614  3.09614  0.00000 -0.19229
       5     C     3.11988  3.11988  0.00000 -0.23976
       6     H     0.41038  0.41038  0.00000  0.17924
       7     C     3.06366  3.06366  0.00000 -0.12732
       8     H     0.39541  0.39541  0.00000  0.20918
       9     C     2.98059  2.98059  0.00000  0.03881
      10     H     0.41532  0.41532  0.00000  0.16936
      11     C     3.08796  3.08796  0.00000 -0.17592
      12     N     3.25017  3.25017  0.00000  0.49965
      13     H     0.39889  0.39889  0.00000  0.20222
      14     O     4.17691  4.17691  0.00000 -0.35382
      15     O     4.17566  4.17566  0.00000 -0.35133

   Total alpha = 36.00000, Total beta = 36.00000, Total charge =  0.00000
