                              Psi4 1.0.54 Driver

  ==> Input File <==

--------------------------------------------------------------------------
set {
	reference rhf
	basis cc-pvtz
}

set_num_threads( 4 )
memory 2 gb

molecule MOL {
0 1

H	 3.721907	 -0.933076	 -0.066039
O	 2.824271	 -1.154299	 0.131461
C	 2.076458	 -0.067370	 -0.038225
C	 0.626018	 -0.337582	 0.258241
O	 2.538288	 0.965419	 -0.381593
C	 -0.267326	 0.883135	 0.076490
H	 0.325620	 -1.161483	 -0.378003
H	 0.574537	 -0.713685	 1.275261
C	 -1.726822	 0.642622	 0.463839
H	 -0.210803	 1.217591	 -0.953497
H	 0.129920	 1.693110	 0.675679
C	 -2.583661	 -0.016397	 -0.615772
H	 -2.169418	 1.601054	 0.718341
H	 -1.767146	 0.042689	 1.370427
C	 -4.050047	 -0.134763	 -0.213060
H	 -2.507782	 0.561494	 -1.533006
H	 -2.201585	 -1.005982	 -0.845327
H	 -4.635550	 -0.602858	 -0.995847
H	 -4.481224	 0.840771	 -0.015279
H	 -4.161703	 -0.732432	 0.685539

	symmetry c1
}
set optking {
	frozen_dihedral = ("
		12 9 6 10
	")
}

ee,wfn = optimize('scf', return_wfn=True)
oeprop( wfn, 'DIPOLE', 'QUADRUPOLE', 'MULLIKEN_CHARGES')
f=open( 'psi4out.xyz', 'w' )
f.write( "20  " )
f.write( str(ee) + "\n" )
f.write( MOL.save_string_xyz() )
f.close()
--------------------------------------------------------------------------

    Molecular point group: c1
  Charge       = 0
  Multiplicity = 1
  Basis Set: CC-PVTZ
  Basis Set:
  @DF-RHF Final Energy:  -384.09405821496131
    Total Energy =                       -384.0940582149607962
    Molecular point group: c1
  Basis Set: CC-PVTZ
  Basis Set:
  Basis Set: CC-PVTZ
  Basis Set:
  @DF-RHF Final Energy:  -384.09431243225254
    Total Energy =                       -384.0943124322529911
  Basis Set: CC-PVTZ
  Basis Set:
  Basis Set: CC-PVTZ
  Basis Set:
  @DF-RHF Final Energy:  -384.09429482545602
    Total Energy =                       -384.0942948254557336
  Basis Set: CC-PVTZ
  Basis Set:
  Basis Set: CC-PVTZ
  Basis Set:
  @DF-RHF Final Energy:  -384.09431300820967
    Total Energy =                       -384.0943130082094399
  Basis Set: CC-PVTZ
  Basis Set:
  Basis Set: CC-PVTZ
  Basis Set:
  @DF-RHF Final Energy:  -384.09436187032901
    Total Energy =                       -384.0943618703292373
  Basis Set: CC-PVTZ
  Basis Set:
  Charge       = 0
  Multiplicity = 1
  Basis Set: CC-PVTZ
  Basis Set:

    Orbital Energies (a.u.)
    -----------------------

    Doubly Occupied:

       1A    -20.603820     2A    -20.540460     3A    -11.373303
       4A    -11.238724     5A    -11.221003     6A    -11.218674
       7A    -11.218063     8A    -11.210354     9A     -1.477387
      10A     -1.368900    11A     -1.097275    12A     -1.042533
      13A     -0.961649    14A     -0.870266    15A     -0.814646
      16A     -0.782228    17A     -0.703600    18A     -0.692914
      19A     -0.666054    20A     -0.635956    21A     -0.607552
      22A     -0.595765    23A     -0.575462    24A     -0.557036
      25A     -0.541973    26A     -0.510178    27A     -0.497153
      28A     -0.484475    29A     -0.473052    30A     -0.468761
      31A     -0.457711    32A     -0.445896

  @DF-RHF Final Energy:  -384.09436232816529

   => Energetics <=

    Nuclear Repulsion Energy =            376.0733228495477078
    One-Electron Energy =               -1268.4297171710109069
    Two-Electron Energy =                 508.2620319932976827
    DFT Exchange-Correlation Energy =       0.0000000000000000
    Empirical Dispersion Energy =           0.0000000000000000
    PCM Polarization Energy =               0.0000000000000000
    EFP Energy =                            0.0000000000000000
    Total Energy =                       -384.0943623281655164
    Molecular point group: c1
  Basis Set: CC-PVTZ
  Basis Set:

  -Total Gradient:
     Atom            X                  Y                   Z
    ------   -----------------  -----------------  -----------------
       1        0.000009890047     0.000002482446    -0.000000345746
       2        0.000010464858    -0.000000536824    -0.000002103819
       3       -0.000025760723     0.000060876344    -0.000035594160
       4       -0.000044249062    -0.000004364138    -0.000054841276
       5        0.000007431925    -0.000053926533     0.000030985385
       6       -0.000375326589     0.003401223065     0.000511148177
       7        0.000010738922    -0.000007947622     0.000010822470
       8       -0.000006287927     0.000022624070    -0.000006737522
       9        0.000593583854    -0.002675333394     0.000815263616
      10        0.000199842486    -0.002269198803    -0.000589640866
      11        0.000012031448     0.000020510219    -0.000000614077
      12       -0.000393706551     0.001486682818    -0.000673686664
      13       -0.000005226644    -0.000008861749    -0.000006985417
      14       -0.000001987496    -0.000002943450    -0.000003957669
      15       -0.000009979185     0.000028651370     0.000000285735
      16        0.000001083412    -0.000001163465     0.000001910787
      17        0.000022979477     0.000001001982     0.000005739041
      18        0.000001905538     0.000004086845     0.000008071263
      19       -0.000010606883    -0.000005276258     0.000003927390
      20        0.000003179097     0.000001413079    -0.000013646648

  **** Optimization is complete! (in 6 steps) ****
    Final optimized geometry and variables:
    Molecular point group: c1

    Geometry (in Angstrom), charge = 0, multiplicity = 1:

    H            3.689365855871    -1.102273719786    -0.038931767200
    O            2.794898702121    -1.274711189291     0.213929224330
    C            2.076070552564    -0.177856227500    -0.009099632630
    C            0.632812031373    -0.370304571997     0.370649613211
    O            2.555019022842     0.807876929787    -0.452917944626
    C           -0.229506930048     0.865479158225     0.139187036013
    H            0.271156244978    -1.225896073870    -0.188634583997
    H            0.616041633809    -0.670000293604     1.413454858143
    C           -1.699836957899     0.643470515622     0.506946095450
    H           -0.150733559962     1.149781794177    -0.903632285028
    H            0.177833985513     1.685992691619     0.715847336988
    C           -2.516356791720    -0.068030933046    -0.570777422322
    H           -2.158698030980     1.609456786175     0.694941657676
    H           -1.767575697534     0.093106085819     1.442284784955
    C           -3.973891231633    -0.274122748013    -0.172172546394
    H           -2.471590752062     0.514158374230    -1.486520353264
    H           -2.072215782308    -1.032173723230    -0.801462611183
    H           -4.530617194826    -0.766857207453    -0.960797692506
    H           -4.460329948521     0.673463275843     0.033857622154
    H           -4.053275765495    -0.885742782532     0.720385269692

  Mulliken Charges: (a.u.)
   Center  Symbol    Alpha    Beta     Spin     Total
       1     H     0.38242  0.38242  0.00000  0.23516
       2     O     4.16035  4.16035  0.00000 -0.32071
       3     C     2.80378  2.80378  0.00000  0.39244
       4     C     3.10941  3.10941  0.00000 -0.21882
       5     O     4.19149  4.19149  0.00000 -0.38297
       6     C     3.09279  3.09279  0.00000 -0.18558
       7     H     0.43840  0.43840  0.00000  0.12320
       8     H     0.43796  0.43796  0.00000  0.12409
       9     C     3.09963  3.09963  0.00000 -0.19926
      10     H     0.44627  0.44627  0.00000  0.10746
      11     H     0.43938  0.43938  0.00000  0.12124
      12     C     3.08299  3.08299  0.00000 -0.16599
      13     H     0.44497  0.44497  0.00000  0.11006
      14     H     0.45558  0.45558  0.00000  0.08884
      15     C     3.15004  3.15004  0.00000 -0.30008
      16     H     0.45216  0.45216  0.00000  0.09568
      17     H     0.45597  0.45597  0.00000  0.08806
      18     H     0.44764  0.44764  0.00000  0.10471
      19     H     0.45394  0.45394  0.00000  0.09212
      20     H     0.45483  0.45483  0.00000  0.09034

   Total alpha = 32.00000, Total beta = 32.00000, Total charge = -0.00000

*** Psi4 exiting successfully. Buy a developer a beer!
