  ==> Input File <==

--------------------------------------------------------------------------
set {
	reference rhf
	basis 6-31G*
}

set_num_threads( 4 )
memory 2 gb

molecule MOL {
0 1

O	 -2.374992	 0.702196	 -1.663840
C	 -2.431948	 -0.191865	 -0.881519
C	 -3.591190	 -1.149969	 -0.784236
O	 -1.481751	 -0.454642	 0.000584
H	 -3.716489	 -1.642780	 -1.740949
H	 -3.441313	 -1.886405	 -0.008584
H	 -4.494019	 -0.584723	 -0.586055
C	 -0.334255	 0.388708	 0.000906
C	 0.891947	 -0.504646	 0.000751
H	 -0.365390	 1.025305	 -0.873475
H	 -0.365484	 1.024911	 0.875569
C	 2.191998	 0.301789	 0.000897
H	 0.855148	 -1.151283	 -0.871571
H	 0.855132	 -1.151660	 0.872805
C	 3.441114	 -0.581407	 0.000108
H	 2.215074	 0.954890	 -0.869742
H	 2.215465	 0.953923	 0.872248
C	 4.739576	 0.224112	 -0.001102
H	 3.419457	 -1.233487	 -0.870178
H	 3.420834	 -1.233096	 0.870717
H	 4.804918	 0.861552	 -0.878265
H	 5.606527	 -0.429058	 -0.001824
H	 4.806469	 0.861674	 0.875853

	symmetry c1
}
set optking {
	frozen_dihedral = ("
		2 4 8 10
	")
}

ee = optimize('scf')
oeprop('DIPOLE', 'QUADRUPOLE', 'MULLIKEN_CHARGES')
f=open( 'psi4out.xyz', 'w' )
f.write( "23  " )
f.write( str(ee) + "\n" )
f.write( MOL.save_string_xyz() )
f.close()
--------------------------------------------------------------------------

    Molecular point group: c1
  Charge       = 0
  Multiplicity = 1
  Basis Set: 6-31G*
  Basis Set:
  @DF-RHF Final Energy:  -422.97694125171233
    Total Energy =                       -422.9769412517116507
    Molecular point group: c1
  Basis Set: 6-31G*
  Basis Set:
  Basis Set: 6-31G*
  Basis Set:
  @DF-RHF Final Energy:  -422.97720436085132
    Total Energy =                       -422.9772043608517151
  Basis Set: 6-31G*
  Basis Set:
  Basis Set: 6-31G*
  Basis Set:
  @DF-RHF Final Energy:  -422.97767820013263
    Total Energy =                       -422.9776782001329138
  Basis Set: 6-31G*
  Basis Set:
  Basis Set: 6-31G*
  Basis Set:
  @DF-RHF Final Energy:  -422.97747095040302
    Total Energy =                       -422.9774709504031307
  Basis Set: 6-31G*
  Basis Set:
  Basis Set: 6-31G*
  Basis Set:
  @DF-RHF Final Energy:  -422.97768903083892
    Total Energy =                       -422.9776890308398833
  Basis Set: 6-31G*
  Basis Set:
  Charge       = 0
  Multiplicity = 1
  Basis Set: 6-31G*
  Basis Set:

    Orbital Energies (a.u.)
    -----------------------

    Doubly Occupied:

       1A    -20.602286     2A    -20.540002     3A    -11.375571
       4A    -11.280061     5A    -11.231816     6A    -11.224270
       7A    -11.223660     8A    -11.221548     9A    -11.212834
      10A     -1.465509    11A     -1.361303    12A     -1.093815
      13A     -1.042061    14A     -1.002987    15A     -0.931607
      16A     -0.845154    17A     -0.801279    18A     -0.772863
      19A     -0.697063    20A     -0.679830    21A     -0.662063
      22A     -0.647856    23A     -0.605756    24A     -0.588046
      25A     -0.584665    26A     -0.570916    27A     -0.553390
      28A     -0.538008    29A     -0.523167    30A     -0.506923
      31A     -0.489775    32A     -0.478243    33A     -0.473013
      34A     -0.470435    35A     -0.442941    36A     -0.433903

  @DF-RHF Final Energy:  -422.97768916221719

   => Energetics <=

    Nuclear Repulsion Energy =            450.5889321368819083
    One-Electron Energy =               -1468.7840054800192320
    Two-Electron Energy =                 595.2173841809201349
    DFT Exchange-Correlation Energy =       0.0000000000000000
    Empirical Dispersion Energy =           0.0000000000000000
    PCM Polarization Energy =               0.0000000000000000
    EFP Energy =                            0.0000000000000000
    Total Energy =                       -422.9776891622171888
    Molecular point group: c1
  Basis Set: 6-31G*
  Basis Set:

  -Total Gradient:
     Atom            X                  Y                   Z
    ------   -----------------  -----------------  -----------------
       1        0.000032946348    -0.000015723261     0.000011175673
       2        0.000188710511    -0.000256206782    -0.000316425013
       3       -0.000008619371     0.000005046883     0.000012395490
       4       -0.000352781296     0.000546526762     0.000599305034
       5        0.000000642184    -0.000024580553    -0.000004340154
       6        0.000005984681     0.000002725463    -0.000006366746
       7        0.000007206868    -0.000000306047    -0.000022217383
       8        0.000399749880    -0.000694520861    -0.000532716997
       9        0.000004407632     0.000009230356     0.000009224690
      10       -0.000285057976     0.000422018932     0.000301422951
      11        0.000000376168     0.000012967169    -0.000006268894
      12       -0.000000668107    -0.000008051963    -0.000012614597
      13       -0.000000008056     0.000011576236    -0.000007729463
      14        0.000002220617    -0.000012524194    -0.000009062783
      15        0.000004263185     0.000000942516     0.000002502463
      16        0.000010736566    -0.000005882224    -0.000019159495
      17       -0.000008311351     0.000005581757    -0.000019137830
      18        0.000000537007    -0.000001349156     0.000021007400
      19        0.000001703087     0.000013496487    -0.000002203111
      20       -0.000004090131    -0.000011190265    -0.000002602268
      21       -0.000003476737    -0.000004303767    -0.000000869514
      22       -0.000000234629     0.000000072455     0.000004037198
      23        0.000003762918     0.000004454057     0.000000643352

  **** Optimization is complete! (in 6 steps) ****
    Final optimized geometry and variables:
    Molecular point group: c1

    Geometry (in Angstrom), charge = 0, multiplicity = 1:

    O           -2.568885837085     0.838656824236    -1.296687157463
    C           -2.565438537636    -0.046799161960    -0.502874727391
    C           -3.700091033909    -1.026390683001    -0.344503698171
    O           -1.575683017082    -0.290759996904     0.342240923483
    H           -3.863981624132    -1.524125206269    -1.292811174053
    H           -3.498210739957    -1.757002693042     0.424678164600
    H           -4.602027020887    -0.476625701543    -0.103262823310
    C           -0.408514232289     0.528029433093     0.318540644860
    C            0.816950821311    -0.368978888251     0.328940266465
    H           -0.435148305628     1.165505971345    -0.550340154730
    H           -0.441126632049     1.152209347553     1.203438071352
    C            2.117949358089     0.434493907840     0.375772899675
    H            0.798658206366    -0.995592440929    -0.558915577422
    H            0.759478001064    -1.035104189527     1.185245137957
    C            3.365770358195    -0.450444672992     0.387849022557
    H            2.162525682702     1.104695512784    -0.480884588008
    H            2.121310184010     1.068995318767     1.260543401990
    C            4.664562404612     0.352859061801     0.440285380102
    H            3.366775440187    -1.081732344576    -0.497834905898
    H            3.321409618638    -1.122339205128     1.242084439043
    H            4.754028859743     1.010369635877    -0.419735029392
    H            5.530564066434    -0.301517317884     0.447594488334
    H            4.708605698703     0.969733733111     1.333382363750

  Mulliken Charges: (a.u.)
   Center  Symbol    Alpha    Beta     Spin     Total
       1     O     4.28348  4.28348  0.00000 -0.56695
       2     C     2.61554  2.61554  0.00000  0.76893
       3     C     3.28844  3.28844  0.00000 -0.57688
       4     O     4.31356  4.31356  0.00000 -0.62713
       5     H     0.39778  0.39778  0.00000  0.20443
       6     H     0.39994  0.39994  0.00000  0.20012
       7     H     0.39754  0.39754  0.00000  0.20492
       8     C     3.00494  3.00494  0.00000 -0.00989
       9     C     3.16298  3.16298  0.00000 -0.32597
      10     H     0.39441  0.39441  0.00000  0.21119
      11     H     0.41550  0.41550  0.00000  0.16899
      12     C     3.16093  3.16093  0.00000 -0.32187
      13     H     0.41573  0.41573  0.00000  0.16854
      14     H     0.41425  0.41425  0.00000  0.17150
      15     C     3.15138  3.15138  0.00000 -0.30275
      16     H     0.41973  0.41973  0.00000  0.16055
      17     H     0.42168  0.42168  0.00000  0.15664
      18     C     3.23990  3.23990  0.00000 -0.47980
      19     H     0.42105  0.42105  0.00000  0.15791
      20     H     0.42152  0.42152  0.00000  0.15696
      21     H     0.42058  0.42058  0.00000  0.15884
      22     H     0.41798  0.41798  0.00000  0.16404
      23     H     0.42116  0.42116  0.00000  0.15768

   Total alpha = 36.00000, Total beta = 36.00000, Total charge =  0.00000
