  ==> Input File <==

--------------------------------------------------------------------------
set {
	reference rhf
	basis cc-pvtz
}

set_num_threads( 4 )
memory 2 gb

molecule MOL {
0 1

H	 1.166964	 -1.062386	 0.758429
O	 1.324748	 -0.612467	 -0.052206
C	 0.706474	 0.636793	 -0.025501
C	 1.017297	 1.463012	 1.190387
H	 -0.360455	 0.451922	 -0.067793
H	 0.956570	 1.212366	 -0.914808
C	 1.712516	 1.065830	 2.233087
H	 0.615800	 2.462795	 1.168396
H	 2.113946	 0.072646	 2.299497
H	 1.890971	 1.722562	 3.063098

	symmetry c1
}
set optking {
	frozen_dihedral = ("
		5 3 2 1
	")
}

ee = optimize('scf')
oeprop('DIPOLE', 'QUADRUPOLE', 'MULLIKEN_CHARGES')
f=open( 'psi4out.xyz', 'w' )
f.write( "10  " )
f.write( str(ee) + "\n" )
f.write( MOL.save_string_xyz() )
f.close()
--------------------------------------------------------------------------

    Molecular point group: c1
  Charge       = 0
  Multiplicity = 1
  Basis Set: CC-PVTZ
  Basis Set:
  @DF-RHF Final Energy:  -191.99597568133674
    Total Energy =                       -191.9959756813368017
    Molecular point group: c1
  Basis Set: CC-PVTZ
  Basis Set:
  Basis Set: CC-PVTZ
  Basis Set:
  @DF-RHF Final Energy:  -191.99800082248541
    Total Energy =                       -191.9980008224854089
  Basis Set: CC-PVTZ
  Basis Set:
  Basis Set: CC-PVTZ
  Basis Set:
  @DF-RHF Final Energy:  -191.99843149678455
    Total Energy =                       -191.9984314967846615
  Basis Set: CC-PVTZ
  Basis Set:
  Basis Set: CC-PVTZ
  Basis Set:
  @DF-RHF Final Energy:  -191.99857485901322
    Total Energy =                       -191.9985748590132744
  Basis Set: CC-PVTZ
  Basis Set:
  Basis Set: CC-PVTZ
  Basis Set:
  @DF-RHF Final Energy:  -191.99865514100159
    Total Energy =                       -191.9986551410016204
  Basis Set: CC-PVTZ
  Basis Set:
  Basis Set: CC-PVTZ
  Basis Set:
  @DF-RHF Final Energy:  -191.99865642049969
    Total Energy =                       -191.9986564204997990
  Basis Set: CC-PVTZ
  Basis Set:
  Charge       = 0
  Multiplicity = 1
  Basis Set: CC-PVTZ
  Basis Set:

    Orbital Energies (a.u.)
    -----------------------

    Doubly Occupied:

       1A    -20.554059     2A    -11.278103     3A    -11.232847
       4A    -11.219045     5A     -1.374749     6A     -1.063867
       7A     -0.933567     8A     -0.773974     9A     -0.690086
      10A     -0.666696    11A     -0.622882    12A     -0.574049
      13A     -0.545932    14A     -0.493064    15A     -0.454396
      16A     -0.370814

  @DF-RHF Final Energy:  -191.99865673980528

   => Energetics <=

    Nuclear Repulsion Energy =            119.5817861599004743
    One-Electron Energy =                -497.4646236450099082
    Two-Electron Energy =                 185.8841807453040929
    DFT Exchange-Correlation Energy =       0.0000000000000000
    Empirical Dispersion Energy =           0.0000000000000000
    PCM Polarization Energy =               0.0000000000000000
    EFP Energy =                            0.0000000000000000
    Total Energy =                       -191.9986567398053694
    Molecular point group: c1
  Basis Set: CC-PVTZ
  Basis Set:

  -Total Gradient:
     Atom            X                  Y                   Z
    ------   -----------------  -----------------  -----------------
       1        0.000984128216     0.000443414150     0.000622860017
       2       -0.001180119344    -0.000469401164    -0.001079973335
       3        0.000026604637    -0.000035218868     0.001501787438
       4       -0.000020040350    -0.000006692699     0.000046336762
       5        0.000183935926     0.000068942805    -0.001066999290
       6        0.000002354341    -0.000014523576    -0.000018694912
       7       -0.000016956652     0.000008874400     0.000007310166
       8        0.000003408314     0.000004295842    -0.000000345962
       9        0.000002119086    -0.000007408639    -0.000001459651
      10        0.000014565824     0.000007717752    -0.000010821236

  **** Optimization is complete! (in 7 steps) ****
    Final optimized geometry and variables:
    Molecular point group: c1

    Geometry (in Angstrom), charge = 0, multiplicity = 1:

    H           -0.185773263099    -1.673172883880    -0.054387930632
    O            0.097147958128    -1.209146664061    -0.822071726518
    C           -0.459729821665     0.068506614504    -0.830390714441
    C           -0.206742251992     0.875460889603     0.410928055399
    H           -1.531945568514     0.021511998662    -1.011967623643
    H           -0.029657425136     0.583328139024    -1.681877812607
    C            0.589113631528     0.538033421515     1.401643791690
    H           -0.740827577976     1.810122645498     0.454796605171
    H            1.155863157391    -0.373657410317     1.389676715775
    H            0.711625800971     1.175971395308     2.255972425724

  Mulliken Charges: (a.u.)
   Center  Symbol    Alpha    Beta     Spin     Total
       1     H     0.39093  0.39093  0.00000  0.21814
       2     O     4.19987  4.19987  0.00000 -0.39974
       3     C     2.94818  2.94818  0.00000  0.10364
       4     C     3.08432  3.08432  0.00000 -0.16864
       5     H     0.46898  0.46898  0.00000  0.06204
       6     H     0.45436  0.45436  0.00000  0.09128
       7     C     3.17663  3.17663  0.00000 -0.35326
       8     H     0.42289  0.42289  0.00000  0.15421
       9     H     0.42591  0.42591  0.00000  0.14818
      10     H     0.42793  0.42793  0.00000  0.14413

   Total alpha = 16.00000, Total beta = 16.00000, Total charge = -0.00000
