  ==> Input File <==

--------------------------------------------------------------------------
set {
	reference rhf
	basis cc-pvtz
}

set_num_threads( 4 )
memory 2 gb

molecule MOL {
0 1

O	 0.188339	 0.736379	 -1.657333
C	 0.254398	 -0.152094	 -0.877526
C	 1.409811	 -1.112660	 -0.750272
O	 -0.695554	 -0.422406	 0.000602
C	 2.531710	 -0.843464	 -1.740145
H	 1.009697	 -2.113488	 -0.869451
H	 1.763831	 -1.055093	 0.273101
H	 2.177858	 -0.918185	 -2.759666
H	 3.330287	 -1.562083	 -1.601547
H	 2.938860	 0.149843	 -1.606745
C	 -1.852370	 0.402254	 0.000718
C	 -3.063338	 -0.501097	 -0.000437
H	 -1.831732	 1.039442	 -0.872158
H	 -1.832493	 1.038301	 0.874430
H	 -3.071944	 -1.133732	 -0.879113
H	 -3.966302	 0.097976	 -0.000483
H	 -3.072764	 -1.134834	 0.877435

	symmetry c1
}
set optking {
	frozen_dihedral = ("
		2 4 11 13
	")
}

ee = optimize('scf')
oeprop('DIPOLE', 'QUADRUPOLE', 'MULLIKEN_CHARGES')
f=open( 'psi4out.xyz', 'w' )
f.write( "17  " )
f.write( str(ee) + "\n" )
f.write( MOL.save_string_xyz() )
f.close()
--------------------------------------------------------------------------

    Molecular point group: c1
  Charge       = 0
  Multiplicity = 1
  Basis Set: CC-PVTZ
  Basis Set:
  @DF-RHF Final Energy:  -345.03795184204876
    Total Energy =                       -345.0379518420488694
    Molecular point group: c1
  Basis Set: CC-PVTZ
  Basis Set:
  Basis Set: CC-PVTZ
  Basis Set:
  @DF-RHF Final Energy:  -345.03824607744872
    Total Energy =                       -345.0382460774490028
  Basis Set: CC-PVTZ
  Basis Set:
  Basis Set: CC-PVTZ
  Basis Set:
  @DF-RHF Final Energy:  -345.03865432430490
    Total Energy =                       -345.0386543243049573
  Basis Set: CC-PVTZ
  Basis Set:
  Basis Set: CC-PVTZ
  Basis Set:
  @DF-RHF Final Energy:  -345.03838296141976
    Total Energy =                       -345.0383829614200977
  Basis Set: CC-PVTZ
  Basis Set:
  Basis Set: CC-PVTZ
  Basis Set:
  @DF-RHF Final Energy:  -345.03868826374332
    Total Energy =                       -345.0386882637433814
  Basis Set: CC-PVTZ
  Basis Set:
  Charge       = 0
  Multiplicity = 1
  Basis Set: CC-PVTZ
  Basis Set:

    Orbital Energies (a.u.)
    -----------------------

    Doubly Occupied:

       1A    -20.592365     2A    -20.532324     3A    -11.364873
       4A    -11.281233     5A    -11.235350     6A    -11.220228
       7A    -11.213389     8A     -1.468007     9A     -1.365409
      10A     -1.070400    11A     -1.031696    12A     -0.913720
      13A     -0.849841    14A     -0.771190    15A     -0.702790
      16A     -0.685988    17A     -0.664554    18A     -0.628376
      19A     -0.594525    20A     -0.570531    21A     -0.556708
      22A     -0.530728    23A     -0.520945    24A     -0.515754
      25A     -0.498555    26A     -0.494825    27A     -0.451871
      28A     -0.439215

  @DF-RHF Final Energy:  -345.03868887247529

   => Energetics <=

    Nuclear Repulsion Energy =            315.5472791977680345
    One-Electron Energy =               -1095.6411596758607629
    Two-Electron Energy =                 435.0551916056170967
    DFT Exchange-Correlation Energy =       0.0000000000000000
    Empirical Dispersion Energy =           0.0000000000000000
    PCM Polarization Energy =               0.0000000000000000
    EFP Energy =                            0.0000000000000000
    Total Energy =                       -345.0386888724756318
    Molecular point group: c1
  Basis Set: CC-PVTZ
  Basis Set:

  -Total Gradient:
     Atom            X                  Y                   Z
    ------   -----------------  -----------------  -----------------
       1        0.000009537076    -0.000021198661     0.000019519080
       2       -0.000294882583    -0.000374360115    -0.000479114260
       3       -0.000017534449     0.000001724994     0.000017022011
       4        0.000489136348     0.000721074565     0.000783229324
       5       -0.000000588492     0.000004445550    -0.000006090384
       6       -0.000004187778     0.000007628888    -0.000003237508
       7       -0.000004141317     0.000003378623     0.000000339325
       8        0.000000344401     0.000000095741    -0.000000774479
       9        0.000000127407    -0.000000186558    -0.000000215610
      10        0.000000526122     0.000000422711    -0.000000145649
      11       -0.000545246742    -0.000898336333    -0.000721060743
      12       -0.000005280026     0.000013623061     0.000013818508
      13        0.000359833378     0.000543375794     0.000378774008
      14        0.000009685402    -0.000001101111     0.000000069456
      15        0.000010888795     0.000005683081     0.000000796224
      16       -0.000005483798    -0.000005316106    -0.000001288028
      17       -0.000002733748    -0.000000954123    -0.000001641278

  **** Optimization is complete! (in 6 steps) ****
    Final optimized geometry and variables:
    Molecular point group: c1

    Geometry (in Angstrom), charge = 0, multiplicity = 1:

    O            0.418101581056     1.015216006610    -0.955995954054
    C            0.451945205478     0.128598088888    -0.172590906710
    C            1.591428421928    -0.848644775981    -0.024167528289
    O           -0.511444004208    -0.135878190542     0.694469009857
    C            2.734489405589    -0.598071677331    -0.994474558467
    H            1.178890448412    -1.843755943211    -0.148005492816
    H            1.927953092796    -0.793674281407     1.005193659792
    H            2.397968276466    -0.670102413330    -2.020037933423
    H            3.519847731324    -1.327994653778    -0.840058668398
    H            3.153743165184     0.389455585595    -0.855937922033
    C           -1.690878300428     0.658861296048     0.714006433520
    C           -2.897159437103    -0.252765289539     0.751945031025
    H           -1.702775915206     1.305412998505    -0.146938820785
    H           -1.645230488300     1.275351024732     1.602352468034
    H           -2.950970458537    -0.857252768203    -0.145141049961
    H           -3.802390763950     0.339633836517     0.819466905618
    H           -2.855840368756    -0.913508674767     1.608703472410

  Mulliken Charges: (a.u.)
   Center  Symbol    Alpha    Beta     Spin     Total
       1     O     4.19807  4.19807  0.00000 -0.39615
       2     C     2.80144  2.80144  0.00000  0.39712
       3     C     3.09545  3.09545  0.00000 -0.19090
       4     O     4.15604  4.15604  0.00000 -0.31209
       5     C     3.14027  3.14027  0.00000 -0.28053
       6     H     0.44213  0.44213  0.00000  0.11575
       7     H     0.44156  0.44156  0.00000  0.11688
       8     H     0.44862  0.44862  0.00000  0.10276
       9     H     0.45065  0.45065  0.00000  0.09869
      10     H     0.44841  0.44841  0.00000  0.10319
      11     C     2.99055  2.99055  0.00000  0.01890
      12     C     3.13421  3.13421  0.00000 -0.26842
      13     H     0.44139  0.44139  0.00000  0.11722
      14     H     0.45388  0.45388  0.00000  0.09224
      15     H     0.45182  0.45182  0.00000  0.09636
      16     H     0.45409  0.45409  0.00000  0.09182
      17     H     0.45141  0.45141  0.00000  0.09718

   Total alpha = 28.00000, Total beta = 28.00000, Total charge =  0.00000
