  ==> Input File <==

--------------------------------------------------------------------------
set {
	reference rhf
	basis 6-31G*
}

set_num_threads( 4 )
memory 2 gb

molecule MOL {
0 1

H	 -0.353827	 2.294594	 0.785158
C	 0.452493	 1.582644	 0.967538
N	 0.538815	 0.649616	 0.000000
O	 1.156987	 1.658127	 1.930449
C	 1.521968	 -0.411503	 0.000000
H	 -0.111188	 0.699690	 -0.750514
H	 2.150599	 -0.357004	 -0.881901
H	 0.999455	 -1.354525	 0.000000
H	 2.150599	 -0.357004	 0.881901

	symmetry c1
}
set optking {
	frozen_dihedral = ("
		6 3 5 7
	")
}

ee = optimize('scf')
oeprop('DIPOLE', 'QUADRUPOLE', 'MULLIKEN_CHARGES')
f=open( 'psi4out.xyz', 'w' )
f.write( "9  " )
f.write( str(ee) + "\n" )
f.write( MOL.save_string_xyz() )
f.close()
--------------------------------------------------------------------------

    Molecular point group: c1
  Charge       = 0
  Multiplicity = 1
  Basis Set: 6-31G*
  Basis Set:
  @DF-RHF Final Energy:  -207.96040930277130
    Total Energy =                       -207.9604093027712111
    Molecular point group: c1
  Basis Set: 6-31G*
  Basis Set:
  Basis Set: 6-31G*
  Basis Set:
  @DF-RHF Final Energy:  -207.96089285077073
    Total Energy =                       -207.9608928507706764
  Basis Set: 6-31G*
  Basis Set:
  Basis Set: 6-31G*
  Basis Set:
  @DF-RHF Final Energy:  -207.96093915689730
    Total Energy =                       -207.9609391568973535
  Basis Set: 6-31G*
  Basis Set:
  Basis Set: 6-31G*
  Basis Set:
  @DF-RHF Final Energy:  -207.96093447799012
    Total Energy =                       -207.9609344779901221
  Basis Set: 6-31G*
  Basis Set:
  Basis Set: 6-31G*
  Basis Set:
  @DF-RHF Final Energy:  -207.96097036882549
    Total Energy =                       -207.9609703688254569
  Basis Set: 6-31G*
  Basis Set:
  Charge       = 0
  Multiplicity = 1
  Basis Set: 6-31G*
  Basis Set:

    Orbital Energies (a.u.)
    -----------------------

    Doubly Occupied:

       1A    -20.525185     2A    -15.591274     3A    -11.344444
       4A    -11.260126     5A     -1.388787     6A     -1.236696
       7A     -0.968855     8A     -0.807291     9A     -0.746550
      10A     -0.641691    11A     -0.626108    12A     -0.593581
      13A     -0.553815    14A     -0.537871    15A     -0.423558
      16A     -0.390302

  @DF-RHF Final Energy:  -207.96097055886119

   => Energetics <=

    Nuclear Repulsion Energy =            122.4477283404354750
    One-Electron Energy =                -525.5451310742839723
    Two-Electron Energy =                 195.1364321749872488
    DFT Exchange-Correlation Energy =       0.0000000000000000
    Empirical Dispersion Energy =           0.0000000000000000
    PCM Polarization Energy =               0.0000000000000000
    EFP Energy =                            0.0000000000000000
    Total Energy =                       -207.9609705588612769
    Molecular point group: c1
  Basis Set: 6-31G*
  Basis Set:

  -Total Gradient:
     Atom            X                  Y                   Z
    ------   -----------------  -----------------  -----------------
       1       -0.000003976897    -0.000009278740     0.000001501571
       2        0.000034293735     0.000017903413    -0.000027235206
       3       -0.000088458878    -0.000103288634     0.000072262898
       4        0.000001091222     0.000000272464     0.000007856400
       5        0.000056602506     0.000066661796     0.000006838563
       6        0.000043203203     0.000034462327    -0.000036877148
       7       -0.000015525073    -0.000020303005    -0.000021157983
       8       -0.000016324508     0.000009455839    -0.000005768266
       9       -0.000010905311     0.000004114538     0.000002579170

  **** Optimization is complete! (in 6 steps) ****
    Final optimized geometry and variables:
    Molecular point group: c1

    Geometry (in Angstrom), charge = 0, multiplicity = 1:

    H           -1.266375644773     1.448139341203     0.067551666238
    C           -0.467318755377     0.727855403992     0.249053121132
    N           -0.388225114187    -0.202623285027    -0.721567825328
    O            0.235477127231     0.792983989722     1.214049569198
    C            0.587683544729    -1.270111421596    -0.725807109032
    H           -1.032488864211    -0.140440887771    -1.476110584613
    H            1.222868302966    -1.210546554432    -1.602700237398
    H            0.101246245351    -2.239168679451    -0.711285835776
    H            1.198529863087    -1.171346191740     0.157041479971

  Mulliken Charges: (a.u.)
   Center  Symbol    Alpha    Beta     Spin     Total
       1     H     0.42760  0.42760  0.00000  0.14479
       2     C     2.74436  2.74436  0.00000  0.51129
       3     N     3.87513  3.87513  0.00000 -0.75026
       4     O     4.28474  4.28474  0.00000 -0.56948
       5     C     3.14493  3.14493  0.00000 -0.28987
       6     H     0.30956  0.30956  0.00000  0.38088
       7     H     0.41409  0.41409  0.00000  0.17182
       8     H     0.41397  0.41397  0.00000  0.17207
       9     H     0.38562  0.38562  0.00000  0.22877

   Total alpha = 16.00000, Total beta = 16.00000, Total charge =  0.00000
