  ==> Input File <==

--------------------------------------------------------------------------
set {
	reference rhf
	basis 6-31G*
}

set_num_threads( 4 )
memory 2 gb

molecule MOL {
0 1

H	 -2.726760	 2.735984	 -1.528421
C	 -3.304712	 2.189063	 -0.773126
C	 -2.660244	 0.921717	 -0.272021
O	 -4.356635	 2.604925	 -0.409441
C	 -1.220012	 1.144545	 0.209990
H	 -3.283507	 0.507942	 0.512225
H	 -2.655017	 0.215867	 -1.101722
C	 -0.252658	 0.041456	 -0.226725
H	 -0.873521	 2.100229	 -0.171974
H	 -1.211708	 1.231594	 1.295398
C	 1.180775	 0.282413	 0.250794
H	 -0.266029	 -0.034465	 -1.312038
H	 -0.597733	 -0.921000	 0.146291
C	 2.148627	 -0.814315	 -0.201312
H	 1.516199	 1.249228	 -0.115937
H	 1.192670	 0.346017	 1.338083
C	 3.580890	 -0.659131	 0.322722
H	 2.166869	 -0.852443	 -1.289387
H	 1.762857	 -1.776509	 0.128956
C	 4.324889	 0.564933	 -0.213704
H	 4.142010	 -1.551473	 0.056605
H	 3.564836	 -0.624694	 1.410140
H	 4.342616	 0.565491	 -1.300421
H	 3.866655	 1.493402	 0.110242
H	 5.353900	 0.572371	 0.132816

	symmetry c1
}
set optking {
	frozen_dihedral = ("
		6 3 5 8
	")
}

ee = optimize('scf')
oeprop('DIPOLE', 'QUADRUPOLE', 'MULLIKEN_CHARGES')
f=open( 'psi4out.xyz', 'w' )
f.write( "25  " )
f.write( str(ee) + "\n" )
f.write( MOL.save_string_xyz() )
f.close()
--------------------------------------------------------------------------

    Molecular point group: c1
  Charge       = 0
  Multiplicity = 1
  Basis Set: 6-31G*
  Basis Set:
  @DF-RHF Final Energy:  -387.11863404160516
    Total Energy =                       -387.1186340416054463
    Molecular point group: c1
  Basis Set: 6-31G*
  Basis Set:
  Basis Set: 6-31G*
  Basis Set:
  @DF-RHF Final Energy:  -387.11875757900901
    Total Energy =                       -387.1187575790090705
  Basis Set: 6-31G*
  Basis Set:
  Basis Set: 6-31G*
  Basis Set:
  @DF-RHF Final Energy:  -387.11878056535068
    Total Energy =                       -387.1187805653509031
  Basis Set: 6-31G*
  Basis Set:
  Basis Set: 6-31G*
  Basis Set:
  @DF-RHF Final Energy:  -387.11890381353828
    Total Energy =                       -387.1189038135382816
  Basis Set: 6-31G*
  Basis Set:
  Basis Set: 6-31G*
  Basis Set:
  @DF-RHF Final Energy:  -387.11894408864345
    Total Energy =                       -387.1189440886437296
  Basis Set: 6-31G*
  Basis Set:
  Basis Set: 6-31G*
  Basis Set:
  @DF-RHF Final Energy:  -387.11895848538302
    Total Energy =                       -387.1189584853826773
  Basis Set: 6-31G*
  Basis Set:
  Charge       = 0
  Multiplicity = 1
  Basis Set: 6-31G*
  Basis Set:

    Orbital Energies (a.u.)
    -----------------------

    Doubly Occupied:

       1A    -20.561965     2A    -11.326262     3A    -11.235684
       4A    -11.234573     5A    -11.226884     6A    -11.221312
       7A    -11.219869     8A    -11.219241     9A    -11.212080
      10A     -1.402175    11A     -1.104288    12A     -1.070058
      13A     -1.015039    14A     -0.945069    15A     -0.875783
      16A     -0.815251    17A     -0.794619    18A     -0.782526
      19A     -0.672643    20A     -0.660046    21A     -0.633150
      22A     -0.621761    23A     -0.604975    24A     -0.595201
      25A     -0.572440    26A     -0.553871    27A     -0.538576
      28A     -0.521675    29A     -0.511325    30A     -0.498257
      31A     -0.485580    32A     -0.478507    33A     -0.466693
      34A     -0.460707    35A     -0.450681    36A     -0.407438

  @DF-RHF Final Energy:  -387.11895932470776

   => Energetics <=

    Nuclear Repulsion Energy =            431.7233940922580473
    One-Electron Energy =               -1379.6922948496630852
    Two-Electron Energy =                 560.8499414326977330
    DFT Exchange-Correlation Energy =       0.0000000000000000
    Empirical Dispersion Energy =           0.0000000000000000
    PCM Polarization Energy =               0.0000000000000000
    EFP Energy =                            0.0000000000000000
    Total Energy =                       -387.1189593247072480
    Molecular point group: c1
  Basis Set: 6-31G*
  Basis Set:

  -Total Gradient:
     Atom            X                  Y                   Z
    ------   -----------------  -----------------  -----------------
       1       -0.000014718284    -0.000011324455    -0.000006976062
       2        0.000012015219     0.000060533391     0.000004708438
       3        0.001300009589    -0.003507412975    -0.001964281175
       4       -0.000016428834    -0.000032580782    -0.000021502430
       5       -0.000871291455    -0.000851676046     0.003087060785
       6       -0.000870994000     0.003181464711     0.000937362001
       7       -0.000003566510    -0.000000459512     0.000020461636
       8        0.000468138910     0.001213457078    -0.002118253603
       9       -0.000012275722    -0.000025670048     0.000007529735
      10        0.000003084316    -0.000019954574     0.000042994798
      11        0.000004062722    -0.000013769991    -0.000004705302
      12       -0.000021802253     0.000005033985    -0.000002253735
      13        0.000025882021     0.000008484746    -0.000009537310
      14       -0.000004139472    -0.000004604692     0.000019216947
      15       -0.000011266436    -0.000006806589    -0.000009411066
      16        0.000014062637     0.000008893303     0.000005001362
      17       -0.000001277455     0.000000134213     0.000011962840
      18       -0.000006750500     0.000010735458     0.000005760870
      19        0.000000648612    -0.000010537621    -0.000005408717
      20       -0.000002610394    -0.000003493300    -0.000000061673
      21        0.000004001569    -0.000000556734     0.000001794138
      22        0.000001017468     0.000001783587    -0.000000934120
      23       -0.000003861945     0.000001477520    -0.000000808680
      24        0.000005371440    -0.000000354130     0.000000891730
      25        0.000002688762    -0.000002796550    -0.000000611405

  **** Optimization is complete! (in 7 steps) ****
    Final optimized geometry and variables:
    Molecular point group: c1

    Geometry (in Angstrom), charge = 0, multiplicity = 1:

    H           -2.739123999341     2.017308682932    -1.382804397966
    C           -3.279425619470     1.466444173575    -0.603111429997
    C           -2.603366395893     0.204161662975    -0.126511654831
    O           -4.320043858108     1.871286893138    -0.197785260376
    C           -1.147780342858     0.456018426527     0.320195999404
    H           -3.209384765681    -0.193062819969     0.678249488984
    H           -2.624806092467    -0.502437670077    -0.954121696024
    C           -0.180096758347    -0.650066736143    -0.106668507188
    H           -0.793556578721     1.396909596509    -0.098534914834
    H           -1.120783586208     0.581305746832     1.398022755668
    C            1.251737635690    -0.415882840611     0.377366012081
    H           -0.188060632508    -0.726628846766    -1.192416545778
    H           -0.537005498920    -1.607313467301     0.269223400220
    C            2.216268150539    -1.519183934459    -0.066171491303
    H            1.595135421389     0.548489850301     0.011416371749
    H            1.256925400415    -0.350648806855     1.464263349107
    C            3.643862510658    -1.376169690409     0.473768316463
    H            2.246952453160    -1.554736796818    -1.154098417665
    H            1.819601903859    -2.479315166013     0.257382453561
    C            4.401727506626    -0.154314917282    -0.048630096009
    H            4.201807074354    -2.271219868963     0.210181134804
    H            3.615441253959    -1.346393320651     1.561072494782
    H            4.434390131742    -0.150406767936    -1.134908715037
    H            3.944644611743     0.775864904275     0.272250409826
    H            5.425843010035    -0.153787108791     0.311492441592

  Mulliken Charges: (a.u.)
   Center  Symbol    Alpha    Beta     Spin     Total
       1     H     0.43234  0.43234  0.00000  0.13531
       2     C     2.83208  2.83208  0.00000  0.33584
       3     C     3.20899  3.20899  0.00000 -0.41798
       4     O     4.23748  4.23748  0.00000 -0.47496
       5     C     3.16645  3.16645  0.00000 -0.33290
       6     H     0.39743  0.39743  0.00000  0.20515
       7     H     0.40683  0.40683  0.00000  0.18634
       8     C     3.15344  3.15344  0.00000 -0.30689
       9     H     0.41847  0.41847  0.00000  0.16306
      10     H     0.41008  0.41008  0.00000  0.17984
      11     C     3.15521  3.15521  0.00000 -0.31041
      12     H     0.42231  0.42231  0.00000  0.15538
      13     H     0.41989  0.41989  0.00000  0.16021
      14     C     3.15295  3.15295  0.00000 -0.30590
      15     H     0.42068  0.42068  0.00000  0.15865
      16     H     0.42228  0.42228  0.00000  0.15544
      17     C     3.15268  3.15268  0.00000 -0.30536
      18     H     0.42388  0.42388  0.00000  0.15224
      19     H     0.42158  0.42158  0.00000  0.15684
      20     C     3.24149  3.24149  0.00000 -0.48298
      21     H     0.42012  0.42012  0.00000  0.15976
      22     H     0.42273  0.42273  0.00000  0.15454
      23     H     0.42214  0.42214  0.00000  0.15572
      24     H     0.42016  0.42016  0.00000  0.15967
      25     H     0.41830  0.41830  0.00000  0.16340

   Total alpha = 36.00000, Total beta = 36.00000, Total charge =  0.00000
