                              Psi4 1.0.54 Driver

  ==> Input File <==

--------------------------------------------------------------------------
set {
	reference rhf
	basis cc-pvtz
}

set_num_threads( 4 )
memory 2 gb

molecule MOL {
0 1

O	 -0.192508	 -4.588988	 -2.122355
C	 0.222841	 -3.640129	 -2.704233
C	 0.279053	 -2.278544	 -2.040174
C	 0.732417	 -3.741334	 -4.122280
C	 1.551197	 -2.129719	 -1.196170
H	 -0.591907	 -2.188297	 -1.403468
H	 0.238341	 -1.493365	 -2.787638
C	 1.630207	 -0.772146	 -0.501001
H	 1.571146	 -2.930611	 -0.467882
H	 2.427061	 -2.258523	 -1.827495
C	 2.907848	 -0.545876	 0.309149
H	 0.767255	 -0.653934	 0.149628
H	 1.554193	 0.009451	 -1.251955
C	 3.373802	 0.906639	 0.372125
H	 3.699140	 -1.146831	 -0.127906
H	 2.764321	 -0.923458	 1.318191
H	 3.519798	 1.311927	 -0.623875
H	 4.316899	 0.983758	 0.900700
H	 2.661122	 1.540651	 0.885346
H	 0.061725	 -3.199922	 -4.781858
H	 0.780600	 -4.775336	 -4.427381
H	 1.709996	 -3.280964	 -4.211662

	symmetry c1
}
set optking {
	frozen_dihedral = ("
		12 8 11 15
	")
}

ee,wfn = optimize('scf', return_wfn=True)
oeprop( wfn, 'DIPOLE', 'QUADRUPOLE', 'MULLIKEN_CHARGES')
f=open( 'psi4out.xyz', 'w' )
f.write( "22  " )
f.write( str(ee) + "\n" )
f.write( MOL.save_string_xyz() )
f.close()
--------------------------------------------------------------------------

    Molecular point group: c1
  Charge       = 0
  Multiplicity = 1
  Basis Set: CC-PVTZ
  Basis Set:
  @DF-RHF Final Energy:  -348.22183523381187
    Total Energy =                       -348.2218352338113618
    Molecular point group: c1
  Basis Set: CC-PVTZ
  Basis Set:
  Basis Set: CC-PVTZ
  Basis Set:
  @DF-RHF Final Energy:  -348.22080854119207
    Total Energy =                       -348.2208085411919569
  Basis Set: CC-PVTZ
  Basis Set:
  Basis Set: CC-PVTZ
  Basis Set:
  @DF-RHF Final Energy:  -348.22260061801853
    Total Energy =                       -348.2226006180182480
  Basis Set: CC-PVTZ
  Basis Set:
  Basis Set: CC-PVTZ
  Basis Set:
  @DF-RHF Final Energy:  -348.22258155839631
    Total Energy =                       -348.2225815583965414
  Basis Set: CC-PVTZ
  Basis Set:
  @DF-RHF Final Energy:  -348.22247352798229
    Total Energy =                       -348.2224735279820607
  Basis Set: CC-PVTZ
  Basis Set:
  @DF-RHF Final Energy:  -348.22262384325984
    Total Energy =                       -348.2226238432596119
  Basis Set: CC-PVTZ
  Basis Set:
  Basis Set: CC-PVTZ
  Basis Set:
  @DF-RHF Final Energy:  -348.22261463285668
    Total Energy =                       -348.2226146328569030
  Basis Set: CC-PVTZ
  Basis Set:
  Basis Set: CC-PVTZ
  Basis Set:
  @DF-RHF Final Energy:  -348.22263795676093
    Total Energy =                       -348.2226379567609342
  Basis Set: CC-PVTZ
  Basis Set:
  Charge       = 0
  Multiplicity = 1
  Basis Set: CC-PVTZ
  Basis Set:

    Orbital Energies (a.u.)
    -----------------------

    Doubly Occupied:

       1A    -20.536697     2A    -11.319240     3A    -11.228489
       4A    -11.227476     5A    -11.226842     6A    -11.220471
       7A    -11.218619     8A    -11.211559     9A     -1.396830
      10A     -1.097134    11A     -1.046625    12A     -1.001629
      13A     -0.940345    14A     -0.846619    15A     -0.799688
      16A     -0.733855    17A     -0.665874    18A     -0.649787
      19A     -0.632003    20A     -0.611277    21A     -0.593606
      22A     -0.588167    23A     -0.562496    24A     -0.551072
      25A     -0.534757    26A     -0.514855    27A     -0.498891
      28A     -0.489571    29A     -0.475188    30A     -0.467203
      31A     -0.461743    32A     -0.398303

  @DF-RHF Final Energy:  -348.22263828669912

   => Energetics <=

    Nuclear Repulsion Energy =            369.3858151185974634
    One-Electron Energy =               -1203.7230793758265008
    Two-Electron Energy =                 486.1146259705299144
    DFT Exchange-Correlation Energy =       0.0000000000000000
    Empirical Dispersion Energy =           0.0000000000000000
    PCM Polarization Energy =               0.0000000000000000
    EFP Energy =                            0.0000000000000000
    Total Energy =                       -348.2226382866990662
    Molecular point group: c1
  Basis Set: CC-PVTZ
  Basis Set:

  -Total Gradient:
     Atom            X                  Y                   Z
    ------   -----------------  -----------------  -----------------
       1        0.000022706367     0.000015252153    -0.000008179179
       2       -0.000012284947    -0.000012761914    -0.000012111714
       3       -0.000003764354     0.000000019097    -0.000001654693
       4       -0.000027959385    -0.000013620332     0.000006221195
       5       -0.000008430950    -0.000005733585    -0.000000855746
       6       -0.000003588873    -0.000004724945    -0.000011167750
       7        0.000006237836    -0.000002142642     0.000020055821
       8       -0.000706702352     0.004316858896    -0.000385010566
       9       -0.000002825313     0.000009613057    -0.000004520897
      10       -0.000002934632    -0.000000852943    -0.000008709257
      11        0.000939851789     0.003228652343    -0.002876719482
      12        0.000465745984    -0.004153463845     0.000773852184
      13        0.000009629143    -0.000003275033     0.000007657941
      14        0.000030827575     0.000012840737    -0.000010711041
      15       -0.000714147304    -0.003377354347     0.002506957864
      16        0.000001280317    -0.000005445746    -0.000011818197
      17       -0.000016693383    -0.000003072049     0.000030737216
      18       -0.000014756148     0.000011737222    -0.000018114137
      19        0.000021908579    -0.000020735670    -0.000010674098
      20        0.000012266167     0.000001587175     0.000002160905
      21        0.000001193404     0.000008413661     0.000004306008
      22        0.000002440478    -0.000001791297     0.000008297621

  **** Optimization is complete! (in 9 steps) ****
    Final optimized geometry and variables:
    Molecular point group: c1

    Geometry (in Angstrom), charge = 0, multiplicity = 1:

    O           -1.287895319980    -2.640055656253    -0.453958204758
    C           -1.047707208300    -1.664041276727    -1.087147703036
    C           -1.074104849706    -0.290361808100    -0.446966398141
    C           -0.688292542269    -1.739484548239    -2.552010852802
    C            0.264842735605     0.029506535890     0.228514782933
    H           -1.864802079697    -0.288762556596     0.292300374162
    H           -1.300443825610     0.466494568833    -1.190770067035
    C            0.277367309002     1.405565369947     0.891800028738
    H            0.470903855054    -0.735735686439     0.969347369242
    H            1.067180705493    -0.022049859386    -0.502715475476
    C            1.582286002558     1.689899828863     1.644638461155
    H           -0.554855190511     1.445533273590     1.588320757499
    H            0.105240356048     2.168846076361     0.138438315545
    C            1.901790290626     3.173858366540     1.776541803983
    H            2.403873029867     1.166336478742     1.164602485725
    H            1.514101497755     1.250979272684     2.635955029978
    H            2.042741471934     3.631666203734     0.803195735410
    H            2.806472407804     3.332051239411     2.351965745229
    H            1.096249222178     3.702915980763     2.275139600655
    H           -1.487324016498    -1.296401880828    -3.137838984224
    H           -0.552249588162    -2.768014312691    -2.848885542016
    H            0.211877888203    -1.170863391676    -2.756423246055

  Mulliken Charges: (a.u.)
   Center  Symbol    Alpha    Beta     Spin     Total
       1     O     4.17785  4.17785  0.00000 -0.35570
       2     C     2.85830  2.85830  0.00000  0.28340
       3     C     3.09900  3.09900  0.00000 -0.19801
       4     C     3.15522  3.15522  0.00000 -0.31044
       5     C     3.10133  3.10133  0.00000 -0.20265
       6     H     0.43895  0.43895  0.00000  0.12209
       7     H     0.44913  0.44913  0.00000  0.10174
       8     C     3.08919  3.08919  0.00000 -0.17837
       9     H     0.44036  0.44036  0.00000  0.11928
      10     H     0.45224  0.45224  0.00000  0.09553
      11     C     3.08624  3.08624  0.00000 -0.17247
      12     H     0.45089  0.45089  0.00000  0.09822
      13     H     0.45436  0.45436  0.00000  0.09128
      14     C     3.14858  3.14858  0.00000 -0.29716
      15     H     0.45433  0.45433  0.00000  0.09135
      16     H     0.45117  0.45117  0.00000  0.09766
      17     H     0.45584  0.45584  0.00000  0.08833
      18     H     0.44788  0.44788  0.00000  0.10423
      19     H     0.45386  0.45386  0.00000  0.09227
      20     H     0.44834  0.44834  0.00000  0.10332
      21     H     0.43604  0.43604  0.00000  0.12793
      22     H     0.45091  0.45091  0.00000  0.09818

   Total alpha = 32.00000, Total beta = 32.00000, Total charge = -0.00000

*** Psi4 exiting successfully. Buy a developer a beer!
