                              Psi4 1.0.54 Driver

  ==> Input File <==

--------------------------------------------------------------------------
set {
	reference rhf
	basis cc-pvtz
}

set_num_threads( 4 )
memory 2 gb

molecule MOL {
0 1

O	 -2.081319	 -0.951530	 -0.502732
N	 -1.613558	 0.006676	 0.014756
C	 -0.329345	 -0.171618	 0.743966
O	 -2.068523	 1.100482	 -0.024385
C	 0.835904	 0.041968	 -0.213982
H	 -0.346048	 -1.174374	 1.137184
H	 -0.333613	 0.555559	 1.538590
C	 2.177039	 -0.130175	 0.494460
H	 0.754456	 -0.665923	 -1.030569
H	 0.765464	 1.037260	 -0.637266
C	 2.015211	 -0.491547	 1.966771
H	 2.751133	 0.787682	 0.408482
H	 2.753127	 -0.902797	 -0.006125
H	 1.471341	 0.279571	 2.500889
H	 1.471348	 -1.422339	 2.083200
H	 2.980000	 -0.608885	 2.444867

	symmetry c1
}
set optking {
	frozen_dihedral = ("
		11 8 5 9
	")
}

ee,wfn = optimize('scf', return_wfn=True)
oeprop( wfn, 'DIPOLE', 'QUADRUPOLE', 'MULLIKEN_CHARGES')
f=open( 'psi4out.xyz', 'w' )
f.write( "16  " )
f.write( str(ee) + "\n" )
f.write( MOL.save_string_xyz() )
f.close()
--------------------------------------------------------------------------

    Molecular point group: c1
  Charge       = 0
  Multiplicity = 1
  Basis Set: CC-PVTZ
  Basis Set:
  @DF-RHF Final Energy:  -360.89500462193354
    Total Energy =                       -360.8950046219333672
    Molecular point group: c1
  Basis Set: CC-PVTZ
  Basis Set:
  Basis Set: CC-PVTZ
  Basis Set:
  @DF-RHF Final Energy:  -360.65278827691060
    Total Energy =                       -360.6527882769105418
  Basis Set: CC-PVTZ
  Basis Set:
  Basis Set: CC-PVTZ
  Basis Set:
  @DF-RHF Final Energy:  -360.80775715453882
    Total Energy =                       -360.8077571545390470
  Basis Set: CC-PVTZ
  Basis Set:
  Basis Set: CC-PVTZ
  Basis Set:
  @DF-RHF Final Energy:  -360.88934224456358
    Total Energy =                       -360.8893422445636361
  Basis Set: CC-PVTZ
  Basis Set:
  @DF-RHF Final Energy:  -360.89771924013274
    Total Energy =                       -360.8977192401325738
  @DF-RHF Final Energy:  -360.89802825013612
    Total Energy =                       -360.8980282501363490
  @DF-RHF Final Energy:  -360.89857477718505
    Total Energy =                       -360.8985747771848764
  Basis Set: CC-PVTZ
  Basis Set:
  @DF-RHF Final Energy:  -360.89970134819572
    Total Energy =                       -360.8997013481957765
  Basis Set: CC-PVTZ
  Basis Set:
  Basis Set: CC-PVTZ
  Basis Set:
  @DF-RHF Final Energy:  -360.89978034389435
    Total Energy =                       -360.8997803438944629
  Basis Set: CC-PVTZ
  Basis Set:
  Basis Set: CC-PVTZ
  Basis Set:
  @DF-RHF Final Energy:  -360.89978345035701
    Total Energy =                       -360.8997834503571198
  Basis Set: CC-PVTZ
  Basis Set:
  Charge       = 0
  Multiplicity = 1
  Basis Set: CC-PVTZ
  Basis Set:

    Orbital Energies (a.u.)
    -----------------------

    Doubly Occupied:

       1A    -20.589263     2A    -20.589199     3A    -15.835627
       4A    -11.295642     5A    -11.250765     6A    -11.241979
       7A    -11.230404     8A     -1.634738     9A     -1.419015
      10A     -1.134106    11A     -1.055520    12A     -0.952822
      13A     -0.857718    14A     -0.815008    15A     -0.760911
      16A     -0.737451    17A     -0.720388    18A     -0.676341
      19A     -0.614187    20A     -0.609262    21A     -0.576263
      22A     -0.558329    23A     -0.509692    24A     -0.501758
      25A     -0.490453    26A     -0.480583    27A     -0.471755
      28A     -0.450903

  @DF-RHF Final Energy:  -360.89978364971256

   => Energetics <=

    Nuclear Repulsion Energy =            316.7078451799471281
    One-Electron Energy =               -1119.0950961723963246
    Two-Electron Energy =                 441.4874673427366361
    DFT Exchange-Correlation Energy =       0.0000000000000000
    Empirical Dispersion Energy =           0.0000000000000000
    PCM Polarization Energy =               0.0000000000000000
    EFP Energy =                            0.0000000000000000
    Total Energy =                       -360.8997836497126173
    Molecular point group: c1
  Basis Set: CC-PVTZ
  Basis Set:

  -Total Gradient:
     Atom            X                  Y                   Z
    ------   -----------------  -----------------  -----------------
       1       -0.000017419948     0.000015639355    -0.000002030672
       2        0.000006191798     0.000009666645    -0.000024376724
       3        0.000019544524     0.000012633068     0.000006019447
       4        0.000000917852    -0.000031682262     0.000007310581
       5       -0.000319618026    -0.000267869170     0.000532222374
       6       -0.000006910392     0.000007958808    -0.000013683543
       7        0.000009075474    -0.000004932068     0.000005833267
       8        0.000296664683    -0.000513063236    -0.000048368072
       9        0.000166388767     0.000369005552    -0.000441164717
      10       -0.000002366728    -0.000014257092     0.000002260988
      11       -0.000157055051     0.000411787138    -0.000039313771
      12        0.000006583681    -0.000014584301     0.000010352593
      13       -0.000007247542     0.000012266599     0.000008217408
      14       -0.000001443209    -0.000008423650    -0.000006668006
      15        0.000013414335     0.000015847890     0.000000787555
      16       -0.000006720217     0.000000006724     0.000002601290

  **** Optimization is complete! (in 11 steps) ****
    Final optimized geometry and variables:
    Molecular point group: c1

    Geometry (in Angstrom), charge = 0, multiplicity = 1:

    O           -1.263875013307    -1.694523102268    -0.850011373387
    N           -1.276668597696    -0.539642307508    -0.583281118057
    C           -0.265090544889    -0.054342636754     0.394928811588
    O           -2.011361925668     0.265225884155    -1.049600513630
    C            0.995811953620     0.345210213951    -0.367289201497
    H           -0.096634978068    -0.873194553970     1.071993972293
    H           -0.722670906748     0.778026123630     0.900188322859
    C            2.155973334297     0.880150958418     0.513053855080
    H            1.331036370536    -0.516923807618    -0.928565752075
    H            0.715410146133     1.097288176965    -1.092950493652
    C            1.933238949891     0.908438678803     2.025240367914
    H            2.393465475885     1.885815712979     0.188793930150
    H            3.038667904871     0.286497017170     0.310500564714
    H            1.099682846420     1.542347215523     2.304038526292
    H            1.754946218702    -0.080498099728     2.431274971381
    H            2.814839849309     1.302864714935     2.515122714327

  Mulliken Charges: (a.u.)
   Center  Symbol    Alpha    Beta     Spin     Total
       1     O     4.17428  4.17428  0.00000 -0.34856
       2     N     3.27330  3.27330  0.00000  0.45340
       3     C     3.04409  3.04409  0.00000 -0.08819
       4     O     4.17426  4.17426  0.00000 -0.34852
       5     C     3.11394  3.11394  0.00000 -0.22788
       6     H     0.43247  0.43247  0.00000  0.13505
       7     H     0.43230  0.43230  0.00000  0.13540
       8     C     3.09156  3.09156  0.00000 -0.18312
       9     H     0.43472  0.43472  0.00000  0.13055
      10     H     0.43476  0.43476  0.00000  0.13049
      11     C     3.15950  3.15950  0.00000 -0.31901
      12     H     0.44584  0.44584  0.00000  0.10832
      13     H     0.44553  0.44553  0.00000  0.10894
      14     H     0.45241  0.45241  0.00000  0.09518
      15     H     0.45185  0.45185  0.00000  0.09631
      16     H     0.43919  0.43919  0.00000  0.12162

   Total alpha = 28.00000, Total beta = 28.00000, Total charge = -0.00000

*** Psi4 exiting successfully. Buy a developer a beer!
