                              Psi4 1.0.54 Driver

  ==> Input File <==

--------------------------------------------------------------------------
set {
	reference rhf
	basis cc-pvtz
}

set_num_threads( 4 )
memory 2 gb

molecule MOL {
0 1

H	 3.889604	 0.356866	 -0.089510
N	 3.091268	 -0.241216	 -0.065538
C	 1.860978	 0.530248	 0.016256
H	 3.192566	 -0.835836	 0.730398
C	 0.644130	 -0.381765	 -0.031064
H	 1.835721	 1.204666	 -0.833114
H	 1.808789	 1.151975	 0.911067
C	 -0.678115	 0.376691	 0.025731
H	 0.693998	 -0.977147	 -0.936845
H	 0.693309	 -1.082142	 0.800523
C	 -0.633231	 1.602497	 0.933799
H	 -1.462396	 -0.293373	 0.370508
H	 -0.962985	 0.686446	 -0.977151
C	 -1.958757	 2.354270	 0.992881
H	 -0.348328	 1.295245	 1.936155
H	 0.147173	 2.275522	 0.589156
H	 -2.753490	 1.717516	 1.367293
H	 -1.892432	 3.217435	 1.645225
H	 -2.254220	 2.705124	 0.009550

	symmetry c1
}
set optking {
	frozen_dihedral = ("
		12 8 5 9
	")
}

ee,wfn = optimize('scf', return_wfn=True)
oeprop( wfn, 'DIPOLE', 'QUADRUPOLE', 'MULLIKEN_CHARGES')
f=open( 'psi4out.xyz', 'w' )
f.write( "19  " )
f.write( str(ee) + "\n" )
f.write( MOL.save_string_xyz() )
f.close()
--------------------------------------------------------------------------

    Molecular point group: c1
  Charge       = 0
  Multiplicity = 1
  Basis Set: CC-PVTZ
  Basis Set:
  @DF-RHF Final Energy:  -251.44065834727846
    Total Energy =                       -251.4406583472784860
    Molecular point group: c1
  Basis Set: CC-PVTZ
  Basis Set:
  Basis Set: CC-PVTZ
  Basis Set:
  @DF-RHF Final Energy:  -251.43759325607999
    Total Energy =                       -251.4375932560804472
  Basis Set: CC-PVTZ
  Basis Set:
  Basis Set: CC-PVTZ
  Basis Set:
  @DF-RHF Final Energy:  -251.44297619281596
    Total Energy =                       -251.4429761928158769
  Basis Set: CC-PVTZ
  Basis Set:
  Basis Set: CC-PVTZ
  Basis Set:
  @DF-RHF Final Energy:  -251.44331741450515
    Total Energy =                       -251.4433174145049747
  Basis Set: CC-PVTZ
  Basis Set:
  Basis Set: CC-PVTZ
  Basis Set:
  @DF-RHF Final Energy:  -251.44334406107455
    Total Energy =                       -251.4433440610746402
  Basis Set: CC-PVTZ
  Basis Set:
  Basis Set: CC-PVTZ
  Basis Set:
  @DF-RHF Final Energy:  -251.44335846759071
    Total Energy =                       -251.4433584675909970
  Basis Set: CC-PVTZ
  Basis Set:
  Basis Set: CC-PVTZ
  Basis Set:
  @DF-RHF Final Energy:  -251.44336238995427
    Total Energy =                       -251.4433623899541317
  Basis Set: CC-PVTZ
  Basis Set:
  Charge       = 0
  Multiplicity = 1
  Basis Set: CC-PVTZ
  Basis Set:

    Orbital Energies (a.u.)
    -----------------------

    Doubly Occupied:

       1A    -15.525961     2A    -11.237005     3A    -11.212492
       4A    -11.211220     5A    -11.208384     6A    -11.205972
       7A     -1.177764     8A     -1.073059     9A     -0.996814
      10A     -0.899735    11A     -0.833585    12A     -0.771308
      13A     -0.657071    14A     -0.644195    15A     -0.628018
      16A     -0.586415    17A     -0.571706    18A     -0.544072
      19A     -0.529657    20A     -0.505706    21A     -0.487203
      22A     -0.461536    23A     -0.454919    24A     -0.449266
      25A     -0.383094

  @DF-RHF Final Energy:  -251.44336257944835

   => Energetics <=

    Nuclear Repulsion Energy =            249.9697680385841920
    One-Electron Energy =                -834.3139450736937306
    Two-Electron Energy =                 332.9008144556610773
    DFT Exchange-Correlation Energy =       0.0000000000000000
    Empirical Dispersion Energy =           0.0000000000000000
    PCM Polarization Energy =               0.0000000000000000
    EFP Energy =                            0.0000000000000000
    Total Energy =                       -251.4433625794484328
    Molecular point group: c1
  Basis Set: CC-PVTZ
  Basis Set:

  -Total Gradient:
     Atom            X                  Y                   Z
    ------   -----------------  -----------------  -----------------
       1        0.000003160213    -0.000002504648    -0.000000724984
       2        0.000006760611    -0.000003112377     0.000022433528
       3        0.000000523645     0.000012853554    -0.000063970701
       4        0.000013147444    -0.000008072087     0.000000251877
       5       -0.002272789100    -0.005025991994     0.004217945097
       6        0.000000707605     0.000010999468     0.000006046180
       7       -0.000009502441    -0.000018934989    -0.000008887528
       8       -0.001095550783    -0.000426689127    -0.006729998694
       9        0.002085476101     0.004315649345    -0.002501805741
      10       -0.000010226265    -0.000009893818     0.000001460578
      11        0.000007997651     0.000014085928    -0.000000727147
      12        0.001285243241     0.001165037337     0.005066224745
      13        0.000005888251     0.000001851285     0.000002453519
      14       -0.000015905973    -0.000010602879    -0.000003695498
      15       -0.000003331021     0.000003037483    -0.000015938113
      16       -0.000013134773    -0.000018188849     0.000004707095
      17        0.000004096710     0.000010778067    -0.000006833901
      18        0.000001927488    -0.000005874427    -0.000002227089
      19        0.000005511396    -0.000004427271     0.000013286779

  **** Optimization is complete! (in 8 steps) ****
    Final optimized geometry and variables:
    Molecular point group: c1

    Geometry (in Angstrom), charge = 0, multiplicity = 1:

    H            3.479096106394    -0.353750853689    -0.845550330832
    N            2.662805587434    -0.925085144435    -0.789023971125
    C            1.494796977899    -0.132763704242    -0.431813652173
    H            2.842098257075    -1.623959416900    -0.098143799549
    C            0.254977321289    -1.020242887190    -0.379578357901
    H            1.362772614165     0.624916594492    -1.197947933621
    H            1.621361832124     0.392494088927     0.512334011994
    C           -1.078138060109    -0.277840353226    -0.209964653495
    H            0.239296884535    -1.559970431488    -1.319472790705
    H            0.377159267049    -1.748943434936     0.417515191550
    C           -1.074169833037     0.878075921881     0.793127579455
    H           -1.817699910840    -0.991211878945     0.141930457516
    H           -1.416775087883     0.091524793417    -1.173163489224
    C           -2.463833359942     1.472957035251     0.998148532948
    H           -0.690173421500     0.528057354458     1.748005748161
    H           -0.401491562862     1.661675558943     0.461880071022
    H           -3.156999561073     0.729490231438     1.377400560212
    H           -2.439735827452     2.293966844107     1.705631407855
    H           -2.867522853325     1.852670367333     0.065257343034

  Mulliken Charges: (a.u.)
   Center  Symbol    Alpha    Beta     Spin     Total
       1     H     0.43008  0.43008  0.00000  0.13985
       2     N     3.69162  3.69162  0.00000 -0.38323
       3     C     3.02779  3.02779  0.00000 -0.05558
       4     H     0.43100  0.43100  0.00000  0.13801
       5     C     3.09195  3.09195  0.00000 -0.18391
       6     H     0.45602  0.45602  0.00000  0.08796
       7     H     0.46358  0.46358  0.00000  0.07283
       8     C     3.09733  3.09733  0.00000 -0.19466
       9     H     0.44454  0.44454  0.00000  0.11091
      10     H     0.45732  0.45732  0.00000  0.08537
      11     C     3.09145  3.09145  0.00000 -0.18289
      12     H     0.45139  0.45139  0.00000  0.09722
      13     H     0.45088  0.45088  0.00000  0.09825
      14     C     3.15018  3.15018  0.00000 -0.30037
      15     H     0.45391  0.45391  0.00000  0.09218
      16     H     0.45237  0.45237  0.00000  0.09525
      17     H     0.45488  0.45488  0.00000  0.09023
      18     H     0.44862  0.44862  0.00000  0.10276
      19     H     0.45509  0.45509  0.00000  0.08981

   Total alpha = 25.00000, Total beta = 25.00000, Total charge = -0.00000

*** Psi4 exiting successfully. Buy a developer a beer!
