                              Psi4 1.0.54 Driver

  ==> Input File <==

--------------------------------------------------------------------------
set {
	reference rhf
	basis cc-pvtz
}

set_num_threads( 4 )
memory 2 gb

molecule MOL {
0 1

O	 2.868453	 1.353349	 -0.000734
C	 2.841259	 0.166180	 -0.000295
C	 1.542794	 -0.614730	 -0.000853
C	 4.113372	 -0.651103	 0.000743
C	 0.288398	 0.247429	 0.000314
H	 1.557171	 -1.273139	 -0.866508
H	 1.557484	 -1.274998	 0.863344
C	 -0.993089	 -0.581367	 -0.000217
H	 0.305153	 0.900562	 -0.864701
H	 0.305567	 0.898805	 0.866656
C	 -2.258482	 0.271340	 0.000669
H	 -1.002280	 -1.233920	 -0.870484
H	 -1.002061	 -1.235367	 0.868958
C	 -3.467061	 -0.434810	 -0.607135
H	 -2.070092	 1.192701	 -0.544964
H	 -2.491395	 0.565930	 1.021010
C	 -4.727603	 0.423563	 -0.602770
H	 -3.235572	 -0.728589	 -1.627452
H	 -3.656893	 -1.355258	 -0.061555
H	 -4.581076	 1.336663	 -1.170060
H	 -5.565708	 -0.106483	 -1.040551
H	 -5.005656	 0.705142	 0.407401
H	 4.145311	 -1.294584	 -0.871587
H	 4.970080	 0.004978	 -0.000091
H	 4.145223	 -1.291980	 0.874988

	symmetry c1
}
set optking {
	frozen_dihedral = ("
		15 11 8 12
	")
}

ee,wfn = optimize('scf', return_wfn=True)
oeprop( wfn, 'DIPOLE', 'QUADRUPOLE', 'MULLIKEN_CHARGES')
f=open( 'psi4out.xyz', 'w' )
f.write( "25  " )
f.write( str(ee) + "\n" )
f.write( MOL.save_string_xyz() )
f.close()
--------------------------------------------------------------------------

    Molecular point group: c1
  Charge       = 0
  Multiplicity = 1
  Basis Set: CC-PVTZ
  Basis Set:
  @DF-RHF Final Energy:  -387.27253447517165
    Total Energy =                       -387.2725344751713692
    Molecular point group: c1
  Basis Set: CC-PVTZ
  Basis Set:
  Basis Set: CC-PVTZ
  Basis Set:
  @DF-RHF Final Energy:  -387.27267367707361
    Total Energy =                       -387.2726736770737261
  Basis Set: CC-PVTZ
  Basis Set:
  Basis Set: CC-PVTZ
  Basis Set:
  @DF-RHF Final Energy:  -387.27280204325189
    Total Energy =                       -387.2728020432519997
  Basis Set: CC-PVTZ
  Basis Set:
  Basis Set: CC-PVTZ
  Basis Set:
  @DF-RHF Final Energy:  -387.27245092885073
    Total Energy =                       -387.2724509288502759
  Basis Set: CC-PVTZ
  Basis Set:
  Basis Set: CC-PVTZ
  Basis Set:
  @DF-RHF Final Energy:  -387.27280804500100
    Total Energy =                       -387.2728080450009429
  Basis Set: CC-PVTZ
  Basis Set:
  Charge       = 0
  Multiplicity = 1
  Basis Set: CC-PVTZ
  Basis Set:

    Orbital Energies (a.u.)
    -----------------------

    Doubly Occupied:

       1A    -20.538951     2A    -11.320592     3A    -11.230189
       4A    -11.226636     5A    -11.215474     6A    -11.214646
       7A    -11.213927     8A    -11.211336     9A    -11.206449
      10A     -1.398988    11A     -1.094705    12A     -1.057702
      13A     -1.015619    14A     -0.969904    15A     -0.891835
      16A     -0.815807    17A     -0.791873    18A     -0.731236
      19A     -0.660088    20A     -0.654481    21A     -0.633641
      22A     -0.625930    23A     -0.598028    24A     -0.585076
      25A     -0.567884    26A     -0.560445    27A     -0.540726
      28A     -0.528694    29A     -0.512329    30A     -0.492559
      31A     -0.489496    32A     -0.475394    33A     -0.464935
      34A     -0.458350    35A     -0.453095    36A     -0.401529

  @DF-RHF Final Energy:  -387.27280852464264

   => Energetics <=

    Nuclear Repulsion Energy =            439.1532790694088817
    One-Electron Energy =               -1395.1550798817263512
    Two-Electron Energy =                 568.7289922876746004
    DFT Exchange-Correlation Energy =       0.0000000000000000
    Empirical Dispersion Energy =           0.0000000000000000
    PCM Polarization Energy =               0.0000000000000000
    EFP Energy =                            0.0000000000000000
    Total Energy =                       -387.2728085246428691
    Molecular point group: c1
  Basis Set: CC-PVTZ
  Basis Set:

  -Total Gradient:
     Atom            X                  Y                   Z
    ------   -----------------  -----------------  -----------------
       1       -0.000029115649     0.000044530999    -0.000013622079
       2       -0.000003077175    -0.000032694936     0.000036236611
       3        0.000012125043     0.000001092706     0.000001052757
       4       -0.000003815611    -0.000024535678    -0.000004573829
       5        0.000014464087     0.000032882307    -0.000033587481
       6        0.000000131181     0.000003156512     0.000001465745
       7        0.000006266036     0.000003185863    -0.000005563553
       8        0.002486643189     0.003757620305    -0.001763559654
       9        0.000001590216    -0.000004951317     0.000005435485
      10       -0.000008759867    -0.000005611812    -0.000003690342
      11       -0.001883994662    -0.002749779225    -0.003513287370
      12       -0.001783112402    -0.002698175269     0.002059286500
      13       -0.000001576396    -0.000003168669     0.000006369635
      14        0.000008740519    -0.000020845448    -0.000038202091
      15        0.001179072761     0.001681895483     0.003242417090
      16        0.000000544505    -0.000000403556     0.000006245683
      17       -0.000006345587     0.000021671107     0.000019302599
      18       -0.000000771004     0.000002643336     0.000016851024
      19        0.000010327733     0.000017744780    -0.000009242559
      20       -0.000000760057    -0.000014795341     0.000006534449
      21        0.000005220770    -0.000000732332     0.000006503343
      22        0.000004683963     0.000000792926    -0.000017955016
      23        0.000009864947    -0.000011416306    -0.000001777467
      24       -0.000025884768     0.000006761073    -0.000000612445
      25        0.000007538229    -0.000006867501    -0.000002027035

  **** Optimization is complete! (in 6 steps) ****
    Final optimized geometry and variables:
    Molecular point group: c1

    Geometry (in Angstrom), charge = 0, multiplicity = 1:

    O            2.863951729921     1.324200910755     0.137689313883
    C            2.832237425603     0.137404360704     0.161147074578
    C            1.531298572788    -0.639059683097     0.138682311209
    C            4.100531476153    -0.684102556083     0.215382456665
    C            0.281219566156     0.227333163642     0.085431130319
    H            1.567835279558    -1.314806146923    -0.712890208750
    H            1.518269408521    -1.281688514711     1.016007608244
    C           -1.002573351132    -0.594718754316     0.054698694371
    H            0.328271876296     0.867493145830    -0.787889011212
    H            0.271491440964     0.891865321967     0.942299324649
    C           -2.274228149763     0.257714863837     0.073612018235
    H           -1.013664006835    -1.248964720460    -0.814099974340
    H           -1.020387064727    -1.266084013607     0.910715555986
    C           -3.503563157677    -0.457940953742    -0.475092407494
    H           -2.103540382389     1.182908130758    -0.470926939417
    H           -2.471525515948     0.567857636005     1.097190224900
    C           -4.776062994633     0.377047375743    -0.382336717273
    H           -3.325622504442    -0.730099955510    -1.511798539619
    H           -3.644830112699    -1.391305375962     0.063895777367
    H           -4.675470878613     1.305021471426    -0.935327569092
    H           -5.627643083477    -0.158068326846    -0.786664348234
    H           -5.003528198893     0.630951496362     0.647571548760
    H            4.154823457317    -1.345358858978    -0.642423810380
    H            4.959547142499    -0.031100006181     0.225768197205
    H            4.104750549352    -1.307018235510     1.103077880820

  Mulliken Charges: (a.u.)
   Center  Symbol    Alpha    Beta     Spin     Total
       1     O     4.17070  4.17070  0.00000 -0.34141
       2     C     2.86210  2.86210  0.00000  0.27580
       3     C     3.11454  3.11454  0.00000 -0.22909
       4     C     3.15132  3.15132  0.00000 -0.30265
       5     C     3.08259  3.08259  0.00000 -0.16517
       6     H     0.44522  0.44522  0.00000  0.10955
       7     H     0.44534  0.44534  0.00000  0.10931
       8     C     3.09214  3.09214  0.00000 -0.18428
       9     H     0.44608  0.44608  0.00000  0.10785
      10     H     0.44542  0.44542  0.00000  0.10916
      11     C     3.08800  3.08800  0.00000 -0.17599
      12     H     0.45589  0.45589  0.00000  0.08821
      13     H     0.45556  0.45556  0.00000  0.08887
      14     C     3.08386  3.08386  0.00000 -0.16771
      15     H     0.45290  0.45290  0.00000  0.09419
      16     H     0.45414  0.45414  0.00000  0.09172
      17     C     3.15032  3.15032  0.00000 -0.30065
      18     H     0.45485  0.45485  0.00000  0.09030
      19     H     0.45488  0.45488  0.00000  0.09025
      20     H     0.45435  0.45435  0.00000  0.09130
      21     H     0.44872  0.44872  0.00000  0.10255
      22     H     0.45495  0.45495  0.00000  0.09011
      23     H     0.45039  0.45039  0.00000  0.09922
      24     H     0.43534  0.43534  0.00000  0.12933
      25     H     0.45039  0.45039  0.00000  0.09923

   Total alpha = 36.00000, Total beta = 36.00000, Total charge = -0.00000

*** Psi4 exiting successfully. Buy a developer a beer!
