                              Psi4 1.0.54 Driver

  ==> Input File <==

--------------------------------------------------------------------------
set {
	reference rhf
	basis cc-pvtz
}

set_num_threads( 4 )
memory 2 gb

molecule MOL {
0 1

H	 2.071079	 2.301613	 -1.209834
O	 2.858140	 1.900048	 -1.527814
C	 3.266122	 0.876202	 -0.659159
C	 2.388062	 -0.364283	 -0.729109
H	 4.275119	 0.622439	 -0.954979
H	 3.313211	 1.243219	 0.364330
C	 0.955003	 -0.146252	 -0.248844
H	 2.379758	 -0.724247	 -1.753567
H	 2.855568	 -1.138946	 -0.126005
C	 0.113298	 -1.420414	 -0.302504
H	 0.486621	 0.621978	 -0.855015
H	 0.970762	 0.227926	 0.773422
C	 -1.311023	 -1.277304	 0.237018
H	 0.074100	 -1.779337	 -1.328108
H	 0.620498	 -2.193224	 0.268444
C	 -2.041121	 -0.006551	 -0.194127
H	 -1.888548	 -2.136293	 -0.093331
H	 -1.289731	 -1.328757	 1.323321
C	 -3.489218	 0.042606	 0.286507
H	 -2.022185	 0.066287	 -1.279394
H	 -1.518764	 0.869305	 0.178730
C	 -4.219984	 1.311773	 -0.139038
H	 -4.022855	 -0.824300	 -0.093339
H	 -3.510372	 -0.038577	 1.370031
H	 -4.244251	 1.405725	 -1.219696
H	 -5.244345	 1.313233	 0.215630
H	 -3.732090	 2.196311	 0.257073

	symmetry c1
}
set optking {
	frozen_dihedral = ("
		14 10 13 16
	")
}

ee,wfn = optimize('scf', return_wfn=True)
oeprop( wfn, 'DIPOLE', 'QUADRUPOLE', 'MULLIKEN_CHARGES')
f=open( 'psi4out.xyz', 'w' )
f.write( "27  " )
f.write( str(ee) + "\n" )
f.write( MOL.save_string_xyz() )
f.close()
--------------------------------------------------------------------------

    Molecular point group: c1
  Charge       = 0
  Multiplicity = 1
  Basis Set: CC-PVTZ
  Basis Set:
  @DF-RHF Final Energy:  -388.42552047018899
    Total Energy =                       -388.4255204701887578
    Molecular point group: c1
  Basis Set: CC-PVTZ
  Basis Set:
  Basis Set: CC-PVTZ
  Basis Set:
  @DF-RHF Final Energy:  -388.42273626228376
    Total Energy =                       -388.4227362622838200
  Basis Set: CC-PVTZ
  Basis Set:
  Basis Set: CC-PVTZ
  Basis Set:
  @DF-RHF Final Energy:  -388.42581157226857
    Total Energy =                       -388.4258115722686853
  Basis Set: CC-PVTZ
  Basis Set:
  Basis Set: CC-PVTZ
  Basis Set:
  @DF-RHF Final Energy:  -388.42595536622576
    Total Energy =                       -388.4259553662258213
  Basis Set: CC-PVTZ
  Basis Set:
  Basis Set: CC-PVTZ
  Basis Set:
  @DF-RHF Final Energy:  -388.42596811974227
    Total Energy =                       -388.4259681197415830
  Basis Set: CC-PVTZ
  Basis Set:
  Basis Set: CC-PVTZ
  Basis Set:
  @DF-RHF Final Energy:  -388.42598117736435
    Total Energy =                       -388.4259811773640649
  Basis Set: CC-PVTZ
  Basis Set:
  Charge       = 0
  Multiplicity = 1
  Basis Set: CC-PVTZ
  Basis Set:

    Orbital Energies (a.u.)
    -----------------------

    Doubly Occupied:

       1A    -20.545317     2A    -11.265007     3A    -11.217159
       4A    -11.214732     5A    -11.213989     6A    -11.213456
       7A    -11.213304     8A    -11.212092     9A    -11.207499
      10A     -1.363228    11A     -1.096070    12A     -1.062539
      13A     -1.012094    14A     -0.949171    15A     -0.890518
      16A     -0.820665    17A     -0.805543    18A     -0.773048
      19A     -0.696029    20A     -0.656464    21A     -0.635880
      22A     -0.615960    23A     -0.602402    24A     -0.585656
      25A     -0.578917    26A     -0.553968    27A     -0.539228
      28A     -0.534801    29A     -0.506552    30A     -0.496820
      31A     -0.486689    32A     -0.474461    33A     -0.468075
      34A     -0.458429    35A     -0.452089    36A     -0.442515
      37A     -0.426334

  @DF-RHF Final Energy:  -388.42598118028923

   => Energetics <=

    Nuclear Repulsion Energy =            461.6144774975481369
    One-Electron Energy =               -1441.5075161838033182
    Two-Electron Energy =                 591.4670575059667499
    DFT Exchange-Correlation Energy =       0.0000000000000000
    Empirical Dispersion Energy =           0.0000000000000000
    PCM Polarization Energy =               0.0000000000000000
    EFP Energy =                            0.0000000000000000
    Total Energy =                       -388.4259811802884315
    Molecular point group: c1
  Basis Set: CC-PVTZ
  Basis Set:

  -Total Gradient:
     Atom            X                  Y                   Z
    ------   -----------------  -----------------  -----------------
       1        0.000014166995    -0.000001232382     0.000002136220
       2        0.000015018685     0.000009063979    -0.000029491063
       3       -0.000027554814     0.000013133381     0.000054075415
       4       -0.000002871082    -0.000003309627    -0.000028205305
       5       -0.000004931148     0.000000168854    -0.000001708288
       6        0.000009009163     0.000003985770     0.000008080199
       7        0.000017887444     0.000011252491     0.000006251951
       8       -0.000012617799    -0.000004665640    -0.000008114553
       9       -0.000001620146    -0.000007874465    -0.000003687679
      10       -0.000396921442     0.006096417808    -0.000227237512
      11       -0.000002344368    -0.000025040203    -0.000003021420
      12        0.000002146272     0.000009479697     0.000002250977
      13       -0.001544249141    -0.003308407986    -0.003739747609
      14        0.000744117661    -0.004370199897     0.001172176351
      15        0.000003588123     0.000001425037    -0.000004511678
      16        0.001191270008     0.001574605608     0.002790549165
      17       -0.000005239856    -0.000008603469     0.000006418707
      18       -0.000005606753     0.000005662856    -0.000006690213
      19        0.000003802342     0.000006183021     0.000013805062
      20        0.000001750410    -0.000003328513    -0.000000964425
      21       -0.000002097034     0.000005830988     0.000001076934
      22        0.000001501116    -0.000002001910    -0.000005539130
      23        0.000001390799     0.000000259707    -0.000001859696
      24       -0.000001040120    -0.000001146562     0.000004986857
      25        0.000000726167     0.000002169399    -0.000002779671
      26       -0.000000489310    -0.000003543632    -0.000000520503
      27        0.000001207837    -0.000000284314     0.000002270905

  **** Optimization is complete! (in 7 steps) ****
    Final optimized geometry and variables:
    Molecular point group: c1

    Geometry (in Angstrom), charge = 0, multiplicity = 1:

    H            2.010073481303     2.443226307554    -0.775727472247
    O            2.817621877255     2.132590625118    -1.140344213311
    C            3.332904851182     1.086538871038    -0.359749454154
    C            2.555526991836    -0.213883400906    -0.498318078305
    H            4.349231421836     0.938194992085    -0.698880271290
    H            3.382481013049     1.382534817086     0.686373131571
    C            1.125904223435    -0.149479922162     0.034304131998
    H            2.542694562024    -0.498447670987    -1.546146495833
    H            3.103021801788    -0.988748651595     0.032699456777
    C            0.390936279025    -1.480314509684    -0.098937616914
    H            0.578484732213     0.621006947835    -0.497697606017
    H            1.145825221805     0.147475760075     1.081633257213
    C           -1.003281167758    -1.549047247747     0.536743737728
    H            0.328267891389    -1.770271207219    -1.144831979480
    H            0.999168895615    -2.253524429481     0.364145952234
    C           -1.921944382391    -0.360154505825     0.260291095353
    H           -1.486728492732    -2.462768136225     0.204708499492
    H           -0.891135049504    -1.644317747114     1.614537662517
    C           -3.327983745268    -0.555041539682     0.821852569272
    H           -1.988212862311    -0.188318243678    -0.812377376557
    H           -1.495456576831     0.541553644472     0.687856094888
    C           -4.244681996707     0.637923362173     0.572393193886
    H           -3.769343477576    -1.445720114663     0.383374365313
    H           -3.264163539667    -0.742421324675     1.890461212124
    H           -4.354815730348     0.831626022792    -0.489474395188
    H           -5.233895042636     0.465785353488     0.980853257608
    H           -3.849918157623     1.538175324599     1.031823182383

  Mulliken Charges: (a.u.)
   Center  Symbol    Alpha    Beta     Spin     Total
       1     H     0.39236  0.39236  0.00000  0.21529
       2     O     4.20552  4.20552  0.00000 -0.41105
       3     C     2.98005  2.98005  0.00000  0.03990
       4     C     3.09021  3.09021  0.00000 -0.18042
       5     H     0.44842  0.44842  0.00000  0.10315
       6     H     0.46988  0.46988  0.00000  0.06024
       7     C     3.10509  3.10509  0.00000 -0.21019
       8     H     0.45089  0.45089  0.00000  0.09822
       9     H     0.45479  0.45479  0.00000  0.09043
      10     C     3.09701  3.09701  0.00000 -0.19401
      11     H     0.45355  0.45355  0.00000  0.09291
      12     H     0.45284  0.45284  0.00000  0.09433
      13     C     3.09664  3.09664  0.00000 -0.19327
      14     H     0.45036  0.45036  0.00000  0.09927
      15     H     0.45039  0.45039  0.00000  0.09922
      16     C     3.09098  3.09098  0.00000 -0.18197
      17     H     0.44854  0.44854  0.00000  0.10292
      18     H     0.45363  0.45363  0.00000  0.09274
      19     C     3.08488  3.08488  0.00000 -0.16976
      20     H     0.45359  0.45359  0.00000  0.09282
      21     H     0.45345  0.45345  0.00000  0.09311
      22     C     3.14983  3.14983  0.00000 -0.29967
      23     H     0.45334  0.45334  0.00000  0.09331
      24     H     0.45477  0.45477  0.00000  0.09047
      25     H     0.45490  0.45490  0.00000  0.09020
      26     H     0.44814  0.44814  0.00000  0.10371
      27     H     0.45595  0.45595  0.00000  0.08811

   Total alpha = 37.00000, Total beta = 37.00000, Total charge = -0.00000

*** Psi4 exiting successfully. Buy a developer a beer!
