  ==> Input File <==

--------------------------------------------------------------------------
set {
	reference rhf
	basis 6-31G*
}

set_num_threads( 4 )
memory 2 gb

molecule MOL {
0 1

H	 -0.000158	 1.970498	 0.756846
O	 -0.000074	 1.880206	 -0.189275
C	 -0.000015	 0.544847	 -0.545111
C	 1.201481	 -0.158198	 0.077884
C	 -0.077133	 0.412093	 -2.062486
H	 -0.890506	 0.093628	 -0.133370
F	 1.139674	 -0.061407	 1.388744
F	 1.249103	 -1.435890	 -0.234516
F	 2.332428	 0.405349	 -0.315780
F	 -1.183201	 0.974938	 -2.499928
F	 -0.077060	 -0.844536	 -2.453974
F	 0.943680	 1.024573	 -2.640748

	symmetry c1
}
set optking {
	frozen_dihedral = ("
		6 3 2 1
	")
}

ee = optimize('scf')
oeprop('DIPOLE', 'QUADRUPOLE', 'MULLIKEN_CHARGES')
f=open( 'psi4out.xyz', 'w' )
f.write( "12  " )
f.write( str(ee) + "\n" )
f.write( MOL.save_string_xyz() )
f.close()
--------------------------------------------------------------------------

    Molecular point group: c1
  Charge       = 0
  Multiplicity = 1
  Basis Set: 6-31G*
  Basis Set:
  @DF-RHF Final Energy:  -786.27377570166936
    Total Energy =                       -786.2737757016692512
    Molecular point group: c1
  Basis Set: 6-31G*
  Basis Set:
  Basis Set: 6-31G*
  Basis Set:
  @DF-RHF Final Energy:  -786.27590119646743
    Total Energy =                       -786.2759011964670890
  Basis Set: 6-31G*
  Basis Set:
  Basis Set: 6-31G*
  Basis Set:
  @DF-RHF Final Energy:  -786.27638678564551
    Total Energy =                       -786.2763867856456272
  Basis Set: 6-31G*
  Basis Set:
  Basis Set: 6-31G*
  Basis Set:
  @DF-RHF Final Energy:  -786.27644362169622
    Total Energy =                       -786.2764436216956483
  Basis Set: 6-31G*
  Basis Set:
  Basis Set: 6-31G*
  Basis Set:
  @DF-RHF Final Energy:  -786.27645509644276
    Total Energy =                       -786.2764550964429873
  Basis Set: 6-31G*
  Basis Set:
  Basis Set: 6-31G*
  Basis Set:
  @DF-RHF Final Energy:  -786.27645722776742
    Total Energy =                       -786.2764572277666275
  Basis Set: 6-31G*
  Basis Set:
  Charge       = 0
  Multiplicity = 1
  Basis Set: 6-31G*
  Basis Set:

    Orbital Energies (a.u.)
    -----------------------

    Doubly Occupied:

       1A    -26.364962     2A    -26.361549     3A    -26.359333
       4A    -26.355662     5A    -26.352080     6A    -26.351238
       7A    -20.616124     8A    -11.525990     9A    -11.521813
      10A    -11.349236    11A     -1.763356    12A     -1.753892
      13A     -1.659968    14A     -1.658689    15A     -1.650982
      16A     -1.649395    17A     -1.434841    18A     -1.102593
      19A     -0.995152    20A     -0.933661    21A     -0.866291
      22A     -0.856871    23A     -0.852371    24A     -0.840329
      25A     -0.829662    26A     -0.782879    27A     -0.756122
      28A     -0.729810    29A     -0.720213    30A     -0.716513
      31A     -0.713128    32A     -0.683065    33A     -0.679877
      34A     -0.666387    35A     -0.666153    36A     -0.660627
      37A     -0.651312    38A     -0.636231    39A     -0.616934
      40A     -0.548698    41A     -0.505785

  @DF-RHF Final Energy:  -786.27645763228941

   => Energetics <=

    Nuclear Repulsion Energy =            670.4067765322250807
    One-Electron Energy =               -2427.8869279669597745
    Two-Electron Energy =                 971.2036938024448318
    DFT Exchange-Correlation Energy =       0.0000000000000000
    Empirical Dispersion Energy =           0.0000000000000000
    PCM Polarization Energy =               0.0000000000000000
    EFP Energy =                            0.0000000000000000
    Total Energy =                       -786.2764576322897483
    Molecular point group: c1
  Basis Set: 6-31G*
  Basis Set:

  -Total Gradient:
     Atom            X                  Y                   Z
    ------   -----------------  -----------------  -----------------
       1        0.000736242124     0.000009960604     0.000027894643
       2       -0.001008330592     0.000045444852    -0.000190939318
       3        0.000602685458    -0.000215988968     0.000672423464
       4       -0.000057691293     0.000057067724    -0.000021937324
       5       -0.000008463345     0.000018331417     0.000060805122
       6       -0.000316511179     0.000137826342    -0.000554794871
       7        0.000027792486    -0.000039719446     0.000027848676
       8        0.000059915814     0.000054738428     0.000019908960
       9       -0.000010459603    -0.000069581815     0.000020354774
      10       -0.000004911841     0.000016235104    -0.000037849002
      11        0.000013088209     0.000016818046    -0.000013506121
      12       -0.000033356236    -0.000031132292    -0.000010209011

  **** Optimization is complete! (in 7 steps) ****
    Final optimized geometry and variables:
    Molecular point group: c1

    Geometry (in Angstrom), charge = 0, multiplicity = 1:

    H           -0.620804132626     1.700086365551     1.700737280547
    O           -0.595866505865     1.597052839430     0.758209756555
    C           -0.586893793935     0.257112892577     0.419216556837
    C            0.629786769261    -0.435888763726     1.022196564159
    C           -0.634126711673     0.195128584026    -1.101374722823
    H           -1.463902137121    -0.270816000573     0.778995575977
    F            0.637710942451    -0.191435318104     2.327782953991
    F            0.574219866033    -1.741197395810     0.860430153367
    F            1.766052411546    -0.003739061965     0.527500119495
    F           -1.769532484897     0.707495021297    -1.528458667125
    F           -0.574652392620    -1.058944658763    -1.511926035900
    F            0.351898069154     0.857100605124    -1.659995378351

  Mulliken Charges: (a.u.)
   Center  Symbol    Alpha    Beta     Spin     Total
       1     H     0.26385  0.26385  0.00000  0.47230
       2     O     4.36497  4.36497  0.00000 -0.72993
       3     C     3.04721  3.04721  0.00000 -0.09442
       4     C     2.44544  2.44544  0.00000  1.10912
       5     C     2.43371  2.43371  0.00000  1.13258
       6     H     0.38777  0.38777  0.00000  0.22446
       7     F     4.68774  4.68774  0.00000 -0.37549
       8     F     4.67392  4.67392  0.00000 -0.34783
       9     F     4.66929  4.66929  0.00000 -0.33858
      10     F     4.67681  4.67681  0.00000 -0.35362
      11     F     4.67896  4.67896  0.00000 -0.35791
      12     F     4.67034  4.67034  0.00000 -0.34067

   Total alpha = 41.00000, Total beta = 41.00000, Total charge =  0.00000
