  ==> Input File <==

--------------------------------------------------------------------------
set {
	reference rhf
	basis 6-31G*
}

set_num_threads( 1 )
memory 2 gb

molecule MOL {
0 1

O	 -2.821601	 1.309235	 -0.001213
C	 -2.668563	 0.129746	 -0.000350
C	 -3.801572	 -0.864014	 -0.000442
O	 -1.481751	 -0.454642	 0.000584
H	 -4.417280	 -0.689587	 -0.874708
H	 -3.443784	 -1.883046	 -0.000565
H	 -4.417179	 -0.689832	 0.873954
C	 -0.334255	 0.388708	 0.000906
C	 0.891947	 -0.504646	 0.000751
H	 -0.365390	 1.025305	 -0.873475
H	 -0.365484	 1.024911	 0.875569
C	 2.191998	 0.301789	 0.000897
H	 0.855148	 -1.151283	 -0.871571
H	 0.855132	 -1.151660	 0.872805
C	 1.960908	 1.804797	 0.167896
H	 2.839335	 -0.051781	 0.801541
H	 2.730676	 0.123680	 -0.928181
C	 3.259516	 2.610080	 0.169381
H	 1.423021	 1.984605	 1.096024
H	 1.316082	 2.160240	 -0.632685
H	 3.912135	 2.300469	 0.980704
H	 3.063261	 3.670879	 0.289482
H	 3.804214	 2.477703	 -0.761098

	symmetry c1
}
set optking {
	frozen_dihedral = ("
		13 9 8 10,
		2 4 8 10,
		19 15 12 16,
		1 2 4 8
	")
}

ee = energy('scf')
oeprop('DIPOLE', 'QUADRUPOLE', 'MULLIKEN_CHARGES')
f=open( 'psi4out.xyz', 'w' )
f.write( "23  " )
f.write( str(ee) + "\n" )
f.write( MOL.save_string_xyz() )
f.close()
--------------------------------------------------------------------------

    Molecular point group: c1

    Geometry (in Angstrom), charge = 0, multiplicity = 1:

       Center              X                  Y                   Z               Mass
    ------------   -----------------  -----------------  -----------------  -----------------
           O         -2.491229273360     0.776650840125    -0.038975187963    15.994914619560
           C         -2.338191273360    -0.402838159875    -0.038112187963    12.000000000000
           C         -3.471200273360    -1.396598159875    -0.038204187963    12.000000000000
           O         -1.151379273360    -0.987226159875    -0.037178187963    15.994914619560
           H         -4.086908273360    -1.222171159875    -0.912470187963     1.007825032070
           H         -3.113412273360    -2.415630159875    -0.038327187963     1.007825032070
           H         -4.086807273360    -1.222416159875     0.836191812037     1.007825032070
           C         -0.003883273360    -0.143876159875    -0.036856187963    12.000000000000
           C          1.222318726640    -1.037230159875    -0.037011187963    12.000000000000
           H         -0.035018273360     0.492720840125    -0.911237187963     1.007825032070
           H         -0.035112273360     0.492326840125     0.837806812037     1.007825032070
           C          2.522369726640    -0.230795159875    -0.036865187963    12.000000000000
           H          1.185519726640    -1.683867159875    -0.909333187963     1.007825032070
           H          1.185503726640    -1.684244159875     0.835042812037     1.007825032070
           C          2.291279726640     1.272212840125     0.130133812037    12.000000000000
           H          3.169706726640    -0.584365159875     0.763778812037     1.007825032070
           H          3.061047726640    -0.408904159875    -0.965943187963     1.007825032070
           C          3.589887726640     2.077495840125     0.131618812037    12.000000000000
           H          1.753392726640     1.452020840125     1.058261812037     1.007825032070
           H          1.646453726640     1.627655840125    -0.670447187963     1.007825032070
           H          4.242506726640     1.767884840125     0.942941812037     1.007825032070
           H          3.393632726640     3.138294840125     0.251719812037     1.007825032070
           H          4.134585726640     1.945118840125    -0.798860187963     1.007825032070

  Charge       = 0
  Multiplicity = 1
  Basis Set: 6-31G*
  Basis Set:

    Orbital Energies (a.u.)
    -----------------------

    Doubly Occupied:

       1A    -20.601423     2A    -20.539873     3A    -11.373403
       4A    -11.279458     5A    -11.231926     6A    -11.222612
       7A    -11.221915     8A    -11.220781     9A    -11.212035
      10A     -1.466872    11A     -1.359893    12A     -1.098996
      13A     -1.037135    14A     -1.001204    15A     -0.930696
      16A     -0.857817    17A     -0.791377    18A     -0.770850
      19A     -0.693308    20A     -0.684651    21A     -0.665313
      22A     -0.645244    23A     -0.602368    24A     -0.588520
      25A     -0.579073    26A     -0.570857    27A     -0.569719
      28A     -0.525214    29A     -0.523790    30A     -0.517601
      31A     -0.502880    32A     -0.473529    33A     -0.464141
      34A     -0.458025    35A     -0.441785    36A     -0.435533

  @DF-RHF Final Energy:  -422.96527656106775

   => Energetics <=

    Nuclear Repulsion Energy =            462.1848859892718338
    One-Electron Energy =               -1491.9807842085842822
    Two-Electron Energy =                 606.8306216582466277
    DFT Exchange-Correlation Energy =       0.0000000000000000
    Empirical Dispersion Energy =           0.0000000000000000
    PCM Polarization Energy =               0.0000000000000000
    EFP Energy =                            0.0000000000000000
    Total Energy =                       -422.9652765610658207

  Mulliken Charges: (a.u.)
   Center  Symbol    Alpha    Beta     Spin     Total
       1     O     4.28445  4.28445  0.00000 -0.56891
       2     C     2.61579  2.61579  0.00000  0.76842
       3     C     3.28781  3.28781  0.00000 -0.57562
       4     O     4.31588  4.31588  0.00000 -0.63177
       5     H     0.39768  0.39768  0.00000  0.20465
       6     H     0.39985  0.39985  0.00000  0.20030
       7     H     0.39769  0.39769  0.00000  0.20461
       8     C     2.99894  2.99894  0.00000  0.00213
       9     C     3.16644  3.16644  0.00000 -0.33288
      10     H     0.40919  0.40919  0.00000  0.18161
      11     H     0.40829  0.40829  0.00000  0.18341
      12     C     3.15911  3.15911  0.00000 -0.31822
      13     H     0.41158  0.41158  0.00000  0.17684
      14     H     0.41206  0.41206  0.00000  0.17588
      15     C     3.16671  3.16671  0.00000 -0.33342
      16     H     0.41734  0.41734  0.00000  0.16532
      17     H     0.41794  0.41794  0.00000  0.16413
      18     C     3.23637  3.23637  0.00000 -0.47274
      19     H     0.41892  0.41892  0.00000  0.16217
      20     H     0.41799  0.41799  0.00000  0.16402
      21     H     0.42139  0.42139  0.00000  0.15722
      22     H     0.41726  0.41726  0.00000  0.16548
      23     H     0.42132  0.42132  0.00000  0.15737

   Total alpha = 36.00000, Total beta = 36.00000, Total charge =  0.00000
