  ==> Input File <==

--------------------------------------------------------------------------
set {
	reference rhf
	basis cc-pvtz
}

set_num_threads( 4 )
memory 2 gb

molecule MOL {
0 1

H	 1.213523	 1.588582	 -0.804214
O	 0.406379	 1.098417	 -0.845721
C	 0.489979	 0.078084	 0.002623
C	 -0.763662	 -0.754014	 0.000816
O	 1.449204	 -0.113291	 0.666833
C	 -2.038001	 0.074705	 -0.000833
H	 -0.712945	 -1.405886	 -0.864342
H	 -0.715137	 -1.405770	 0.866182
H	 -2.087267	 0.710831	 -0.874232
H	 -2.903419	 -0.576199	 -0.001922
H	 -2.089467	 0.710909	 0.872389

	symmetry c1
}
set optking {
	frozen_dihedral = ("
		2 3 4 7
	")
}

ee = optimize('scf')
oeprop('DIPOLE', 'QUADRUPOLE', 'MULLIKEN_CHARGES')
f=open( 'psi4out.xyz', 'w' )
f.write( "11  " )
f.write( str(ee) + "\n" )
f.write( MOL.save_string_xyz() )
f.close()
--------------------------------------------------------------------------

    Molecular point group: c1
  Charge       = 0
  Multiplicity = 1
  Basis Set: CC-PVTZ
  Basis Set:
  @DF-RHF Final Energy:  -266.95092039519750
    Total Energy =                       -266.9509203951974428
    Molecular point group: c1
  Basis Set: CC-PVTZ
  Basis Set:
  Basis Set: CC-PVTZ
  Basis Set:
  @DF-RHF Final Energy:  -266.95086380581040
    Total Energy =                       -266.9508638058103998
  Basis Set: CC-PVTZ
  Basis Set:
  Basis Set: CC-PVTZ
  Basis Set:
  @DF-RHF Final Energy:  -266.95085397083380
    Total Energy =                       -266.9508539708338049
  Basis Set: CC-PVTZ
  Basis Set:
  Basis Set: CC-PVTZ
  Basis Set:
  @DF-RHF Final Energy:  -266.95132313501801
    Total Energy =                       -266.9513231350178444
  Basis Set: CC-PVTZ
  Basis Set:
  Basis Set: CC-PVTZ
  Basis Set:
  @DF-RHF Final Energy:  -266.95132798297561
    Total Energy =                       -266.9513279829757835
  Basis Set: CC-PVTZ
  Basis Set:
  Charge       = 0
  Multiplicity = 1
  Basis Set: CC-PVTZ
  Basis Set:

    Orbital Energies (a.u.)
    -----------------------

    Doubly Occupied:

       1A    -20.606301     2A    -20.539563     3A    -11.374121
       4A    -11.242591     5A    -11.225786     6A     -1.478976
       7A     -1.369147     8A     -1.068299     9A     -0.912240
      10A     -0.823793    11A     -0.705840    12A     -0.683931
      13A     -0.653367    14A     -0.608049    15A     -0.592351
      16A     -0.551941    17A     -0.527147    18A     -0.512468
      19A     -0.480823    20A     -0.443601

  @DF-RHF Final Energy:  -266.95132817810753

   => Energetics <=

    Nuclear Repulsion Energy =            180.4002513616343890
    One-Electron Energy =                -721.9024912144213886
    Two-Electron Energy =                 274.5509116746795257
    DFT Exchange-Correlation Energy =       0.0000000000000000
    Empirical Dispersion Energy =           0.0000000000000000
    PCM Polarization Energy =               0.0000000000000000
    EFP Energy =                            0.0000000000000000
    Total Energy =                       -266.9513281781074170
    Molecular point group: c1
  Basis Set: CC-PVTZ
  Basis Set:

  -Total Gradient:
     Atom            X                  Y                   Z
    ------   -----------------  -----------------  -----------------
       1       -0.000007868353    -0.000028163414     0.000011570609
       2       -0.000262708477     0.000398242840     0.000382842367
       3        0.000452627432    -0.000607265436    -0.000456027983
       4       -0.000455995885     0.000714334739    -0.000306609729
       5       -0.000037018685    -0.000003578991    -0.000002688790
       6       -0.000006935785    -0.000004243676    -0.000006335893
       7        0.000323601513    -0.000486389694     0.000368468912
       8        0.000001164170     0.000018981191    -0.000004525733
       9        0.000004331293    -0.000006412642     0.000006310204
      10       -0.000007733744     0.000002457927     0.000001543450
      11       -0.000003463480     0.000002037157     0.000005452587

  **** Optimization is complete! (in 6 steps) ****
    Final optimized geometry and variables:
    Molecular point group: c1

    Geometry (in Angstrom), charge = 0, multiplicity = 1:

    H            1.333083640341     1.468199007103    -0.742671014580
    O            0.504331835837     1.014476228711    -0.776494042365
    C            0.562679678822    -0.023288149267     0.052025417142
    C           -0.697118403085    -0.849030332928     0.055588031688
    O            1.528142937345    -0.261133128817     0.692462200643
    C           -1.993261650263    -0.043425741619     0.046369287929
    H           -0.647176076691    -1.487320299009    -0.821502665999
    H           -0.639372458337    -1.493510382329     0.920210574939
    H           -2.075212742052     0.563469312316    -0.844027891057
    H           -2.841604238351    -0.715124146535     0.080848054366
    H           -2.052403856193     0.611794416569     0.907343184038

  Mulliken Charges: (a.u.)
   Center  Symbol    Alpha    Beta     Spin     Total
       1     H     0.38054  0.38054  0.00000  0.23891
       2     O     4.16079  4.16079  0.00000 -0.32159
       3     C     2.80489  2.80489  0.00000  0.39021
       4     C     3.09164  3.09164  0.00000 -0.18328
       5     O     4.19375  4.19375  0.00000 -0.38749
       6     C     3.14500  3.14500  0.00000 -0.29001
       7     H     0.44523  0.44523  0.00000  0.10955
       8     H     0.43435  0.43435  0.00000  0.13130
       9     H     0.44526  0.44526  0.00000  0.10948
      10     H     0.44806  0.44806  0.00000  0.10388
      11     H     0.45048  0.45048  0.00000  0.09903

   Total alpha = 20.00000, Total beta = 20.00000, Total charge =  0.00000
