  ==> Input File <==

--------------------------------------------------------------------------
set {
	reference rhf
	basis 6-31G*
}

set_num_threads( 1 )
memory 2 gb

molecule MOL {
0 1

O	 0.606636	 0.519441	 0.994430
C	 1.122059	 0.121804	 -0.000188
C	 0.689596	 0.455379	 -1.407170
O	 2.172624	 -0.688929	 0.000216
C	 -0.517652	 1.386218	 -1.465758
H	 1.546223	 0.889177	 -1.915860
H	 0.488052	 -0.483311	 -1.916084
C	 -0.934854	 1.707591	 -2.901734
H	 -0.287983	 2.304858	 -0.934855
H	 -1.347584	 0.930575	 -0.934622
C	 -2.144573	 2.638701	 -2.969676
H	 -0.099465	 2.163163	 -3.429613
H	 -1.161320	 0.783544	 -3.429866
H	 -1.937699	 3.585667	 -2.479662
H	 -2.419388	 2.850784	 -3.998157
H	 -3.007288	 2.195937	 -2.480470
C	 3.452279	 -0.082609	 0.000533
H	 3.583069	 0.529321	 -0.880332
H	 4.163299	 -0.894027	 0.001117
H	 3.582335	 0.529955	 0.881077

	symmetry c1
}
set optking {
	frozen_dihedral = ("
		9 5 8 12,
		1 2 3 6,
		9 5 3 6
	")
}

ee = energy('scf')
oeprop('DIPOLE', 'QUADRUPOLE', 'MULLIKEN_CHARGES')
f=open( 'psi4out.xyz', 'w' )
f.write( "20  " )
f.write( str(ee) + "\n" )
f.write( MOL.save_string_xyz() )
f.close()
--------------------------------------------------------------------------

    Molecular point group: c1

    Geometry (in Angstrom), charge = 0, multiplicity = 1:

       Center              X                  Y                   Z               Mass
    ------------   -----------------  -----------------  -----------------  -----------------
           O          0.024445775426    -0.234498405155     1.948089391249    15.994914619560
           C          0.539868775426    -0.632135405155     0.953471391249    12.000000000000
           C          0.107405775426    -0.298560405155    -0.453510608751    12.000000000000
           O          1.590433775426    -1.442868405155     0.953875391249    15.994914619560
           C         -1.099842224574     0.632278594845    -0.512098608751    12.000000000000
           H          0.964032775426     0.135237594845    -0.962200608751     1.007825032070
           H         -0.094138224574    -1.237250405155    -0.962424608751     1.007825032070
           C         -1.517044224574     0.953651594845    -1.948074608751    12.000000000000
           H         -0.870173224574     1.550918594845     0.018804391249     1.007825032070
           H         -1.929774224574     0.176635594845     0.019037391249     1.007825032070
           C         -2.726763224574     1.884761594845    -2.016016608751    12.000000000000
           H         -0.681655224574     1.409223594845    -2.475953608751     1.007825032070
           H         -1.743510224574     0.029604594845    -2.476206608751     1.007825032070
           H         -2.519889224574     2.831727594845    -1.526002608751     1.007825032070
           H         -3.001578224574     2.096844594845    -3.044497608751     1.007825032070
           H         -3.589478224574     1.441997594845    -1.526810608751     1.007825032070
           C          2.870088775426    -0.836548405155     0.954192391249    12.000000000000
           H          3.000878775426    -0.224618405155     0.073327391249     1.007825032070
           H          3.581108775426    -1.647966405155     0.954776391249     1.007825032070
           H          3.000144775426    -0.223984405155     1.834736391249     1.007825032070

  Charge       = 0
  Multiplicity = 1
  Basis Set: 6-31G*
  Basis Set:

    Orbital Energies (a.u.)
    -----------------------

    Doubly Occupied:

       1A    -20.587324     2A    -20.555107     3A    -11.373815
       4A    -11.295594     5A    -11.237339     6A    -11.221602
       7A    -11.220303     8A    -11.211683     9A     -1.464156
      10A     -1.367473    11A     -1.089031    12A     -1.019514
      13A     -0.977364    14A     -0.895645    15A     -0.806996
      16A     -0.768974    17A     -0.695332    18A     -0.682256
      19A     -0.676718    20A     -0.643953    21A     -0.616617
      22A     -0.589335    23A     -0.587774    24A     -0.553520
      25A     -0.537298    26A     -0.512490    27A     -0.494970
      28A     -0.486782    29A     -0.478467    30A     -0.471638
      31A     -0.452781    32A     -0.432266

  @DF-RHF Final Energy:  -383.91990844483792

   => Energetics <=

    Nuclear Repulsion Energy =            382.7380815611087428
    One-Electron Energy =               -1281.3078292991103808
    Two-Electron Energy =                 514.6498392931645185
    DFT Exchange-Correlation Energy =       0.0000000000000000
    Empirical Dispersion Energy =           0.0000000000000000
    PCM Polarization Energy =               0.0000000000000000
    EFP Energy =                            0.0000000000000000
    Total Energy =                       -383.9199084448371195

  Mulliken Charges: (a.u.)
   Center  Symbol    Alpha    Beta     Spin     Total
       1     O     4.25864  4.25864  0.00000 -0.51728
       2     C     2.61485  2.61485  0.00000  0.77031
       3     C     3.21276  3.21276  0.00000 -0.42551
       4     O     4.31020  4.31020  0.00000 -0.62040
       5     C     3.15173  3.15173  0.00000 -0.30346
       6     H     0.40831  0.40831  0.00000  0.18337
       7     H     0.39858  0.39858  0.00000  0.20284
       8     C     3.15392  3.15392  0.00000 -0.30783
       9     H     0.41328  0.41328  0.00000  0.17343
      10     H     0.41055  0.41055  0.00000  0.17891
      11     C     3.23931  3.23931  0.00000 -0.47862
      12     H     0.42430  0.42430  0.00000  0.15141
      13     H     0.42268  0.42268  0.00000  0.15464
      14     H     0.42020  0.42020  0.00000  0.15960
      15     H     0.41877  0.41877  0.00000  0.16246
      16     H     0.41948  0.41948  0.00000  0.16105
      17     C     3.09332  3.09332  0.00000 -0.18665
      18     H     0.42102  0.42102  0.00000  0.15796
      19     H     0.40086  0.40086  0.00000  0.19828
      20     H     0.40725  0.40725  0.00000  0.18551

   Total alpha = 32.00000, Total beta = 32.00000, Total charge =  0.00000
