  ==> Input File <==

--------------------------------------------------------------------------
set {
	reference rhf
	basis 6-31G*
}

set_num_threads( 4 )
memory 2 gb

molecule MOL {
0 1

O	 2.469018	 0.342683	 -1.177838
C	 2.701189	 0.057885	 -0.047330
C	 2.316051	 0.873853	 1.162898
O	 3.347903	 -1.046386	 0.304773
C	 1.557081	 2.150802	 0.808664
H	 1.739273	 0.225076	 1.813749
H	 3.231042	 1.100110	 1.704467
C	 1.250849	 3.042082	 2.017108
H	 0.633538	 1.889831	 0.300648
H	 2.144140	 2.714207	 0.091476
C	 0.272913	 2.441215	 3.030869
H	 0.837873	 3.978384	 1.648986
H	 2.180605	 3.300619	 2.521807
C	 -0.084812	 3.410746	 4.159161
H	 -0.636976	 2.139199	 2.514433
H	 0.692292	 1.536531	 3.465196
C	 -1.057413	 2.819198	 5.181046
H	 -0.517896	 4.314255	 3.733317
H	 0.825714	 3.721481	 4.669146
C	 -1.412497	 3.795055	 6.302349
H	 -1.967449	 2.507240	 4.672953
H	 -0.624414	 1.918396	 5.610985
H	 -2.102956	 3.347057	 7.010284
H	 -1.879949	 4.692675	 5.907430
H	 -0.526437	 4.099704	 6.852222
C	 4.728119	 -1.109107	 -0.004993
H	 4.882018	 -1.033965	 -1.071845
H	 5.068212	 -2.067527	 0.355250
H	 5.265056	 -0.311663	 0.488280

	symmetry c1
}
set optking {
	frozen_dihedral = ("
		1 2 4 26
	")
}

ee = optimize('scf')
oeprop('DIPOLE', 'QUADRUPOLE', 'MULLIKEN_CHARGES')
f=open( 'psi4out.xyz', 'w' )
f.write( "29  " )
f.write( str(ee) + "\n" )
f.write( MOL.save_string_xyz() )
f.close()
--------------------------------------------------------------------------

    Molecular point group: c1
  Charge       = 0
  Multiplicity = 1
  Basis Set: 6-31G*
  Basis Set:
  @DF-RHF Final Energy:  -501.02628925644433
    Total Energy =                       -501.0262892564446702
    Molecular point group: c1
  Basis Set: 6-31G*
  Basis Set:
  Basis Set: 6-31G*
  Basis Set:
  @DF-RHF Final Energy:  -501.02393741934941
    Total Energy =                       -501.0239374193490676
  Basis Set: 6-31G*
  Basis Set:
  Basis Set: 6-31G*
  Basis Set:
  @DF-RHF Final Energy:  -501.02724766701238
    Total Energy =                       -501.0272476670129436
  Basis Set: 6-31G*
  Basis Set:
  Basis Set: 6-31G*
  Basis Set:
  @DF-RHF Final Energy:  -501.02740472415348
    Total Energy =                       -501.0274047241531434
  Basis Set: 6-31G*
  Basis Set:
  @DF-RHF Final Energy:  -501.02740989957022
    Total Energy =                       -501.0274098995703298
  @DF-RHF Final Energy:  -501.02740787749258
    Total Energy =                       -501.0274078774926920
  @DF-RHF Final Energy:  -501.02714644497212
    Total Energy =                       -501.0271464449726864
  @DF-RHF Final Energy:  -501.02740208537318
    Total Energy =                       -501.0274020853735237
  @DF-RHF Final Energy:  -501.02740151501450
    Total Energy =                       -501.0274015150140485
  @DF-RHF Final Energy:  -501.02740186532822
    Total Energy =                       -501.0274018653284429
  @DF-RHF Final Energy:  -500.92879940732689
    Total Energy =                       -500.9287994073272330
  @DF-RHF Final Energy:  -501.01456626026425
    Total Energy =                       -501.0145662602637913
  @DF-RHF Final Energy:  -501.02707539714379
    Total Energy =                       -501.0270753971433351
  @DF-RHF Final Energy:  -501.02736402741721
    Total Energy =                       -501.0273640274165246
  Basis Set: 6-31G*
  Basis Set:
  @DF-RHF Final Energy:  -501.02739593120305
    Total Energy =                       -501.0273959312037277
  Basis Set: 6-31G*
  Basis Set:
  Basis Set: 6-31G*
  Basis Set:
  @DF-RHF Final Energy:  -501.02739984533105
    Total Energy =                       -501.0273998453302511
  Basis Set: 6-31G*
  Basis Set:
  Basis Set: 6-31G*
  Basis Set:
  @DF-RHF Final Energy:  -501.02740655135551
    Total Energy =                       -501.0274065513544883
  Basis Set: 6-31G*
  Basis Set:
  Charge       = 0
  Multiplicity = 1
  Basis Set: 6-31G*
  Basis Set:

    Orbital Energies (a.u.)
    -----------------------

    Doubly Occupied:

       1A    -20.586847     2A    -20.555418     3A    -11.374501
       4A    -11.288845     5A    -11.237373     6A    -11.220884
       7A    -11.219230     8A    -11.216972     9A    -11.216447
      10A    -11.215303    11A    -11.209575    12A     -1.459411
      13A     -1.365719    14A     -1.099064    15A     -1.066796
      16A     -1.016427    17A     -0.975328    18A     -0.934217
      19A     -0.864884    20A     -0.801303    21A     -0.791812
      22A     -0.761784    23A     -0.699411    24A     -0.676426
      25A     -0.672515    26A     -0.651346    27A     -0.626256
      28A     -0.616032    29A     -0.597437    30A     -0.587416
      31A     -0.564721    32A     -0.555726    33A     -0.535854
      34A     -0.530513    35A     -0.519300    36A     -0.504553
      37A     -0.493220    38A     -0.480799    39A     -0.472998
      40A     -0.464393    41A     -0.463098    42A     -0.450310
      43A     -0.442397    44A     -0.432029

  @DF-RHF Final Energy:  -501.02740734500014

   => Energetics <=

    Nuclear Repulsion Energy =            610.1975801813360931
    One-Electron Energy =               -1891.4201977001380328
    Two-Electron Energy =                 780.1952101738031615
    DFT Exchange-Correlation Energy =       0.0000000000000000
    Empirical Dispersion Energy =           0.0000000000000000
    PCM Polarization Energy =               0.0000000000000000
    EFP Energy =                            0.0000000000000000
    Total Energy =                       -501.0274073449988919
    Molecular point group: c1
  Basis Set: 6-31G*
  Basis Set:

  -Total Gradient:
     Atom            X                  Y                   Z
    ------   -----------------  -----------------  -----------------
       1       -0.006699015278    -0.003270642497     0.000685038775
       2        0.010895691221     0.005890679056     0.001026308291
       3       -0.000397528974     0.000085274937    -0.000000965935
       4       -0.005541894463    -0.005042779463    -0.006704116841
       5        0.000020450460     0.000057336280     0.000073106627
       6        0.000008742040    -0.000033323228     0.000007228130
       7        0.000023180631     0.000021943489     0.000032600548
       8       -0.000047191431    -0.000017763718    -0.000037203672
       9        0.000020062208     0.000011499821     0.000043037417
      10       -0.000007677279     0.000019307939    -0.000013384199
      11        0.000021571511    -0.000004024024     0.000051665867
      12        0.000007988861     0.000029044216    -0.000003857016
      13       -0.000020008193    -0.000023528647    -0.000000857351
      14        0.000010728079    -0.000015627953     0.000007991465
      15        0.000010946826     0.000009111917    -0.000008371820
      16        0.000005159988    -0.000011370678     0.000003588062
      17       -0.000032092225     0.000018692950    -0.000022155407
      18        0.000001528681    -0.000007526311    -0.000006366413
      19       -0.000001188196     0.000015538837     0.000011888004
      20        0.000018080344    -0.000009435260     0.000014016006
      21       -0.000009994716     0.000004533419    -0.000001948113
      22       -0.000006447316     0.000000864823    -0.000008560724
      23        0.000009112233    -0.000003414898     0.000006815776
      24       -0.000006288257    -0.000008974178    -0.000002086076
      25        0.000001351615     0.000011049999    -0.000001743219
      26        0.001671783516     0.002163744615     0.004791029791
      27       -0.000005208706     0.000020981124    -0.000017016516
      28        0.000023261254     0.000026624978     0.000019521912
      29        0.000024895565     0.000062182458     0.000054796632

  **** Optimization is complete! (in 18 steps) ****
    Final optimized geometry and variables:
    Molecular point group: c1

    Geometry (in Angstrom), charge = 0, multiplicity = 1:

    O            0.980131739642    -1.174401394949    -3.110019834850
    C            1.253848252934    -1.416321755276    -1.984804774548
    C            0.853106350826    -0.584827973917    -0.791622465987
    O            1.887105741852    -2.554281073951    -1.626142398420
    C            0.062361343249     0.669549209919    -1.154455830447
    H            0.297432887614    -1.242723637730    -0.130791992026
    H            1.763828465914    -0.331869496757    -0.251464689982
    C           -0.262427215128     1.565312842708     0.045851598707
    H           -0.855689764886     0.379490880907    -1.656339326821
    H            0.632220701941     1.240759948709    -1.879864360382
    C           -1.224429558666     0.951383007040     1.067037556843
    H           -0.697485616483     2.488285645928    -0.330346498630
    H            0.661863924778     1.850288564645     0.546503610768
    C           -1.601708008963     1.922526328895     2.187558743231
    H           -2.128099108401     0.624488902820     0.555072217169
    H           -0.784037602244     0.060097839651     1.508246783855
    C           -2.560812902331     1.318960139955     3.215151868596
    H           -2.054206806631     2.813027580691     1.754596475430
    H           -0.697638562622     2.256870550586     2.694182836805
    C           -2.932105824051     2.294900376845     4.331113407402
    H           -3.465695346876     0.986464074862     2.710978367379
    H           -2.109816249655     0.429314347696     3.649755070500
    H           -3.610724439974     1.837515310770     5.044443140826
    H           -3.419384359275     3.179950495049     3.931837356581
    H           -2.050680618210     2.621528669864     4.875825549665
    C            3.242002756170    -2.677424268227    -2.008485917394
    H            3.350995738493    -2.568338485054    -3.079251813543
    H            3.558518581226    -3.663953416706    -1.707739110490
    H            3.850067884652    -1.936205853096    -1.500218546313

  Mulliken Charges: (a.u.)
   Center  Symbol    Alpha    Beta     Spin     Total
       1     O     4.25907  4.25907  0.00000 -0.51814
       2     C     2.60977  2.60977  0.00000  0.78045
       3     C     3.21305  3.21305  0.00000 -0.42610
       4     O     4.31633  4.31633  0.00000 -0.63265
       5     C     3.15442  3.15442  0.00000 -0.30884
       6     H     0.39582  0.39582  0.00000  0.20835
       7     H     0.40754  0.40754  0.00000  0.18491
       8     C     3.15643  3.15643  0.00000 -0.31286
       9     H     0.41145  0.41145  0.00000  0.17709
      10     H     0.41022  0.41022  0.00000  0.17956
      11     C     3.15509  3.15509  0.00000 -0.31019
      12     H     0.41795  0.41795  0.00000  0.16411
      13     H     0.42455  0.42455  0.00000  0.15091
      14     C     3.15033  3.15033  0.00000 -0.30066
      15     H     0.42194  0.42194  0.00000  0.15611
      16     H     0.42361  0.42361  0.00000  0.15279
      17     C     3.15151  3.15151  0.00000 -0.30303
      18     H     0.42321  0.42321  0.00000  0.15357
      19     H     0.42425  0.42425  0.00000  0.15150
      20     C     3.23938  3.23938  0.00000 -0.47876
      21     H     0.42247  0.42247  0.00000  0.15507
      22     H     0.42337  0.42337  0.00000  0.15325
      23     H     0.41905  0.41905  0.00000  0.16190
      24     H     0.42149  0.42149  0.00000  0.15701
      25     H     0.42196  0.42196  0.00000  0.15608
      26     C     3.09386  3.09386  0.00000 -0.18772
      27     H     0.40582  0.40582  0.00000  0.18836
      28     H     0.40424  0.40424  0.00000  0.19151
      29     H     0.42180  0.42180  0.00000  0.15640

   Total alpha = 44.00000, Total beta = 44.00000, Total charge =  0.00000
