  ==> Input File <==

--------------------------------------------------------------------------
set {
	reference rhf
	basis cc-pvtz
}

set_num_threads( 4 )
memory 2 gb

molecule MOL {
0 1

H	 0.903919	 1.678090	 0.000090
O	 0.057669	 1.301365	 -0.158528
C	 0.004145	 -0.005141	 0.363049
C	 1.199168	 -0.827145	 -0.096690
C	 -1.316386	 -0.602081	 -0.083515
H	 0.012026	 0.043363	 1.450619
H	 1.216685	 -0.896776	 -1.178167
H	 2.129940	 -0.372354	 0.228035
H	 1.160783	 -1.829622	 0.314294
H	 -1.357882	 -0.655920	 -1.165207
H	 -2.140147	 0.011735	 0.257253
H	 -1.440790	 -1.601175	 0.317669

	symmetry c1
}
set optking {
	frozen_dihedral = ("
		1 2 3 4
	")
}

ee = optimize('scf')
oeprop('DIPOLE', 'QUADRUPOLE', 'MULLIKEN_CHARGES')
f=open( 'psi4out.xyz', 'w' )
f.write( "12  " )
f.write( str(ee) + "\n" )
f.write( MOL.save_string_xyz() )
f.close()
--------------------------------------------------------------------------

    Molecular point group: c1
  Charge       = 0
  Multiplicity = 1
  Basis Set: CC-PVTZ
  Basis Set:
  @DF-RHF Final Energy:  -193.19595861382686
    Total Energy =                       -193.1959586138268037
    Molecular point group: c1
  Basis Set: CC-PVTZ
  Basis Set:
  Basis Set: CC-PVTZ
  Basis Set:
  @DF-RHF Final Energy:  -193.19596390485418
    Total Energy =                       -193.1959639048541817
  Basis Set: CC-PVTZ
  Basis Set:
  Basis Set: CC-PVTZ
  Basis Set:
  @DF-RHF Final Energy:  -193.19596493086152
    Total Energy =                       -193.1959649308615212
  Basis Set: CC-PVTZ
  Basis Set:
  Charge       = 0
  Multiplicity = 1
  Basis Set: CC-PVTZ
  Basis Set:

    Orbital Energies (a.u.)
    -----------------------

    Doubly Occupied:

       1A    -20.544105     2A    -11.273988     3A    -11.212654
       4A    -11.205184     5A     -1.364710     6A     -1.043481
       7A     -0.941530     8A     -0.804808     9A     -0.698492
      10A     -0.631821    11A     -0.606798    12A     -0.546845
      13A     -0.533820    14A     -0.531354    15A     -0.512664
      16A     -0.469757    17A     -0.432620

  @DF-RHF Final Energy:  -193.19596496495751

   => Energetics <=

    Nuclear Repulsion Energy =            135.7620969046463415
    One-Electron Energy =                -531.2068598703599491
    Two-Electron Energy =                 202.2487980007560964
    DFT Exchange-Correlation Energy =       0.0000000000000000
    Empirical Dispersion Energy =           0.0000000000000000
    PCM Polarization Energy =               0.0000000000000000
    EFP Energy =                            0.0000000000000000
    Total Energy =                       -193.1959649649575113
    Molecular point group: c1
  Basis Set: CC-PVTZ
  Basis Set:

  -Total Gradient:
     Atom            X                  Y                   Z
    ------   -----------------  -----------------  -----------------
       1        0.000254791920    -0.000273413972    -0.000677636090
       2       -0.000207410570     0.000406324768     0.000978205392
       3       -0.000297919912    -0.000272769482    -0.000688105065
       4        0.000248532663     0.000146637266     0.000388747270
       5        0.000000496366    -0.000004969770    -0.000002345919
       6        0.000003039852    -0.000004874872     0.000000243870
       7       -0.000003467950    -0.000000459511     0.000000798691
       8        0.000003164279     0.000000056374    -0.000000628873
       9       -0.000000658549     0.000003073316     0.000000551805
      10       -0.000000687773     0.000000281923    -0.000000026575
      11        0.000001721287    -0.000000270496    -0.000000528767
      12       -0.000001601613     0.000000384456     0.000000724262

  **** Optimization is complete! (in 4 steps) ****
    Final optimized geometry and variables:
    Molecular point group: c1

    Geometry (in Angstrom), charge = 0, multiplicity = 1:

    H            0.900990942230     1.681190390704     0.007755173128
    O            0.055825804183     1.303191615474    -0.153325003068
    C            0.003631100878    -0.005442801324     0.362681889303
    C            1.199377917323    -0.825898873709    -0.097099816642
    C           -1.317726257896    -0.601875523537    -0.081583957723
    H            0.013959441771     0.040762516564     1.450459361123
    H            1.219689460733    -0.894839082417    -1.178770061772
    H            2.129594913885    -0.372254778896     0.231522619223
    H            1.160229057341    -1.828774124995     0.312331735748
    H           -1.358003074274    -0.665750706584    -1.162759348269
    H           -2.139540325993     0.018410746133     0.252267960135
    H           -1.446997919758    -1.596269951037     0.329737591893

  Mulliken Charges: (a.u.)
   Center  Symbol    Alpha    Beta     Spin     Total
       1     H     0.39559  0.39559  0.00000  0.20882
       2     O     4.20476  4.20476  0.00000 -0.40952
       3     C     2.92088  2.92088  0.00000  0.15823
       4     C     3.14727  3.14727  0.00000 -0.29454
       5     C     3.14195  3.14195  0.00000 -0.28390
       6     H     0.46675  0.46675  0.00000  0.06649
       7     H     0.45064  0.45064  0.00000  0.09873
       8     H     0.45820  0.45820  0.00000  0.08359
       9     H     0.45540  0.45540  0.00000  0.08920
      10     H     0.45348  0.45348  0.00000  0.09303
      11     H     0.44611  0.44611  0.00000  0.10779
      12     H     0.45896  0.45896  0.00000  0.08208

   Total alpha = 17.00000, Total beta = 17.00000, Total charge = -0.00000
