  ==> Input File <==

--------------------------------------------------------------------------
set {
	reference rhf
	basis 6-31G*
}

set_num_threads( 4 )
memory 2 gb

molecule MOL {
0 1

O	 0.749854	 1.307668	 -0.000040
C	 0.576249	 0.131685	 -0.000108
C	 -0.766779	 -0.556801	 -0.000461
O	 1.568443	 -0.749345	 -0.000005
C	 -1.945214	 0.412366	 0.000161
H	 -0.796911	 -1.211249	 -0.867467
H	 -0.796854	 -1.212390	 0.865687
C	 -3.287791	 -0.317055	 0.000105
H	 -1.876087	 1.060580	 -0.866812
H	 -1.875822	 1.059691	 0.867761
H	 -3.394745	 -0.949193	 -0.877058
H	 -4.111778	 0.388953	 0.000015
H	 -3.394954	 -0.949187	 0.877259
C	 1.211189	 -2.119592	 -0.000106
H	 0.633639	 -2.361724	 0.880434
H	 2.140912	 -2.666841	 0.000310
H	 0.634326	 -2.361879	 -0.881035

	symmetry c1
}
set optking {
	frozen_dihedral = ("
		14 4 2 1
	")
}

ee = optimize('scf')
oeprop('DIPOLE', 'QUADRUPOLE', 'MULLIKEN_CHARGES')
f=open( 'psi4out.xyz', 'w' )
f.write( "17  " )
f.write( str(ee) + "\n" )
f.write( MOL.save_string_xyz() )
f.close()
--------------------------------------------------------------------------

    Molecular point group: c1
  Charge       = 0
  Multiplicity = 1
  Basis Set: 6-31G*
  Basis Set:
  @DF-RHF Final Energy:  -344.87873481462452
    Total Energy =                       -344.8787348146246359
    Molecular point group: c1
  Basis Set: 6-31G*
  Basis Set:
  Basis Set: 6-31G*
  Basis Set:
  @DF-RHF Final Energy:  -344.87614811672313
    Total Energy =                       -344.8761481167231295
  Basis Set: 6-31G*
  Basis Set:
  Basis Set: 6-31G*
  Basis Set:
  @DF-RHF Final Energy:  -344.88736263863075
    Total Energy =                       -344.8873626386309752
  Basis Set: 6-31G*
  Basis Set:
  Basis Set: 6-31G*
  Basis Set:
  @DF-RHF Final Energy:  -344.89056829584348
    Total Energy =                       -344.8905682958436500
  Basis Set: 6-31G*
  Basis Set:
  @DF-RHF Final Energy:  -344.89078983605731
    Total Energy =                       -344.8907898360571949
  @DF-RHF Final Energy:  -344.89151262239778
    Total Energy =                       -344.8915126223979541
  Basis Set: 6-31G*
  Basis Set:
  @DF-RHF Final Energy:  -344.89168415418311
    Total Energy =                       -344.8916841541832810
  Basis Set: 6-31G*
  Basis Set:
  Basis Set: 6-31G*
  Basis Set:
  @DF-RHF Final Energy:  -344.89169137650816
    Total Energy =                       -344.8916913765077652
  Basis Set: 6-31G*
  Basis Set:
  Basis Set: 6-31G*
  Basis Set:
  @DF-RHF Final Energy:  -344.89169019257093
    Total Energy =                       -344.8916901925712182
  Basis Set: 6-31G*
  Basis Set:
  Charge       = 0
  Multiplicity = 1
  Basis Set: 6-31G*
  Basis Set:

    Orbital Energies (a.u.)
    -----------------------

    Doubly Occupied:

       1A    -20.602823     2A    -20.538968     3A    -11.374221
       4A    -11.296955     5A    -11.246573     6A    -11.226328
       7A    -11.218831     8A     -1.463524     9A     -1.364826
      10A     -1.083100    11A     -0.990762    12A     -0.969697
      13A     -0.839253    14A     -0.767067    15A     -0.704642
      16A     -0.690004    17A     -0.672670    18A     -0.641380
      19A     -0.601685    20A     -0.578019    21A     -0.573679
      22A     -0.540326    23A     -0.537413    24A     -0.496264
      25A     -0.490815    26A     -0.484624    27A     -0.446411
      28A     -0.431400

  @DF-RHF Final Energy:  -344.89170072889681

   => Energetics <=

    Nuclear Repulsion Energy =            314.0194570679602748
    One-Electron Energy =               -1092.0777937877651311
    Two-Electron Energy =                 433.1666359909082757
    DFT Exchange-Correlation Energy =       0.0000000000000000
    Empirical Dispersion Energy =           0.0000000000000000
    PCM Polarization Energy =               0.0000000000000000
    EFP Energy =                            0.0000000000000000
    Total Energy =                       -344.8917007288965806
    Molecular point group: c1
  Basis Set: 6-31G*
  Basis Set:

  -Total Gradient:
     Atom            X                  Y                   Z
    ------   -----------------  -----------------  -----------------
       1        0.000047224102    -0.000019695917    -0.000016256571
       2        0.000004589230    -0.000048909466     0.000043767044
       3       -0.000023453168     0.000017974779    -0.000013678793
       4        0.000019412491     0.000115810471    -0.000014950204
       5       -0.000014010166    -0.000002570189     0.000000063493
       6       -0.000017744775     0.000004082380     0.000005263370
       7       -0.000013211188     0.000008601762    -0.000006142043
       8       -0.000003595276     0.000002220058    -0.000000715129
       9       -0.000000032075    -0.000001729006     0.000002613493
      10        0.000000508263    -0.000002445681    -0.000002909342
      11       -0.000000872369    -0.000001070194    -0.000000400845
      12       -0.000004356955     0.000000446320    -0.000000010408
      13       -0.000000793694    -0.000000996682     0.000000701418
      14       -0.000056808243    -0.000131845358     0.000005160643
      15        0.000013889286     0.000007066580    -0.000004699180
      16        0.000037251261     0.000039457783    -0.000000784193
      17        0.000012003268     0.000013602354     0.000002977247

  **** Optimization is complete! (in 10 steps) ****
    Final optimized geometry and variables:
    Molecular point group: c1

    Geometry (in Angstrom), charge = 0, multiplicity = 1:

    O            0.963489541795     1.518532173793     0.000367991932
    C            0.780730586885     0.348605188628     0.000202195425
    C           -0.601713511166    -0.275011299637    -0.000081884742
    O            1.837011109700    -0.468543839306    -0.000064356338
    C           -1.716946140782     0.767961974540     0.000117062683
    H           -0.692282183727    -0.922721445846    -0.868443804362
    H           -0.692425105454    -0.923208807644     0.867898634540
    C           -3.102072358409     0.123243589478    -0.000196246368
    H           -1.604490886065     1.409282139392    -0.866443357887
    H           -1.604649297046     1.408780267333     0.867069703091
    H           -3.250009831531    -0.500208576567    -0.877797407039
    H           -3.879378662329     0.880129807463    -0.000064773081
    H           -3.250182043324    -0.500690536951     0.877033588549
    C            1.729157195041    -1.872054418740    -0.000290802274
    H            1.222136595314    -2.235581639707     0.884570114472
    H            2.742566978779    -2.242113742518    -0.000642105726
    H            1.221660375748    -2.235214841637    -0.885026669036

  Mulliken Charges: (a.u.)
   Center  Symbol    Alpha    Beta     Spin     Total
       1     O     4.26787  4.26787  0.00000 -0.53574
       2     C     2.59785  2.59785  0.00000  0.80430
       3     C     3.23281  3.23281  0.00000 -0.46562
       4     O     4.30309  4.30309  0.00000 -0.60617
       5     C     3.14824  3.14824  0.00000 -0.29648
       6     H     0.40457  0.40457  0.00000  0.19085
       7     H     0.40458  0.40458  0.00000  0.19084
       8     C     3.24359  3.24359  0.00000 -0.48718
       9     H     0.40778  0.40778  0.00000  0.18445
      10     H     0.40778  0.40778  0.00000  0.18444
      11     H     0.42207  0.42207  0.00000  0.15586
      12     H     0.41341  0.41341  0.00000  0.17317
      13     H     0.42207  0.42207  0.00000  0.15586
      14     C     3.09325  3.09325  0.00000 -0.18651
      15     H     0.41671  0.41671  0.00000  0.16657
      16     H     0.39760  0.39760  0.00000  0.20481
      17     H     0.41672  0.41672  0.00000  0.16656

   Total alpha = 28.00000, Total beta = 28.00000, Total charge =  0.00000
