  ==> Input File <==

--------------------------------------------------------------------------
set {
	reference rhf
	basis 6-31G*
}

set_num_threads( 4 )
memory 2 gb

molecule MOL {
0 1

O	 -0.256594	 -0.462561	 1.871111
C	 -0.254285	 0.285690	 0.930464
C	 -1.267178	 1.412597	 0.851631
N	 0.623947	 0.147590	 -0.102813
H	 -1.887453	 1.328290	 -0.033940
H	 -1.892076	 1.346569	 1.729235
H	 -0.783339	 2.383224	 0.832486
C	 1.665360	 -0.855771	 0.000151
C	 0.819423	 1.139042	 -1.137732
H	 2.465253	 -0.618490	 -0.692587
H	 1.257730	 -1.821716	 -0.242189
H	 2.081488	 -0.891645	 1.004627
H	 1.092939	 0.639706	 -2.059628
H	 -0.082310	 1.699798	 -1.325785
H	 1.615187	 1.837738	 -0.885946

	symmetry c1
}
set optking {
	frozen_dihedral = ("
		2 4 8 10
	")
}

ee = optimize('scf')
oeprop('DIPOLE', 'QUADRUPOLE', 'MULLIKEN_CHARGES')
f=open( 'psi4out.xyz', 'w' )
f.write( "15  " )
f.write( str(ee) + "\n" )
f.write( MOL.save_string_xyz() )
f.close()
--------------------------------------------------------------------------

    Molecular point group: c1
  Charge       = 0
  Multiplicity = 1
  Basis Set: 6-31G*
  Basis Set:
  @DF-RHF Final Energy:  -286.02772752185530
    Total Energy =                       -286.0277275218553541
    Molecular point group: c1
  Basis Set: 6-31G*
  Basis Set:
  Basis Set: 6-31G*
  Basis Set:
  @DF-RHF Final Energy:  -286.02839408598743
    Total Energy =                       -286.0283940859874292
  Basis Set: 6-31G*
  Basis Set:
  Basis Set: 6-31G*
  Basis Set:
  @DF-RHF Final Energy:  -286.02853805871894
    Total Energy =                       -286.0285380587189934
  Basis Set: 6-31G*
  Basis Set:
  Basis Set: 6-31G*
  Basis Set:
  @DF-RHF Final Energy:  -286.02848798900425
    Total Energy =                       -286.0284879890043612
  Basis Set: 6-31G*
  Basis Set:
  @DF-RHF Final Energy:  -286.02879664193802
    Total Energy =                       -286.0287966419380155
  @DF-RHF Final Energy:  -286.02894877437359
    Total Energy =                       -286.0289487743734185
  @DF-RHF Final Energy:  -286.02905279847050
    Total Energy =                       -286.0290527984706728
  @DF-RHF Final Energy:  -286.02926679418908
    Total Energy =                       -286.0292667941889704
  @DF-RHF Final Energy:  -286.02944579840982
    Total Energy =                       -286.0294457984095970
  @DF-RHF Final Energy:  -286.02960628896369
    Total Energy =                       -286.0296062889638620
  Basis Set: 6-31G*
  Basis Set:
  @DF-RHF Final Energy:  -286.02955787913169
    Total Energy =                       -286.0295578791316302
  Basis Set: 6-31G*
  Basis Set:
  Basis Set: 6-31G*
  Basis Set:
  @DF-RHF Final Energy:  -286.02965683718980
    Total Energy =                       -286.0296568371899752
  Basis Set: 6-31G*
  Basis Set:
  Basis Set: 6-31G*
  Basis Set:
  @DF-RHF Final Energy:  -286.02966638340035
    Total Energy =                       -286.0296663834003539
  Basis Set: 6-31G*
  Basis Set:
  Charge       = 0
  Multiplicity = 1
  Basis Set: 6-31G*
  Basis Set:

    Orbital Energies (a.u.)
    -----------------------

    Doubly Occupied:

       1A    -20.515569     2A    -15.583219     3A    -11.340731
       4A    -11.266457     5A    -11.248023     6A    -11.228456
       7A     -1.385251     8A     -1.242884     9A     -1.014036
      10A     -0.972777    11A     -0.918103    12A     -0.737407
      13A     -0.680539    14A     -0.658539    15A     -0.651350
      16A     -0.588717    17A     -0.576386    18A     -0.569002
      19A     -0.562626    20A     -0.545971    21A     -0.529952
      22A     -0.501501    23A     -0.411181    24A     -0.367428

  @DF-RHF Final Energy:  -286.02966724158802

   => Energetics <=

    Nuclear Repulsion Energy =            252.5626170108184283
    One-Electron Energy =                -888.9923625395254021
    Two-Electron Energy =                 350.4000782871186743
    DFT Exchange-Correlation Energy =       0.0000000000000000
    Empirical Dispersion Energy =           0.0000000000000000
    PCM Polarization Energy =               0.0000000000000000
    EFP Energy =                            0.0000000000000000
    Total Energy =                       -286.0296672415882426
    Molecular point group: c1
  Basis Set: 6-31G*
  Basis Set:

  -Total Gradient:
     Atom            X                  Y                   Z
    ------   -----------------  -----------------  -----------------
       1        0.000068473489     0.000016414197    -0.000043382554
       2       -0.000263906780    -0.000277996054    -0.000312309115
       3        0.000009081660     0.000004494110    -0.000034927576
       4        0.000327706875     0.000275064095     0.000301762981
       5        0.000001601413     0.000004935264     0.000007365537
       6        0.000008967808    -0.000006041975     0.000004378597
       7        0.000010084605     0.000005083117    -0.000003661585
       8        0.000105120953     0.000148880085     0.000535219385
       9        0.000001999447    -0.000030892412    -0.000014054843
      10       -0.000186423445    -0.000167197046    -0.000492664471
      11       -0.000037768991     0.000030590543    -0.000002584518
      12       -0.000012767038    -0.000012014195     0.000012173960
      13       -0.000003071690    -0.000004653284    -0.000014293689
      14       -0.000018443664     0.000020733594     0.000022625932
      15       -0.000010654642    -0.000007400037     0.000034351959

  **** Optimization is complete! (in 14 steps) ****
    Final optimized geometry and variables:
    Molecular point group: c1

    Geometry (in Angstrom), charge = 0, multiplicity = 1:

    O           -0.561929713291    -0.847077439242     1.373903498493
    C           -0.489070083659    -0.002203335412     0.522627495997
    C           -1.549413275814     1.077640616930     0.421773327712
    N            0.551641159603     0.038276578371    -0.358174426591
    H           -2.092453593071     1.013096647361    -0.515235829314
    H           -2.239480758619     0.930925091485     1.238803378549
    H           -1.116978050104     2.069506204573     0.492334155682
    C            1.492261400081    -1.066564069169    -0.323892475657
    C            0.534116512525     0.818457069235    -1.577235162104
    H            2.418678676035    -0.754210852300    -0.789575597582
    H            1.113499721062    -1.934534881823    -0.858314134173
    H            1.682995287608    -1.351541488528     0.697404584759
    H            0.101720447814     0.267701645977    -2.410965219218
    H           -0.019917765790     1.734985171480    -1.448719827429
    H            1.549610355367     1.085098016889    -1.842393837337

  Mulliken Charges: (a.u.)
   Center  Symbol    Alpha    Beta     Spin     Total
       1     O     4.30312  4.30312  0.00000 -0.60624
       2     C     2.62547  2.62547  0.00000  0.74907
       3     C     3.29822  3.29822  0.00000 -0.59643
       4     N     3.82211  3.82211  0.00000 -0.64422
       5     H     0.40756  0.40756  0.00000  0.18489
       6     H     0.39066  0.39066  0.00000  0.21869
       7     H     0.40649  0.40649  0.00000  0.18702
       8     C     3.14066  3.14066  0.00000 -0.28131
       9     C     3.14277  3.14277  0.00000 -0.28554
      10     H     0.41944  0.41944  0.00000  0.16111
      11     H     0.41763  0.41763  0.00000  0.16474
      12     H     0.39135  0.39135  0.00000  0.21730
      13     H     0.41719  0.41719  0.00000  0.16561
      14     H     0.40738  0.40738  0.00000  0.18524
      15     H     0.40996  0.40996  0.00000  0.18008

   Total alpha = 24.00000, Total beta = 24.00000, Total charge =  0.00000
