  ==> Input File <==

--------------------------------------------------------------------------
set {
	reference rhf
	basis 6-31G*
}

set_num_threads( 4 )
memory 2 gb

molecule MOL {
0 1

H	 2.845955	 -0.323208	 0.022310
C	 1.900140	 0.071967	 -0.330070
C	 0.778463	 -0.508087	 0.517968
H	 1.782469	 -0.206877	 -1.370777
H	 1.922247	 1.149867	 -0.254252
N	 -0.540928	 0.005139	 0.058438
H	 0.716718	 -1.581298	 0.454712
H	 0.859711	 -0.198647	 1.550086
O	 -1.405910	 0.112681	 0.870543
O	 -0.640787	 0.276393	 -1.099556

	symmetry c1
}
set optking {
	frozen_dihedral = ("
		9 6 3 2
	")
}

ee = optimize('scf')
oeprop('DIPOLE', 'QUADRUPOLE', 'MULLIKEN_CHARGES')
f=open( 'psi4out.xyz', 'w' )
f.write( "10  " )
f.write( str(ee) + "\n" )
f.write( MOL.save_string_xyz() )
f.close()
--------------------------------------------------------------------------

    Molecular point group: c1
  Charge       = 0
  Multiplicity = 1
  Basis Set: 6-31G*
  Basis Set:
  @DF-RHF Final Energy:  -282.69964074059038
    Total Energy =                       -282.6996407405903255
    Molecular point group: c1
  Basis Set: 6-31G*
  Basis Set:
  Basis Set: 6-31G*
  Basis Set:
  @DF-RHF Final Energy:  -282.69644080816533
    Total Energy =                       -282.6964408081654483
  Basis Set: 6-31G*
  Basis Set:
  Basis Set: 6-31G*
  Basis Set:
  @DF-RHF Final Energy:  -282.69849190774937
    Total Energy =                       -282.6984919077494851
  Basis Set: 6-31G*
  Basis Set:
  Basis Set: 6-31G*
  Basis Set:
  @DF-RHF Final Energy:  -282.70035643829465
    Total Energy =                       -282.7003564382945910
  Basis Set: 6-31G*
  Basis Set:
  Basis Set: 6-31G*
  Basis Set:
  @DF-RHF Final Energy:  -282.70041783970134
    Total Energy =                       -282.7004178397014584
  Basis Set: 6-31G*
  Basis Set:
  Basis Set: 6-31G*
  Basis Set:
  @DF-RHF Final Energy:  -282.70042154099133
    Total Energy =                       -282.7004215409913286
  Basis Set: 6-31G*
  Basis Set:
  Charge       = 0
  Multiplicity = 1
  Basis Set: 6-31G*
  Basis Set:

    Orbital Energies (a.u.)
    -----------------------

    Doubly Occupied:

       1A    -20.603224     2A    -20.602196     3A    -15.849772
       4A    -11.304880     5A    -11.247613     6A     -1.633195
       7A     -1.418605     8A     -1.125985     9A     -0.967418
      10A     -0.834537    11A     -0.761546    12A     -0.744943
      13A     -0.726833    14A     -0.644344    15A     -0.592673
      16A     -0.564253    17A     -0.540227    18A     -0.486606
      19A     -0.478396    20A     -0.450737

  @DF-RHF Final Energy:  -282.70042195187943

   => Energetics <=

    Nuclear Repulsion Energy =            186.0845610045207934
    One-Electron Energy =                -754.4139987918786119
    Two-Electron Energy =                 285.6290158354784126
    DFT Exchange-Correlation Energy =       0.0000000000000000
    Empirical Dispersion Energy =           0.0000000000000000
    PCM Polarization Energy =               0.0000000000000000
    EFP Energy =                            0.0000000000000000
    Total Energy =                       -282.7004219518794343
    Molecular point group: c1
  Basis Set: 6-31G*
  Basis Set:

  -Total Gradient:
     Atom            X                  Y                   Z
    ------   -----------------  -----------------  -----------------
       1       -0.000006350257     0.000001616020    -0.000003474449
       2        0.000003061808    -0.000056309751    -0.000025625255
       3       -0.000012340565     0.000023086012     0.000066589869
       4        0.000002805829    -0.000006984674    -0.000018433824
       5       -0.000001345455    -0.000000595505     0.000002209398
       6        0.000085926775     0.000113258042     0.000044583357
       7        0.000017352050     0.000006817513     0.000002718486
       8        0.000017874235    -0.000001344172    -0.000000900126
       9       -0.000058763602    -0.000086833079    -0.000060039738
      10       -0.000048220814     0.000007289594    -0.000007627717

  **** Optimization is complete! (in 7 steps) ****
    Final optimized geometry and variables:
    Molecular point group: c1

    Geometry (in Angstrom), charge = 0, multiplicity = 1:

    H            2.861431904371    -0.312044962594     0.057714162036
    C            1.926617552699     0.075890300489    -0.331399215458
    C            0.789549165213    -0.482302474355     0.502772167669
    H            1.832879735761    -0.214634283568    -1.367584702285
    H            1.957851222157     1.157274039349    -0.276006456852
    N           -0.543578065416     0.016676065631     0.058437194327
    H            0.715915798400    -1.558939048661     0.419398689492
    H            0.856943122745    -0.219502950330     1.545595431278
    O           -1.385418753929     0.112298836932     0.896978182812
    O           -0.694718612952     0.250332611264    -1.100596619553

  Mulliken Charges: (a.u.)
   Center  Symbol    Alpha    Beta     Spin     Total
       1     H     0.40870  0.40870  0.00000  0.18261
       2     C     3.25282  3.25282  0.00000 -0.50564
       3     C     3.09542  3.09542  0.00000 -0.19083
       4     H     0.39420  0.39420  0.00000  0.21160
       5     H     0.40373  0.40373  0.00000  0.19254
       6     N     3.21919  3.21919  0.00000  0.56163
       7     H     0.38463  0.38463  0.00000  0.23074
       8     H     0.38496  0.38496  0.00000  0.23008
       9     O     4.22811  4.22811  0.00000 -0.45622
      10     O     4.22825  4.22825  0.00000 -0.45650

   Total alpha = 20.00000, Total beta = 20.00000, Total charge = -0.00000
