                              Psi4 1.0.54 Driver

  ==> Input File <==

--------------------------------------------------------------------------
set {
	reference rhf
	basis cc-pvtz
}

set_num_threads( 4 )
memory 2 gb

molecule MOL {
0 1

H	 -0.419207	 2.977476	 -2.601896
O	 -0.903492	 2.190767	 -2.430260
C	 -0.511965	 1.639005	 -1.204534
C	 0.855360	 0.991342	 -1.298074
H	 -0.508501	 2.383511	 -0.414706
H	 -1.247507	 0.890762	 -0.946091
O	 1.172093	 0.457955	 -0.054438
H	 1.598538	 1.732446	 -1.596987
H	 0.839704	 0.218060	 -2.063165
C	 2.395478	 -0.199028	 -0.000366
H	 2.505946	 -0.901710	 -0.823354
H	 3.174616	 0.545641	 -0.071768
H	 2.513730	 -0.742241	 0.934223

	symmetry c1
}
set optking {
	frozen_dihedral = ("
		4 7 10 13
	")
}

ee,wfn = optimize('scf', return_wfn=True)
oeprop( wfn, 'DIPOLE', 'QUADRUPOLE', 'MULLIKEN_CHARGES')
f=open( 'psi4out.xyz', 'w' )
f.write( "13  " )
f.write( str(ee) + "\n" )
f.write( MOL.save_string_xyz() )
f.close()
--------------------------------------------------------------------------

    Molecular point group: c1
  Charge       = 0
  Multiplicity = 1
  Basis Set: CC-PVTZ
  Basis Set:
  @DF-RHF Final Energy:  -268.06107212094480
    Total Energy =                       -268.0610721209450276
    Molecular point group: c1
  Basis Set: CC-PVTZ
  Basis Set:
  Basis Set: CC-PVTZ
  Basis Set:
  @DF-RHF Final Energy:  -268.06187131063524
    Total Energy =                       -268.0618713106351834
  Basis Set: CC-PVTZ
  Basis Set:
  Basis Set: CC-PVTZ
  Basis Set:
  @DF-RHF Final Energy:  -268.06208041393558
    Total Energy =                       -268.0620804139356892
  Basis Set: CC-PVTZ
  Basis Set:
  Charge       = 0
  Multiplicity = 1
  Basis Set: CC-PVTZ
  Basis Set:

    Orbital Energies (a.u.)
    -----------------------

    Doubly Occupied:

       1A    -20.555881     2A    -20.552873     3A    -11.269347
       4A    -11.267770     5A    -11.267477     6A     -1.391882
       7A     -1.369255     8A     -1.019774     9A     -0.914028
      10A     -0.842859    11A     -0.712133    12A     -0.676302
      13A     -0.662972    14A     -0.639579    15A     -0.597419
      16A     -0.571896    17A     -0.546566    18A     -0.491873
      19A     -0.482995    20A     -0.441711    21A     -0.424568

  @DF-RHF Final Energy:  -268.06208102159201

   => Energetics <=

    Nuclear Repulsion Energy =            190.4933999651550778
    One-Electron Energy =                -743.7126445193605377
    Two-Electron Energy =                 285.1571635326135947
    DFT Exchange-Correlation Energy =       0.0000000000000000
    Empirical Dispersion Energy =           0.0000000000000000
    PCM Polarization Energy =               0.0000000000000000
    EFP Energy =                            0.0000000000000000
    Total Energy =                       -268.0620810215918937
    Molecular point group: c1
  Basis Set: CC-PVTZ
  Basis Set:

  -Total Gradient:
     Atom            X                  Y                   Z
    ------   -----------------  -----------------  -----------------
       1        0.000004626085     0.000008602391    -0.000007188572
       2        0.000089591063    -0.000037388707     0.000056479691
       3       -0.000045202884    -0.000038764256     0.000093428068
       4       -0.000435734271    -0.000987124498    -0.000395356710
       5       -0.000012315507     0.000025141144    -0.000007076096
       6       -0.000004607843    -0.000004351016     0.000008736267
       7        0.000560560290     0.001109193021     0.000285556303
       8        0.000010872865    -0.000008259238     0.000038798609
       9        0.000004082015    -0.000007309863    -0.000013638820
      10        0.000491668981     0.000977344962     0.000484375072
      11       -0.000020954787     0.000002108442    -0.000011205279
      12       -0.000026251112     0.000019574754     0.000004144950
      13       -0.000616334899    -0.001058767137    -0.000537053481

  **** Optimization is complete! (in 4 steps) ****
    Final optimized geometry and variables:
    Molecular point group: c1

    Geometry (in Angstrom), charge = 0, multiplicity = 1:

    H           -1.005217794531     1.932589115318    -1.605978520559
    O           -1.500140475234     1.156636499597    -1.416534546062
    C           -1.104636107148     0.618780139820    -0.185976093637
    C            0.251875921753    -0.050603823793    -0.283045001666
    H           -1.082419964242     1.375739074252     0.591612098831
    H           -1.848226772365    -0.114491204156     0.091725972051
    O            0.570228544389    -0.573259873979     0.964651033092
    H            1.002882389110     0.675898409480    -0.598429668094
    H            0.218402722464    -0.833833759264    -1.037057203617
    C            1.787950059151    -1.240934778012     1.022303556710
    H            1.869864430936    -1.984196843564     0.232752343848
    H            2.624621712397    -0.551802273263     0.934797038168
    H            1.843324825664    -1.748093160988     1.974457732319

  Mulliken Charges: (a.u.)
   Center  Symbol    Alpha    Beta     Spin     Total
       1     H     0.39411  0.39411  0.00000  0.21177
       2     O     4.20210  4.20210  0.00000 -0.40421
       3     C     2.97349  2.97349  0.00000  0.05302
       4     C     2.96524  2.96524  0.00000  0.06952
       5     H     0.46667  0.46667  0.00000  0.06665
       6     H     0.45276  0.45276  0.00000  0.09447
       7     O     4.17572  4.17572  0.00000 -0.35143
       8     H     0.48286  0.48286  0.00000  0.03428
       9     H     0.46863  0.46863  0.00000  0.06275
      10     C     3.03161  3.03161  0.00000 -0.06321
      11     H     0.47164  0.47164  0.00000  0.05672
      12     H     0.46892  0.46892  0.00000  0.06216
      13     H     0.44624  0.44624  0.00000  0.10751

   Total alpha = 21.00000, Total beta = 21.00000, Total charge = -0.00000

*** Psi4 exiting successfully. Buy a developer a beer!
