  ==> Input File <==

--------------------------------------------------------------------------
set {
	reference rhf
	basis 6-31G*
}

set_num_threads( 1 )
memory 2 gb

molecule MOL {
0 1

O	 -2.821601	 1.309235	 -0.001213
C	 -2.668563	 0.129746	 -0.000350
C	 -3.801572	 -0.864014	 -0.000442
O	 -1.481751	 -0.454642	 0.000584
H	 -4.417280	 -0.689587	 -0.874708
H	 -3.443784	 -1.883046	 -0.000565
H	 -4.417179	 -0.689832	 0.873954
C	 -0.334255	 0.388708	 0.000906
C	 0.891947	 -0.504646	 0.000751
H	 -0.365390	 1.025305	 -0.873475
H	 -0.365484	 1.024911	 0.875569
C	 2.191998	 0.301789	 0.000897
H	 0.855148	 -1.151283	 -0.871571
H	 0.855132	 -1.151660	 0.872805
C	 3.441114	 -0.581407	 0.000108
H	 2.215074	 0.954890	 -0.869742
H	 2.215465	 0.953923	 0.872248
C	 4.585197	 0.006507	 -0.824693
H	 3.185158	 -1.565293	 -0.386585
H	 3.774564	 -0.732950	 1.024274
H	 4.293029	 0.138459	 -1.862595
H	 5.455685	 -0.641678	 -0.806178
H	 4.887089	 0.976872	 -0.440945

	symmetry c1
}
set optking {
	frozen_dihedral = ("
		13 9 8 10,
		2 4 8 10,
		16 12 9 13,
		1 2 4 8
	")
}

ee = energy('scf')
oeprop('DIPOLE', 'QUADRUPOLE', 'MULLIKEN_CHARGES')
f=open( 'psi4out.xyz', 'w' )
f.write( "23  " )
f.write( str(ee) + "\n" )
f.write( MOL.save_string_xyz() )
f.close()
--------------------------------------------------------------------------

    Molecular point group: c1

    Geometry (in Angstrom), charge = 0, multiplicity = 1:

       Center              X                  Y                   Z               Mass
    ------------   -----------------  -----------------  -----------------  -----------------
           O         -2.803777027281     1.334357935873     0.093873995858    15.994914619560
           C         -2.650739027281     0.154868935873     0.094736995858    12.000000000000
           C         -3.783748027281    -0.838891064127     0.094644995858    12.000000000000
           O         -1.463927027281    -0.429519064127     0.095670995858    15.994914619560
           H         -4.399456027281    -0.664464064127    -0.779621004142     1.007825032070
           H         -3.425960027281    -1.857923064127     0.094521995858     1.007825032070
           H         -4.399355027281    -0.664709064127     0.969040995858     1.007825032070
           C         -0.316431027281     0.413830935873     0.095992995858    12.000000000000
           C          0.909770972719    -0.479523064127     0.095837995858    12.000000000000
           H         -0.347566027281     1.050427935873    -0.778388004142     1.007825032070
           H         -0.347660027281     1.050033935873     0.970655995858     1.007825032070
           C          2.209821972719     0.326911935873     0.095983995858    12.000000000000
           H          0.872971972719    -1.126160064127    -0.776484004142     1.007825032070
           H          0.872955972719    -1.126537064127     0.967891995858     1.007825032070
           C          3.458937972719    -0.556284064127     0.095194995858    12.000000000000
           H          2.232897972719     0.980012935873    -0.774655004142     1.007825032070
           H          2.233288972719     0.979045935873     0.967334995858     1.007825032070
           C          4.603020972719     0.031629935873    -0.729606004142    12.000000000000
           H          3.202981972719    -1.540170064127    -0.291498004142     1.007825032070
           H          3.792387972719    -0.707827064127     1.119360995858     1.007825032070
           H          4.310852972719     0.163581935873    -1.767508004142     1.007825032070
           H          5.473508972719    -0.616555064127    -0.711091004142     1.007825032070
           H          4.904912972719     1.001994935873    -0.345858004142     1.007825032070

  Charge       = 0
  Multiplicity = 1
  Basis Set: 6-31G*
  Basis Set:

    Orbital Energies (a.u.)
    -----------------------

    Doubly Occupied:

       1A    -20.602921     2A    -20.540502     3A    -11.374025
       4A    -11.281170     5A    -11.232362     6A    -11.224523
       7A    -11.222870     8A    -11.220593     9A    -11.213145
      10A     -1.467901    11A     -1.360684    12A     -1.094285
      13A     -1.042092    14A     -1.003228    15A     -0.930728
      16A     -0.842685    17A     -0.802320    18A     -0.774178
      19A     -0.691780    20A     -0.685155    21A     -0.668430
      22A     -0.643048    23A     -0.607926    24A     -0.590722
      25A     -0.582288    26A     -0.569661    27A     -0.554289
      28A     -0.535787    29A     -0.524899    30A     -0.504303
      31A     -0.496103    32A     -0.475655    33A     -0.466862
      34A     -0.464768    35A     -0.451238    36A     -0.435200

  @DF-RHF Final Energy:  -422.97570280993392

   => Energetics <=

    Nuclear Repulsion Energy =            450.2221575283404604
    One-Electron Energy =               -1468.0390176104003785
    Two-Electron Energy =                 594.8411572721253151
    DFT Exchange-Correlation Energy =       0.0000000000000000
    Empirical Dispersion Energy =           0.0000000000000000
    PCM Polarization Energy =               0.0000000000000000
    EFP Energy =                            0.0000000000000000
    Total Energy =                       -422.9757028099346599

  Mulliken Charges: (a.u.)
   Center  Symbol    Alpha    Beta     Spin     Total
       1     O     4.28391  4.28391  0.00000 -0.56781
       2     C     2.61533  2.61533  0.00000  0.76935
       3     C     3.28774  3.28774  0.00000 -0.57548
       4     O     4.31269  4.31269  0.00000 -0.62539
       5     H     0.39751  0.39751  0.00000  0.20497
       6     H     0.39988  0.39988  0.00000  0.20023
       7     H     0.39751  0.39751  0.00000  0.20497
       8     C     2.99604  2.99604  0.00000  0.00791
       9     C     3.16666  3.16666  0.00000 -0.33331
      10     H     0.41059  0.41059  0.00000  0.17881
      11     H     0.41073  0.41073  0.00000  0.17855
      12     C     3.16208  3.16208  0.00000 -0.32416
      13     H     0.41397  0.41397  0.00000  0.17205
      14     H     0.41391  0.41391  0.00000  0.17219
      15     C     3.15296  3.15296  0.00000 -0.30592
      16     H     0.41939  0.41939  0.00000  0.16123
      17     H     0.41872  0.41872  0.00000  0.16257
      18     C     3.24077  3.24077  0.00000 -0.48154
      19     H     0.41997  0.41997  0.00000  0.16005
      20     H     0.41933  0.41933  0.00000  0.16133
      21     H     0.42093  0.42093  0.00000  0.15815
      22     H     0.41885  0.41885  0.00000  0.16230
      23     H     0.42053  0.42053  0.00000  0.15893

   Total alpha = 36.00000, Total beta = 36.00000, Total charge = -0.00000
