  ==> Input File <==

--------------------------------------------------------------------------
set {
	reference rhf
	basis cc-pvtz
}

set_num_threads( 4 )
memory 2 gb

molecule MOL {
0 1

H	 3.284569	 -0.481742	 -0.019985
C	 2.228843	 -0.288392	 -0.015243
C	 1.741570	 0.860557	 0.589584
C	 1.364252	 -1.184520	 -0.611021
H	 2.419773	 1.552211	 1.050506
C	 0.387938	 1.112377	 0.597887
H	 1.744026	 -2.072295	 -1.078036
C	 0.005050	 -0.930241	 -0.601875
H	 -0.007782	 1.994623	 1.060169
C	 -0.486398	 0.214248	 0.000000
H	 -0.673519	 -1.623388	 -1.063682
C	 -1.946525	 0.470130	 0.000000
O	 -2.779618	 -0.371226	 0.000000
H	 -2.227127	 1.528393	 0.000000

	symmetry c1
}
set optking {
	frozen_dihedral = ("
		8 10 12 14
	")
}

ee = optimize('scf')
oeprop('DIPOLE', 'QUADRUPOLE', 'MULLIKEN_CHARGES')
f=open( 'psi4out.xyz', 'w' )
f.write( "14  " )
f.write( str(ee) + "\n" )
f.write( MOL.save_string_xyz() )
f.close()
--------------------------------------------------------------------------

    Molecular point group: c1
  Charge       = 0
  Multiplicity = 1
  Basis Set: CC-PVTZ
  Basis Set:
  @DF-RHF Final Energy:  -343.54680945531646
    Total Energy =                       -343.5468094553165770
    Molecular point group: c1
  Basis Set: CC-PVTZ
  Basis Set:
  Basis Set: CC-PVTZ
  Basis Set:
  @DF-RHF Final Energy:  -343.54443854214355
    Total Energy =                       -343.5444385421438938
  Basis Set: CC-PVTZ
  Basis Set:
  Basis Set: CC-PVTZ
  Basis Set:
  @DF-RHF Final Energy:  -343.54733101376416
    Total Energy =                       -343.5473310137645058
  Basis Set: CC-PVTZ
  Basis Set:
  Basis Set: CC-PVTZ
  Basis Set:
  @DF-RHF Final Energy:  -343.54744102066360
    Total Energy =                       -343.5474410206640528
  Basis Set: CC-PVTZ
  Basis Set:
  Basis Set: CC-PVTZ
  Basis Set:
  @DF-RHF Final Energy:  -343.54744500073423
    Total Energy =                       -343.5474450007343421
  Basis Set: CC-PVTZ
  Basis Set:
  Charge       = 0
  Multiplicity = 1
  Basis Set: CC-PVTZ
  Basis Set:

    Orbital Energies (a.u.)
    -----------------------

    Doubly Occupied:

       1A    -20.554725     2A    -11.327958     3A    -11.251451
       4A    -11.248621     5A    -11.247185     6A    -11.245865
       7A    -11.243681     8A    -11.242127     9A     -1.410297
      10A     -1.176747    11A     -1.051330    12A     -1.035734
      13A     -0.892277    14A     -0.847837    15A     -0.795159
      16A     -0.725638    17A     -0.682081    18A     -0.656961
      19A     -0.627308    20A     -0.622381    21A     -0.606102
      22A     -0.556639    23A     -0.530524    24A     -0.510565
      25A     -0.508723    26A     -0.426020    27A     -0.354859
      28A     -0.352509

  @DF-RHF Final Energy:  -343.54744619064729

   => Energetics <=

    Nuclear Repulsion Energy =            323.8244966764847277
    One-Electron Energy =               -1107.2812703484351005
    Two-Electron Energy =                 439.9093274813028529
    DFT Exchange-Correlation Energy =       0.0000000000000000
    Empirical Dispersion Energy =           0.0000000000000000
    PCM Polarization Energy =               0.0000000000000000
    EFP Energy =                            0.0000000000000000
    Total Energy =                       -343.5474461906475199
    Molecular point group: c1
  Basis Set: CC-PVTZ
  Basis Set:

  -Total Gradient:
     Atom            X                  Y                   Z
    ------   -----------------  -----------------  -----------------
       1        0.000002497059     0.000012138604    -0.000009363901
       2       -0.000036447583    -0.000127428075    -0.000044855038
       3       -0.000109604572     0.000065961886     0.000059152748
       4        0.000138781215     0.000061360085     0.000025605484
       5        0.000006467486    -0.000006426564    -0.000009664848
       6        0.000132302428     0.000038807787     0.000008331184
       7       -0.000007371905    -0.000006909038     0.000004132220
       8        0.000389279682     0.002278780996    -0.003600938551
       9        0.000000358070    -0.000007421369    -0.000007567349
      10       -0.000701817775    -0.003277363871     0.003681451370
      11       -0.000004503007    -0.000001456830    -0.000009815456
      12        0.000071562263     0.000826931590     0.005051541512
      13        0.000015272042     0.000034486546     0.000014898504
      14        0.000103224593     0.000108538255    -0.005162907879

  **** Optimization is complete! (in 6 steps) ****
    Final optimized geometry and variables:
    Molecular point group: c1

    Geometry (in Angstrom), charge = 0, multiplicity = 1:

    H            3.294060514972    -0.446397016585    -0.022999440275
    C            2.236997648161    -0.261308399525    -0.005581090579
    C            1.748727233342     0.880368034054     0.599877472196
    C            1.369551498369    -1.163369492749    -0.599470367321
    H            2.422611453163     1.580949655926     1.053493377264
    C            0.388167975767     1.122410196125     0.605885282640
    H            1.755218915014    -2.041335097072    -1.080500546917
    C            0.010858393761    -0.931580309772    -0.574327578324
    H            0.004828440149     2.019426574896     1.056451440601
    C           -0.484737558834     0.207802950509     0.042488876314
    H           -0.674277097552    -1.623200524196    -1.023232175568
    C           -1.941836235948     0.495183536676     0.024053874354
    O           -2.786369510606    -0.328230129864    -0.071419055504
    H           -2.203434642302     1.558292556981     0.043800033352

  Mulliken Charges: (a.u.)
   Center  Symbol    Alpha    Beta     Spin     Total
       1     H     0.41978  0.41978  0.00000  0.16043
       2     C     3.07276  3.07276  0.00000 -0.14551
       3     C     3.07162  3.07162  0.00000 -0.14323
       4     C     3.07026  3.07026  0.00000 -0.14052
       5     H     0.42057  0.42057  0.00000  0.15885
       6     C     3.09058  3.09058  0.00000 -0.18117
       7     H     0.41984  0.41984  0.00000  0.16032
       8     C     3.08578  3.08578  0.00000 -0.17156
       9     H     0.42332  0.42332  0.00000  0.15337
      10     C     2.97084  2.97084  0.00000  0.05832
      11     H     0.41014  0.41014  0.00000  0.17973
      12     C     2.91588  2.91588  0.00000  0.16824
      13     O     4.17027  4.17027  0.00000 -0.34053
      14     H     0.45836  0.45836  0.00000  0.08328

   Total alpha = 28.00000, Total beta = 28.00000, Total charge = -0.00000
