  ==> Input File <==

--------------------------------------------------------------------------
set {
	reference rhf
	basis 6-31G*
}

set_num_threads( 4 )
memory 2 gb

molecule MOL {
0 1

H	 -3.261111	 -0.295142	 1.469456
C	 -3.306842	 -0.277400	 0.373456
C	 -2.660244	 0.921717	 -0.272021
O	 -3.838538	 -1.161155	 -0.216482
C	 -1.220012	 1.144545	 0.209990
H	 -2.705793	 0.797307	 -1.347733
H	 -3.263782	 1.790044	 -0.010477
C	 -0.252658	 0.041456	 -0.226725
H	 -0.873521	 2.100229	 -0.171974
H	 -1.211708	 1.231594	 1.295398
C	 1.180775	 0.282413	 0.250794
H	 -0.266029	 -0.034465	 -1.312038
H	 -0.597733	 -0.921000	 0.146291
C	 2.148627	 -0.814315	 -0.201312
H	 1.516199	 1.249228	 -0.115937
H	 1.192670	 0.346017	 1.338083
C	 3.580890	 -0.659131	 0.322722
H	 2.166869	 -0.852443	 -1.289387
H	 1.762857	 -1.776509	 0.128956
C	 3.766681	 0.467071	 1.340941
H	 4.237674	 -0.474599	 -0.523759
H	 3.908230	 -1.599982	 0.760408
H	 3.431992	 1.418468	 0.935854
H	 3.212802	 0.283640	 2.255570
H	 4.813071	 0.573397	 1.610678

	symmetry c1
}
set optking {
	frozen_dihedral = ("
		20 17 14 18
	")
}

ee = optimize('scf')
oeprop('DIPOLE', 'QUADRUPOLE', 'MULLIKEN_CHARGES')
f=open( 'psi4out.xyz', 'w' )
f.write( "25  " )
f.write( str(ee) + "\n" )
f.write( MOL.save_string_xyz() )
f.close()
--------------------------------------------------------------------------

    Molecular point group: c1
  Charge       = 0
  Multiplicity = 1
  Basis Set: 6-31G*
  Basis Set:
  @DF-RHF Final Energy:  -387.11190600458417
    Total Energy =                       -387.1119060045840570
    Molecular point group: c1
  Basis Set: 6-31G*
  Basis Set:
  Basis Set: 6-31G*
  Basis Set:
  @DF-RHF Final Energy:  -387.11216973401844
    Total Energy =                       -387.1121697340183800
  Basis Set: 6-31G*
  Basis Set:
  Basis Set: 6-31G*
  Basis Set:
  @DF-RHF Final Energy:  -387.11382354338696
    Total Energy =                       -387.1138235433867294
  Basis Set: 6-31G*
  Basis Set:
  Basis Set: 6-31G*
  Basis Set:
  @DF-RHF Final Energy:  -387.11378361880480
    Total Energy =                       -387.1137836188052006
  Basis Set: 6-31G*
  Basis Set:
  @DF-RHF Final Energy:  -387.11393679135972
    Total Energy =                       -387.1139367913605156
  @DF-RHF Final Energy:  -387.11400094489647
    Total Energy =                       -387.1140009448967021
  Basis Set: 6-31G*
  Basis Set:
  @DF-RHF Final Energy:  -387.11400197515280
    Total Energy =                       -387.1140019751532009
  Basis Set: 6-31G*
  Basis Set:
  Basis Set: 6-31G*
  Basis Set:
  @DF-RHF Final Energy:  -387.11400794789830
    Total Energy =                       -387.1140079478982443
  Basis Set: 6-31G*
  Basis Set:
  Basis Set: 6-31G*
  Basis Set:
  @DF-RHF Final Energy:  -387.11400942191057
    Total Energy =                       -387.1140094219103958
  Basis Set: 6-31G*
  Basis Set:
  Charge       = 0
  Multiplicity = 1
  Basis Set: 6-31G*
  Basis Set:

    Orbital Energies (a.u.)
    -----------------------

    Doubly Occupied:

       1A    -20.561960     2A    -11.326119     3A    -11.235247
       4A    -11.234595     5A    -11.223736     6A    -11.219711
       7A    -11.218321     8A    -11.217342     9A    -11.210954
      10A     -1.401900    11A     -1.103139    12A     -1.066427
      13A     -1.012314    14A     -0.942053    15A     -0.878169
      16A     -0.823110    17A     -0.787810    18A     -0.773969
      19A     -0.664579    20A     -0.664021    21A     -0.637464
      22A     -0.620811    23A     -0.605669    24A     -0.587011
      25A     -0.571795    26A     -0.556309    27A     -0.531213
      28A     -0.522385    29A     -0.516328    30A     -0.495055
      31A     -0.491071    32A     -0.481456    33A     -0.461014
      34A     -0.450000    35A     -0.441887    36A     -0.409485

  @DF-RHF Final Energy:  -387.11400880562337

   => Energetics <=

    Nuclear Repulsion Energy =            440.0590957757414117
    One-Electron Energy =               -1396.4573533571335702
    Two-Electron Energy =                 569.2842487757687877
    DFT Exchange-Correlation Energy =       0.0000000000000000
    Empirical Dispersion Energy =           0.0000000000000000
    PCM Polarization Energy =               0.0000000000000000
    EFP Energy =                            0.0000000000000000
    Total Energy =                       -387.1140088056233708
    Molecular point group: c1
  Basis Set: 6-31G*
  Basis Set:

  -Total Gradient:
     Atom            X                  Y                   Z
    ------   -----------------  -----------------  -----------------
       1       -0.000017347972     0.000012108506    -0.000002798043
       2        0.000081683423    -0.000046726220    -0.000037874078
       3       -0.000038176467     0.000004766988     0.000045502208
       4       -0.000023145749    -0.000003209042     0.000006968485
       5       -0.000010199225     0.000012604822    -0.000062398740
       6       -0.000002775984     0.000005833058     0.000010380798
       7       -0.000005251367     0.000019436479     0.000003284506
       8       -0.000035040112     0.000033002363     0.000007877631
       9        0.000007516834    -0.000001230233    -0.000004129506
      10        0.000007184495     0.000003309300    -0.000000719287
      11       -0.000010754675    -0.000097338073     0.000024369526
      12        0.000006853154     0.000005524832     0.000005020038
      13       -0.000006259674     0.000015161402     0.000008781354
      14        0.000491870299    -0.002674919571    -0.000604297322
      15        0.000012881047    -0.000016261427     0.000001098783
      16        0.000018999770    -0.000016540634    -0.000004503176
      17       -0.000570597991    -0.001280633993     0.002209333677
      18       -0.000315590826     0.002691188580    -0.000100747900
      19       -0.000020133435     0.000022623245     0.000015584658
      20        0.000388309458     0.001288427897    -0.001596069264
      21        0.000011294781     0.000032877943     0.000020167744
      22        0.000045681694     0.000007847751     0.000038598562
      23        0.000021207369    -0.000027057981    -0.000002058372
      24       -0.000043468144    -0.000008824196    -0.000027328327
      25        0.000005259300     0.000018028208     0.000045956045

  **** Optimization is complete! (in 10 steps) ****
    Final optimized geometry and variables:
    Molecular point group: c1

    Geometry (in Angstrom), charge = 0, multiplicity = 1:

    H           -3.258061330876    -0.309321881216     1.235647829921
    C           -3.272838829452    -0.285235104247     0.138819436893
    C           -2.618949007518     0.923585196336    -0.480817787772
    O           -3.785540074176    -1.166997958947    -0.470678835968
    C           -1.192932391116     1.152914867525     0.039245172055
    H           -2.636145734934     0.806816275739    -1.558257912423
    H           -3.235325765620     1.785555103942    -0.228536888398
    C           -0.206639582797     0.059996733637    -0.380753414797
    H           -0.843703628423     2.114331593979    -0.325974652921
    H           -1.213105614529     1.231136124304     1.124981391277
    C            1.213481877829     0.310663238536     0.131233952140
    H           -0.195276073161    -0.009815192122    -1.466489922685
    H           -0.552471274545    -0.907347367093    -0.020855104650
    C            2.188185514172    -0.788453002046    -0.308651543587
    H            1.554375867362     1.276827547753    -0.233443878513
    H            1.191388227687     0.382009231612     1.215522910063
    C            3.668347636368    -0.634638985723     0.140094228237
    H            2.157373476309    -0.827851603560    -1.394096563541
    H            1.803282750053    -1.742284093475     0.041282717144
    C            3.982782172922     0.477505638871     1.145124452298
    H            4.283117802459    -0.464884168185    -0.739359361595
    H            4.009338185605    -1.578133532040     0.555513086363
    H            3.737158121608     1.459376226549     0.755561932780
    H            3.446941302228     0.346793559812     2.080053314357
    H            5.043591152667     0.475161524223     1.376463923875

  Mulliken Charges: (a.u.)
   Center  Symbol    Alpha    Beta     Spin     Total
       1     H     0.43265  0.43265  0.00000  0.13471
       2     C     2.83081  2.83081  0.00000  0.33839
       3     C     3.20812  3.20812  0.00000 -0.41625
       4     O     4.23779  4.23779  0.00000 -0.47558
       5     C     3.16636  3.16636  0.00000 -0.33272
       6     H     0.39974  0.39974  0.00000  0.20052
       7     H     0.40662  0.40662  0.00000  0.18676
       8     C     3.15497  3.15497  0.00000 -0.30994
       9     H     0.41292  0.41292  0.00000  0.17416
      10     H     0.41968  0.41968  0.00000  0.16064
      11     C     3.15496  3.15496  0.00000 -0.30991
      12     H     0.41828  0.41828  0.00000  0.16344
      13     H     0.41855  0.41855  0.00000  0.16290
      14     C     3.15648  3.15648  0.00000 -0.31296
      15     H     0.42226  0.42226  0.00000  0.15549
      16     H     0.42164  0.42164  0.00000  0.15672
      17     C     3.15565  3.15565  0.00000 -0.31131
      18     H     0.42014  0.42014  0.00000  0.15971
      19     H     0.41986  0.41986  0.00000  0.16028
      20     C     3.24215  3.24215  0.00000 -0.48430
      21     H     0.42042  0.42042  0.00000  0.15915
      22     H     0.41924  0.41924  0.00000  0.16152
      23     H     0.42067  0.42067  0.00000  0.15866
      24     H     0.42147  0.42147  0.00000  0.15705
      25     H     0.41857  0.41857  0.00000  0.16286

   Total alpha = 36.00000, Total beta = 36.00000, Total charge =  0.00000
