  ==> Input File <==

--------------------------------------------------------------------------
set {
	reference rhf
	basis cc-pvtz
}

set_num_threads( 4 )
memory 2 gb

molecule MOL {
0 1

H	 -0.366580	 2.045936	 -0.305741
C	 0.351829	 1.335402	 0.083179
N	 -0.000018	 0.000080	 -0.334836
H	 1.327156	 1.599860	 -0.305475
H	 0.380566	 1.445403	 1.171445
C	 -0.018139	 -0.924973	 0.772561
C	 -1.235996	 -0.024696	 -1.079138
H	 -0.216285	 -1.927074	 0.413921
H	 0.945991	 -0.931056	 1.265111
H	 -0.777842	 -0.677037	 1.519855
H	 -1.162244	 0.627221	 -1.940385
H	 -1.432992	 -1.027814	 -1.435610
H	 -2.095862	 0.297626	 -0.484286

	symmetry c1
}
set optking {
	frozen_dihedral = ("
		6 3 2 1
	")
}

ee = optimize('scf')
oeprop('DIPOLE', 'QUADRUPOLE', 'MULLIKEN_CHARGES')
f=open( 'psi4out.xyz', 'w' )
f.write( "13  " )
f.write( str(ee) + "\n" )
f.write( MOL.save_string_xyz() )
f.close()
--------------------------------------------------------------------------

    Molecular point group: c1
  Charge       = 0
  Multiplicity = 1
  Basis Set: CC-PVTZ
  Basis Set:
  @DF-RHF Final Energy:  -173.32704742086358
    Total Energy =                       -173.3270474208634937
    Molecular point group: c1
  Basis Set: CC-PVTZ
  Basis Set:
  Basis Set: CC-PVTZ
  Basis Set:
  @DF-RHF Final Energy:  -173.32758285726516
    Total Energy =                       -173.3275828572652131
  Basis Set: CC-PVTZ
  Basis Set:
  Basis Set: CC-PVTZ
  Basis Set:
  @DF-RHF Final Energy:  -173.32770588120951
    Total Energy =                       -173.3277058812094538
  Basis Set: CC-PVTZ
  Basis Set:
  Charge       = 0
  Multiplicity = 1
  Basis Set: CC-PVTZ
  Basis Set:

    Orbital Energies (a.u.)
    -----------------------

    Doubly Occupied:

       1A    -15.535843     2A    -11.233876     3A    -11.233837
       4A    -11.233737     5A     -1.221307     6A     -0.951817
       7A     -0.951241     8A     -0.807106     9A     -0.638933
      10A     -0.629214    11A     -0.627441    12A     -0.550803
      13A     -0.547443    14A     -0.513717    15A     -0.501449
      16A     -0.499260    17A     -0.342987

  @DF-RHF Final Energy:  -173.32770807155512

   => Energetics <=

    Nuclear Repulsion Energy =            138.9797357832447631
    One-Electron Energy =                -508.5748618363426772
    Two-Electron Energy =                 196.2674179815426783
    DFT Exchange-Correlation Energy =       0.0000000000000000
    Empirical Dispersion Energy =           0.0000000000000000
    PCM Polarization Energy =               0.0000000000000000
    EFP Energy =                            0.0000000000000000
    Total Energy =                       -173.3277080715552643
    Molecular point group: c1
  Basis Set: CC-PVTZ
  Basis Set:

  -Total Gradient:
     Atom            X                  Y                   Z
    ------   -----------------  -----------------  -----------------
       1       -0.000840099908    -0.000147702446     0.001343126312
       2        0.000626818599     0.000386970482    -0.001545047026
       3        0.001531469342    -0.000303836598    -0.000035550362
       4        0.000014274061    -0.000017363779     0.000003278886
       5       -0.000003907004     0.000050431848    -0.000015378098
       6       -0.001295916170     0.000093852381     0.000282676300
       7       -0.000189088865    -0.000107565591     0.000028411218
       8        0.000009863747    -0.000033450413     0.000009698261
       9       -0.000016802271     0.000055540865    -0.000071212992
      10        0.000034156567     0.000033908422    -0.000039357844
      11        0.000072893259    -0.000002709911     0.000053054664
      12       -0.000002033318    -0.000015077285    -0.000012109091
      13        0.000058371961     0.000007002024    -0.000001590229

  **** Optimization is complete! (in 4 steps) ****
    Final optimized geometry and variables:
    Molecular point group: c1

    Geometry (in Angstrom), charge = 0, multiplicity = 1:

    H           -0.095698951008     1.983411704685    -0.158741823781
    C            0.612117943676     1.246946383664     0.203418743992
    N            0.226741708702    -0.097665477705    -0.198147204503
    H            1.593932784007     1.506159923938    -0.177420518897
    H            0.638722464374     1.349976007331     1.284482363230
    C            0.221517690360    -1.035018948438     0.898186052160
    C           -1.000942288279    -0.139198316157    -0.955259846152
    H            0.035541555631    -2.035865267298     0.528691621511
    H            1.187352210867    -1.038983149695     1.387650271957
    H           -0.537769478375    -0.806297917647     1.652226155208
    H           -0.923052716649     0.501131820351    -1.824515726387
    H           -1.183513234647    -1.147915547302    -1.304579691066
    H           -1.873851685637     0.179407620937    -0.377170236087

  Mulliken Charges: (a.u.)
   Center  Symbol    Alpha    Beta     Spin     Total
       1     H     0.46089  0.46089  0.00000  0.07823
       2     C     3.08493  3.08493  0.00000 -0.16987
       3     N     3.59952  3.59952  0.00000 -0.19905
       4     H     0.45088  0.45088  0.00000  0.09825
       5     H     0.46417  0.46417  0.00000  0.07167
       6     C     3.09073  3.09073  0.00000 -0.18147
       7     C     3.09047  3.09047  0.00000 -0.18095
       8     H     0.45364  0.45364  0.00000  0.09271
       9     H     0.45202  0.45202  0.00000  0.09596
      10     H     0.47350  0.47350  0.00000  0.05301
      11     H     0.45208  0.45208  0.00000  0.09583
      12     H     0.45358  0.45358  0.00000  0.09284
      13     H     0.47358  0.47358  0.00000  0.05284

   Total alpha = 17.00000, Total beta = 17.00000, Total charge =  0.00000
