  ==> Input File <==

--------------------------------------------------------------------------
set {
	reference rhf
	basis 6-31G*
}

set_num_threads( 1 )
memory 2 gb

molecule MOL {
0 1

H	 -2.499100	 -0.730091	 -0.745082
O	 -2.347518	 -0.290803	 0.079804
C	 -1.184022	 0.487508	 -0.006784
C	 0.062599	 -0.378592	 0.031606
H	 -1.176523	 1.099369	 -0.904519
H	 -1.187323	 1.153111	 0.844927
O	 1.171513	 0.459272	 -0.058250
H	 0.050699	 -1.089204	 -0.797170
H	 0.078739	 -0.954914	 0.954740
C	 2.397563	 -0.200139	 -0.024800
H	 2.498044	 -0.895699	 -0.855902
H	 3.173567	 0.548987	 -0.099173
H	 2.526774	 -0.751467	 0.904250

	symmetry c1
}
set optking {
	frozen_dihedral = ("
		8 4 3 5,
		1 2 3 5,
		4 7 10 13
	")
}

ee = energy('scf')
oeprop('DIPOLE', 'QUADRUPOLE', 'MULLIKEN_CHARGES')
f=open( 'psi4out.xyz', 'w' )
f.write( "13  " )
f.write( str(ee) + "\n" )
f.write( MOL.save_string_xyz() )
f.close()
--------------------------------------------------------------------------

    Molecular point group: c1

    Geometry (in Angstrom), charge = 0, multiplicity = 1:

       Center              X                  Y                   Z               Mass
    ------------   -----------------  -----------------  -----------------  -----------------
           H         -2.499041753425    -0.729662183179    -0.740369830652     1.007825032070
           O         -2.347459753425    -0.290374183179     0.084516169348    15.994914619560
           C         -1.183963753425     0.487936816821    -0.002071830652    12.000000000000
           C          0.062657246575    -0.378163183179     0.036318169348    12.000000000000
           H         -1.176464753425     1.099797816821    -0.899806830652     1.007825032070
           H         -1.187264753425     1.153539816821     0.849639169348     1.007825032070
           O          1.171571246575     0.459700816821    -0.053537830652    15.994914619560
           H          0.050757246575    -1.088775183179    -0.792457830652     1.007825032070
           H          0.078797246575    -0.954485183179     0.959452169348     1.007825032070
           C          2.397621246575    -0.199710183179    -0.020087830652    12.000000000000
           H          2.498102246575    -0.895270183179    -0.851189830652     1.007825032070
           H          3.173625246575     0.549415816821    -0.094460830652     1.007825032070
           H          2.526832246575    -0.751038183179     0.908962169348     1.007825032070

  Charge       = 0
  Multiplicity = 1
  Basis Set: 6-31G*
  Basis Set:

    Orbital Energies (a.u.)
    -----------------------

    Doubly Occupied:

       1A    -20.562517     2A    -20.560195     3A    -11.270919
       4A    -11.270356     5A    -11.269015     6A     -1.388990
       7A     -1.365261     8A     -1.018617     9A     -0.913406
      10A     -0.841957    11A     -0.709620    12A     -0.674148
      13A     -0.660777    14A     -0.637458    15A     -0.595830
      16A     -0.569329    17A     -0.545803    18A     -0.489421
      19A     -0.481823    20A     -0.438558    21A     -0.422223

  @DF-RHF Final Energy:  -267.95063940125590

   => Energetics <=

    Nuclear Repulsion Energy =            190.2460887479630571
    One-Electron Energy =                -743.0210403148109890
    Two-Electron Energy =                 284.8243121655920049
    DFT Exchange-Correlation Energy =       0.0000000000000000
    Empirical Dispersion Energy =           0.0000000000000000
    PCM Polarization Energy =               0.0000000000000000
    EFP Energy =                            0.0000000000000000
    Total Energy =                       -267.9506394012558985

  Mulliken Charges: (a.u.)
   Center  Symbol    Alpha    Beta     Spin     Total
       1     H     0.28127  0.28127  0.00000  0.43746
       2     O     4.37085  4.37085  0.00000 -0.74170
       3     C     3.00467  3.00467  0.00000 -0.00933
       4     C     2.99658  2.99658  0.00000  0.00684
       5     H     0.42231  0.42231  0.00000  0.15537
       6     H     0.40838  0.40838  0.00000  0.18325
       7     O     4.30742  4.30742  0.00000 -0.61485
       8     H     0.43764  0.43764  0.00000  0.12471
       9     H     0.42320  0.42320  0.00000  0.15359
      10     C     3.08002  3.08002  0.00000 -0.16004
      11     H     0.42926  0.42926  0.00000  0.14148
      12     H     0.41069  0.41069  0.00000  0.17862
      13     H     0.42771  0.42771  0.00000  0.14459

   Total alpha = 21.00000, Total beta = 21.00000, Total charge = -0.00000
