                              Psi4 1.0.54 Driver

  ==> Input File <==

--------------------------------------------------------------------------
set {
	reference rhf
	basis cc-pvtz
}

set_num_threads( 4 )
memory 2 gb

molecule MOL {
0 1

H	 -3.401682	 -1.036167	 0.000000
O	 -3.113760	 -0.140926	 0.000000
C	 -1.775087	 -0.058754	 0.000000
C	 -1.038446	 -0.013536	 -1.177179
C	 -1.136225	 -0.019538	 1.228210
H	 -1.541255	 -0.044400	 -2.126209
C	 0.332450	 0.070614	 -1.120116
H	 -1.723000	 -0.055556	 2.123987
C	 0.237213	 0.064768	 1.268058
H	 0.912155	 0.106198	 -2.021107
C	 0.987427	 0.110818	 0.102937
H	 0.733894	 0.095255	 2.220369
C	 2.457851	 0.201077	 0.170546
O	 3.180329	 0.245425	 -0.768716
H	 2.869166	 0.226325	 1.185427

	symmetry c1
}
set optking {
	frozen_dihedral = ("
		5 3 2 1
	")
}

ee,wfn = optimize('scf', return_wfn=True)
oeprop( wfn, 'DIPOLE', 'QUADRUPOLE', 'MULLIKEN_CHARGES')
f=open( 'psi4out.xyz', 'w' )
f.write( "15  " )
f.write( str(ee) + "\n" )
f.write( MOL.save_string_xyz() )
f.close()
--------------------------------------------------------------------------

    Molecular point group: c1
  Charge       = 0
  Multiplicity = 1
  Basis Set: CC-PVTZ
  Basis Set:
  @DF-RHF Final Energy:  -418.43573357620841
    Total Energy =                       -418.4357335762083494
    Molecular point group: c1
  Basis Set: CC-PVTZ
  Basis Set:
  Basis Set: CC-PVTZ
  Basis Set:
  @DF-RHF Final Energy:  -418.43668079187188
    Total Energy =                       -418.4366807918715949
  Basis Set: CC-PVTZ
  Basis Set:
  Basis Set: CC-PVTZ
  Basis Set:
  @DF-RHF Final Energy:  -418.43662804768951
    Total Energy =                       -418.4366280476893962
  Basis Set: CC-PVTZ
  Basis Set:
  Basis Set: CC-PVTZ
  Basis Set:
  @DF-RHF Final Energy:  -418.43655888953168
    Total Energy =                       -418.4365588895320798
  Basis Set: CC-PVTZ
  Basis Set:
  Basis Set: CC-PVTZ
  Basis Set:
  @DF-RHF Final Energy:  -418.43676002177631
    Total Energy =                       -418.4367600217761947
  Basis Set: CC-PVTZ
  Basis Set:
  Charge       = 0
  Multiplicity = 1
  Basis Set: CC-PVTZ
  Basis Set:

    Orbital Energies (a.u.)
    -----------------------

    Doubly Occupied:

       1A    -20.587262     2A    -20.550963     3A    -11.326541
       4A    -11.312205     5A    -11.257997     6A    -11.251621
       7A    -11.243609     8A    -11.241526     9A    -11.240449
      10A     -1.416266    11A     -1.407072    12A     -1.175736
      13A     -1.045266    14A     -1.040707    15A     -0.890930
      16A     -0.861141    17A     -0.800525    18A     -0.755805
      19A     -0.709771    20A     -0.678259    21A     -0.650343
      22A     -0.636770    23A     -0.622525    24A     -0.609924
      25A     -0.564846    26A     -0.558609    27A     -0.540323
      28A     -0.502261    29A     -0.487370    30A     -0.425423
      31A     -0.359821    32A     -0.346554

  @DF-RHF Final Energy:  -418.43676142670830

   => Energetics <=

    Nuclear Repulsion Energy =            401.6800296964846098
    One-Electron Energy =               -1366.0367417111433497
    Two-Electron Energy =                 545.9199505879505523
    DFT Exchange-Correlation Energy =       0.0000000000000000
    Empirical Dispersion Energy =           0.0000000000000000
    PCM Polarization Energy =               0.0000000000000000
    EFP Energy =                            0.0000000000000000
    Total Energy =                       -418.4367614267082445
    Molecular point group: c1
  Basis Set: CC-PVTZ
  Basis Set:

  -Total Gradient:
     Atom            X                  Y                   Z
    ------   -----------------  -----------------  -----------------
       1       -0.000010388895    -0.000008814661    -0.000036940372
       2       -0.000080148114    -0.000020426091     0.000048344392
       3        0.000100814471     0.000057286768    -0.000258638103
       4       -0.000222277439    -0.000052516235     0.000107743968
       5        0.000172039271     0.000041473070     0.000110654586
       6        0.000004968401     0.000008715254     0.000000003368
       7        0.000193989630    -0.000009579715     0.000133377806
       8       -0.000000219971     0.000006668853    -0.000016134670
       9       -0.000153167377    -0.000087352825     0.000103411834
      10       -0.000016790002     0.000005084288    -0.000002030069
      11        0.000007717054     0.000029850425    -0.000209577101
      12        0.000020082450     0.000015424464    -0.000007430509
      13       -0.000028429013     0.000043338894     0.000076445993
      14        0.000014071466    -0.000016051965    -0.000036724225
      15       -0.000002261929    -0.000013100525    -0.000012506896

  **** Optimization is complete! (in 6 steps) ****
    Final optimized geometry and variables:
    Molecular point group: c1

    Geometry (in Angstrom), charge = 0, multiplicity = 1:

    H           -3.429616879401    -1.060780715654     0.009686074530
    O           -3.126339573209    -0.169271922313     0.004633798089
    C           -1.765661470470    -0.118565916304     0.056763974773
    C           -1.037779991244    -0.066058903887    -1.122680325624
    C           -1.126586997683    -0.070354085489     1.279248948939
    H           -1.559632931228    -0.088851870350    -2.059098818275
    C            0.333424200305     0.025102614687    -1.073864953827
    H           -1.708768236479    -0.095053000193     2.179172289834
    C            0.251226369270     0.021422957508     1.319085820835
    H            0.911496163404     0.066822243264    -1.975517616948
    C            0.989293448153     0.067719443307     0.150196400015
    H            0.752656765212     0.059917465210     2.268488094638
    C            2.463946511188     0.166584785266     0.214963116729
    O            3.181328032229     0.207687086354    -0.726673874577
    H            2.876863186478     0.200467168078     1.228760602353

  Mulliken Charges: (a.u.)
   Center  Symbol    Alpha    Beta     Spin     Total
       1     H     0.38663  0.38663  0.00000  0.22674
       2     O     4.18661  4.18661  0.00000 -0.37322
       3     C     2.86591  2.86591  0.00000  0.26817
       4     C     3.10822  3.10822  0.00000 -0.21644
       5     C     3.10922  3.10922  0.00000 -0.21844
       6     H     0.41316  0.41316  0.00000  0.17369
       7     C     3.07086  3.07086  0.00000 -0.14173
       8     H     0.41437  0.41437  0.00000  0.17127
       9     C     3.07839  3.07839  0.00000 -0.15678
      10     H     0.40670  0.40670  0.00000  0.18660
      11     C     2.99515  2.99515  0.00000  0.00970
      12     H     0.42078  0.42078  0.00000  0.15844
      13     C     2.91010  2.91010  0.00000  0.17979
      14     O     4.17482  4.17482  0.00000 -0.34964
      15     H     0.45908  0.45908  0.00000  0.08184

   Total alpha = 32.00000, Total beta = 32.00000, Total charge = -0.00000

*** Psi4 exiting successfully. Buy a developer a beer!
