                              Psi4 1.0.54 Driver

  ==> Input File <==

--------------------------------------------------------------------------
set {
	reference rhf
	basis cc-pvtz
}

set_num_threads( 4 )
memory 2 gb

molecule MOL {
0 1

H	 -2.149496	 -2.244167	 0.000000
O	 -2.454378	 -1.354528	 0.000000
C	 -1.430628	 -0.482077	 0.000000
C	 -0.430651	 -0.669675	 0.943145
C	 -1.349750	 0.567999	 -0.889956
H	 -0.511920	 -1.491868	 1.626097
C	 0.640862	 0.192614	 0.989284
H	 -2.116252	 0.724800	 -1.624690
C	 -0.262115	 1.428867	 -0.830067
H	 1.409673	 0.040553	 1.721502
C	 0.738745	 1.252046	 0.103986
C	 -0.185555	 2.524892	 -1.765039
H	 1.571495	 1.924631	 0.137632
N	 -0.128849	 3.380900	 -2.497650

	symmetry c1
}
set optking {
	frozen_dihedral = ("
		5 3 2 1
	")
}

ee,wfn = optimize('scf', return_wfn=True)
oeprop( wfn, 'DIPOLE', 'QUADRUPOLE', 'MULLIKEN_CHARGES')
f=open( 'psi4out.xyz', 'w' )
f.write( "14  " )
f.write( str(ee) + "\n" )
f.write( MOL.save_string_xyz() )
f.close()
--------------------------------------------------------------------------

    Molecular point group: c1
  Charge       = 0
  Multiplicity = 1
  Basis Set: CC-PVTZ
  Basis Set:
  @DF-RHF Final Energy:  -397.42845566778942
    Total Energy =                       -397.4284556677896489
    Molecular point group: c1
  Basis Set: CC-PVTZ
  Basis Set:
  Basis Set: CC-PVTZ
  Basis Set:
  @DF-RHF Final Energy:  -397.42998192432725
    Total Energy =                       -397.4299819243271941
  Basis Set: CC-PVTZ
  Basis Set:
  Basis Set: CC-PVTZ
  Basis Set:
  @DF-RHF Final Energy:  -397.43009414218886
    Total Energy =                       -397.4300941421892048
  Basis Set: CC-PVTZ
  Basis Set:
  Basis Set: CC-PVTZ
  Basis Set:
  @DF-RHF Final Energy:  -397.43011096319952
    Total Energy =                       -397.4301109631992404
  Basis Set: CC-PVTZ
  Basis Set:
  Basis Set: CC-PVTZ
  Basis Set:
  @DF-RHF Final Energy:  -397.43011477998397
    Total Energy =                       -397.4301147799842511
  Basis Set: CC-PVTZ
  Basis Set:
  Charge       = 0
  Multiplicity = 1
  Basis Set: CC-PVTZ
  Basis Set:

    Orbital Energies (a.u.)
    -----------------------

    Doubly Occupied:

       1A    -20.598251     2A    -15.564006     3A    -11.319724
       4A    -11.291223     5A    -11.267452     6A    -11.261497
       7A    -11.259185     8A    -11.258715     9A    -11.257284
      10A     -1.428476    11A     -1.237043    12A     -1.187200
      13A     -1.066448    14A     -1.043298    15A     -0.899018
      16A     -0.862407    17A     -0.793441    18A     -0.715598
      19A     -0.693805    20A     -0.685463    21A     -0.637389
      22A     -0.624292    23A     -0.575257    24A     -0.566431
      25A     -0.550894    26A     -0.548013    27A     -0.514868
      28A     -0.482192    29A     -0.477758    30A     -0.367018
      31A     -0.350380

  @DF-RHF Final Energy:  -397.43011512886847

   => Energetics <=

    Nuclear Repulsion Energy =            380.1482088448140075
    One-Electron Energy =               -1292.3885944848382223
    Two-Electron Energy =                 514.8102705111555224
    DFT Exchange-Correlation Energy =       0.0000000000000000
    Empirical Dispersion Energy =           0.0000000000000000
    PCM Polarization Energy =               0.0000000000000000
    EFP Energy =                            0.0000000000000000
    Total Energy =                       -397.4301151288686924
    Molecular point group: c1
  Basis Set: CC-PVTZ
  Basis Set:

  -Total Gradient:
     Atom            X                  Y                   Z
    ------   -----------------  -----------------  -----------------
       1        0.000072700236     0.000077238090    -0.002358750826
       2        0.000286407756    -0.000599731942     0.002416545003
       3       -0.001201778934     0.001540890838     0.001029037031
       4       -0.000005656199    -0.000039737383     0.000023378904
       5        0.000859730074    -0.000982724854    -0.001115132255
       6        0.000005788617     0.000005318616    -0.000008102628
       7       -0.000003346265     0.000008155097     0.000030233852
       8       -0.000005727017    -0.000011726911     0.000000755105
       9       -0.000032899095     0.000023679246     0.000010760115
      10        0.000012675535     0.000008228759    -0.000004502072
      11       -0.000009418592    -0.000016695761    -0.000036455913
      12        0.000041685469     0.000006987710     0.000020191122
      13        0.000007241128    -0.000008280847     0.000006751670
      14       -0.000027402719    -0.000011600661    -0.000014709107

  **** Optimization is complete! (in 6 steps) ****
    Final optimized geometry and variables:
    Molecular point group: c1

    Geometry (in Angstrom), charge = 0, multiplicity = 1:

    H           -1.631192756084    -2.915039720911     0.362196557771
    O           -1.895826355229    -2.012357911187     0.382208691443
    C           -0.819729454445    -1.188891763153     0.438029139955
    C            0.179941240842    -1.364007880997     1.378088124248
    C           -0.749972040790    -0.143774870475    -0.459858503949
    H            0.110559895296    -2.173840134876     2.079362908637
    C            1.251495486589    -0.493375156060     1.418099468284
    H           -1.526598482674    -0.017405986971    -1.186585986382
    C            0.322155804941     0.730574564490    -0.400707984757
    H            2.023676973831    -0.635560683267     2.148643034986
    C            1.331065378402     0.561777526556     0.533151668496
    C            0.392304834988     1.826453405524    -1.336322205075
    H            2.156380365130     1.244088247313     0.562969080069
    N            0.449526674050     2.683366268825    -2.067887102332

  Mulliken Charges: (a.u.)
   Center  Symbol    Alpha    Beta     Spin     Total
       1     H     0.38364  0.38364  0.00000  0.23273
       2     O     4.18020  4.18020  0.00000 -0.36041
       3     C     2.85640  2.85640  0.00000  0.28719
       4     C     3.11925  3.11925  0.00000 -0.23849
       5     C     3.12117  3.12117  0.00000 -0.24235
       6     H     0.41884  0.41884  0.00000  0.16231
       7     C     3.05919  3.05919  0.00000 -0.11837
       8     H     0.40717  0.40717  0.00000  0.18566
       9     C     2.92631  2.92631  0.00000  0.14738
      10     H     0.41649  0.41649  0.00000  0.16703
      11     C     3.09891  3.09891  0.00000 -0.19782
      12     C     3.02399  3.02399  0.00000 -0.04799
      13     H     0.41396  0.41396  0.00000  0.17208
      14     N     3.57449  3.57449  0.00000 -0.14897

   Total alpha = 31.00000, Total beta = 31.00000, Total charge =  0.00000

*** Psi4 exiting successfully. Buy a developer a beer!
