  ==> Input File <==

--------------------------------------------------------------------------
set {
	reference rhf
	basis 6-31G*
}

set_num_threads( 4 )
memory 2 gb

molecule MOL {
0 1

H	 -2.906976	 2.179386	 0.659337
C	 -2.247548	 1.993173	 1.504689
O	 -0.926886	 1.838785	 1.095599
H	 -2.285038	 2.843311	 2.171773
H	 -2.607922	 1.113293	 2.036073
C	 -0.719715	 0.768384	 0.229244
C	 0.719720	 0.768376	 -0.229267
H	 -0.935008	 -0.174039	 0.734399
H	 -1.372398	 0.840705	 -0.638385
O	 1.392611	 -0.295398	 0.366430
H	 0.750534	 0.687200	 -1.313918
H	 1.185043	 1.714359	 0.050526
C	 2.706965	 -0.449871	 -0.062409
H	 2.756559	 -0.644779	 -1.131878
H	 3.305899	 0.433456	 0.155466
H	 3.125548	 -1.294566	 0.467107

	symmetry c1
}
set optking {
	frozen_dihedral = ("
		3 6 7 11
	")
}

ee = optimize('scf')
oeprop('DIPOLE', 'QUADRUPOLE', 'MULLIKEN_CHARGES')
f=open( 'psi4out.xyz', 'w' )
f.write( "16  " )
f.write( str(ee) + "\n" )
f.write( MOL.save_string_xyz() )
f.close()
--------------------------------------------------------------------------

    Molecular point group: c1
  Charge       = 0
  Multiplicity = 1
  Basis Set: 6-31G*
  Basis Set:
  @DF-RHF Final Energy:  -306.97365390283704
    Total Energy =                       -306.9736539028372135
    Molecular point group: c1
  Basis Set: 6-31G*
  Basis Set:
  Basis Set: 6-31G*
  Basis Set:
  @DF-RHF Final Energy:  -306.97426429008920
    Total Energy =                       -306.9742642900892520
  Basis Set: 6-31G*
  Basis Set:
  Basis Set: 6-31G*
  Basis Set:
  @DF-RHF Final Energy:  -306.97435762776541
    Total Energy =                       -306.9743576277653574
  Basis Set: 6-31G*
  Basis Set:
  Charge       = 0
  Multiplicity = 1
  Basis Set: 6-31G*
  Basis Set:

    Orbital Energies (a.u.)
    -----------------------

    Doubly Occupied:

       1A    -20.556088     2A    -20.555775     3A    -11.268117
       4A    -11.267478     5A    -11.264919     6A    -11.264803
       7A     -1.387105     8A     -1.373869     9A     -1.027838
      10A     -0.938555    11A     -0.887258    12A     -0.830005
      13A     -0.684124    14A     -0.678937    15A     -0.656651
      16A     -0.639813    17A     -0.629345    18A     -0.598848
      19A     -0.550978    20A     -0.532861    21A     -0.508342
      22A     -0.480075    23A     -0.464895    24A     -0.421158
      25A     -0.410638

  @DF-RHF Final Energy:  -306.97436274732462

   => Energetics <=

    Nuclear Repulsion Energy =            256.0151998377151017
    One-Electron Energy =                -926.2221733926205616
    Two-Electron Energy =                 363.2326108075808406
    DFT Exchange-Correlation Energy =       0.0000000000000000
    Empirical Dispersion Energy =           0.0000000000000000
    PCM Polarization Energy =               0.0000000000000000
    EFP Energy =                            0.0000000000000000
    Total Energy =                       -306.9743627473246761
    Molecular point group: c1
  Basis Set: 6-31G*
  Basis Set:

  -Total Gradient:
     Atom            X                  Y                   Z
    ------   -----------------  -----------------  -----------------
       1       -0.000011852290    -0.000012650630     0.000011567992
       2        0.000014272511     0.000097939666     0.000027214597
       3       -0.000370321423     0.000769541765    -0.001412557990
       4       -0.000049132196    -0.000001397834     0.000024547167
       5        0.000004614435    -0.000001148269    -0.000006368109
       6        0.000498978108    -0.000563648592     0.001738373510
       7       -0.000138964586    -0.002487147150    -0.000217151535
       8       -0.000011881050     0.000004517241     0.000027117637
       9       -0.000003883382    -0.000025515266    -0.000033635567
      10       -0.000009014006     0.000105560962    -0.000014744975
      11        0.000009483591     0.002198537695    -0.000184142800
      12        0.000023392761    -0.000017391305     0.000017951803
      13       -0.000033769720    -0.000081324247     0.000032001912
      14        0.000019620238     0.000011461710     0.000000907879
      15        0.000000933199     0.000004549249    -0.000003219315
      16        0.000057523816    -0.000001884990    -0.000007862206

  **** Optimization is complete! (in 4 steps) ****
    Final optimized geometry and variables:
    Molecular point group: c1

    Geometry (in Angstrom), charge = 0, multiplicity = 1:

    H           -3.097473728472     1.334404354150     0.310144731831
    C           -2.348231765552     1.213284270974     1.091062519447
    O           -1.067550789675     1.107421993902     0.557246471451
    H           -2.365247222887     2.085604982994     1.729875656195
    H           -2.606833884552     0.337539198683     1.683064479268
    C           -0.898079747523     0.019455615718    -0.302450438523
    C            0.552742958793    -0.031091356880    -0.766364485727
    H           -1.138442932835    -0.913361035470     0.199768046042
    H           -1.568846018567     0.123161063016    -1.154489147221
    O            1.197482132032    -1.108326593659    -0.155790539692
    H            0.609204952174    -0.122740552277    -1.850278314802
    H            1.031766902474     0.905936715595    -0.495281002097
    C            2.552403432483    -1.203185285385    -0.458578200869
    H            2.714548194962    -1.332164910718    -1.527592521708
    H            3.096107082206    -0.318777823941    -0.132248190329
    H            2.943940884822    -2.066947452107     0.060953067601

  Mulliken Charges: (a.u.)
   Center  Symbol    Alpha    Beta     Spin     Total
       1     H     0.43086  0.43086  0.00000  0.13829
       2     C     3.08039  3.08039  0.00000 -0.16078
       3     O     4.30609  4.30609  0.00000 -0.61219
       4     H     0.41159  0.41159  0.00000  0.17681
       5     H     0.42792  0.42792  0.00000  0.14416
       6     C     2.99885  2.99885  0.00000  0.00229
       7     C     2.99942  2.99942  0.00000  0.00116
       8     H     0.41388  0.41388  0.00000  0.17223
       9     H     0.43042  0.43042  0.00000  0.13916
      10     O     4.30577  4.30577  0.00000 -0.61153
      11     H     0.43028  0.43028  0.00000  0.13943
      12     H     0.41395  0.41395  0.00000  0.17210
      13     C     3.08048  3.08048  0.00000 -0.16095
      14     H     0.43069  0.43069  0.00000  0.13862
      15     H     0.42785  0.42785  0.00000  0.14431
      16     H     0.41156  0.41156  0.00000  0.17689

   Total alpha = 25.00000, Total beta = 25.00000, Total charge =  0.00000
