  ==> Input File <==

--------------------------------------------------------------------------
set {
	reference rhf
	basis 6-31G*
}

set_num_threads( 4 )
memory 2 gb

molecule MOL {
0 1

H	 -1.281644	 -1.862090	 1.376601
N	 -0.496901	 -1.245921	 1.287191
C	 -0.563778	 -0.502042	 0.037919
H	 0.325341	 -1.818708	 1.311424
C	 0.575259	 0.508231	 -0.048326
H	 -1.512321	 0.026231	 0.018181
H	 -0.544781	 -1.143981	 -0.846558
C	 1.954651	 -0.143624	 0.035137
H	 0.475158	 1.060484	 -0.977307
H	 0.469181	 1.234488	 0.755973
H	 2.103292	 -0.853109	 -0.774172
H	 2.742821	 0.599562	 -0.030094
H	 2.083613	 -0.679371	 0.971560

	symmetry c1
}
set optking {
	frozen_dihedral = ("
		6 3 5 9
	")
}

ee = optimize('scf')
oeprop('DIPOLE', 'QUADRUPOLE', 'MULLIKEN_CHARGES')
f=open( 'psi4out.xyz', 'w' )
f.write( "13  " )
f.write( str(ee) + "\n" )
f.write( MOL.save_string_xyz() )
f.close()
--------------------------------------------------------------------------

    Molecular point group: c1
  Charge       = 0
  Multiplicity = 1
  Basis Set: 6-31G*
  Basis Set:
  @DF-RHF Final Energy:  -173.28080323869656
    Total Energy =                       -173.2808032386965351
    Molecular point group: c1
  Basis Set: 6-31G*
  Basis Set:
  Basis Set: 6-31G*
  Basis Set:
  @DF-RHF Final Energy:  -173.28116726205860
    Total Energy =                       -173.2811672620585455
  Basis Set: 6-31G*
  Basis Set:
  Basis Set: 6-31G*
  Basis Set:
  @DF-RHF Final Energy:  -173.28143073198157
    Total Energy =                       -173.2814307319815157
  Basis Set: 6-31G*
  Basis Set:
  Basis Set: 6-31G*
  Basis Set:
  @DF-RHF Final Energy:  -173.28144477057654
    Total Energy =                       -173.2814447705764280
  Basis Set: 6-31G*
  Basis Set:
  Basis Set: 6-31G*
  Basis Set:
  @DF-RHF Final Energy:  -173.28144710476792
    Total Energy =                       -173.2814471047678921
  Basis Set: 6-31G*
  Basis Set:
  Charge       = 0
  Multiplicity = 1
  Basis Set: 6-31G*
  Basis Set:

    Orbital Energies (a.u.)
    -----------------------

    Doubly Occupied:

       1A    -15.532762     2A    -11.240436     3A    -11.211256
       4A    -11.207870     5A     -1.177011     6A     -1.030772
       7A     -0.907588     8A     -0.787686     9A     -0.668340
      10A     -0.641064    11A     -0.571893    12A     -0.561992
      13A     -0.557742    14A     -0.481447    15A     -0.478338
      16A     -0.468841    17A     -0.381197

  @DF-RHF Final Energy:  -173.28144732620981

   => Energetics <=

    Nuclear Repulsion Energy =            133.8478088284776675
    One-Electron Energy =                -498.4460450408904535
    Two-Electron Energy =                 191.3167888862029713
    DFT Exchange-Correlation Energy =       0.0000000000000000
    Empirical Dispersion Energy =           0.0000000000000000
    PCM Polarization Energy =               0.0000000000000000
    EFP Energy =                            0.0000000000000000
    Total Energy =                       -173.2814473262097863
    Molecular point group: c1
  Basis Set: 6-31G*
  Basis Set:

  -Total Gradient:
     Atom            X                  Y                   Z
    ------   -----------------  -----------------  -----------------
       1        0.000008774708    -0.000002487596    -0.000001327949
       2        0.000017019395    -0.000009943587    -0.000001309230
       3        0.000090900208    -0.000210721951    -0.001340882233
       4       -0.000000451843    -0.000005518179     0.000013664876
       5       -0.000722014514     0.000851308862     0.000799542699
       6        0.000003449026     0.000070637974     0.001005397699
       7        0.000002859963     0.000008795469    -0.000001633654
       8        0.000011625792    -0.000001581523    -0.000007432998
       9        0.000588911454    -0.000688852301    -0.000467762701
      10       -0.000013369458    -0.000002387713    -0.000002473774
      11        0.000007400169    -0.000001992348     0.000000333931
      12        0.000002910301    -0.000005535588     0.000004570600
      13        0.000001984795    -0.000001721519    -0.000000687266

  **** Optimization is complete! (in 6 steps) ****
    Final optimized geometry and variables:
    Molecular point group: c1

    Geometry (in Angstrom), charge = 0, multiplicity = 1:

    H           -1.724015286991    -1.418194868290     1.056509210359
    N           -0.884637769652    -0.883052432330     0.946141683963
    C           -0.920418118217    -0.130198870573    -0.301058607848
    H           -0.126548956565    -1.537265042204     0.948966335446
    C            0.214284457920     0.888935662711    -0.375341295636
    H           -1.866097048994     0.401254874855    -0.326820633824
    H           -0.890268074204    -0.769384854445    -1.187052915367
    C            1.610675062098     0.267192844776    -0.319039431822
    H            0.114312010004     1.442886038982    -1.306125357264
    H            0.099253438133     1.597734400469     0.438707826010
    H            1.745698873010    -0.472141100341    -1.105097252697
    H            2.376379025358     1.025631024033    -0.447577513388
    H            1.792533543844    -0.216649101233     0.634991970779

  Mulliken Charges: (a.u.)
   Center  Symbol    Alpha    Beta     Spin     Total
       1     H     0.33202  0.33202  0.00000  0.33596
       2     N     3.92267  3.92267  0.00000 -0.84533
       3     C     3.06506  3.06506  0.00000 -0.13011
       4     H     0.33268  0.33268  0.00000  0.33464
       5     C     3.14672  3.14672  0.00000 -0.29344
       6     H     0.41937  0.41937  0.00000  0.16125
       7     H     0.43460  0.43460  0.00000  0.13080
       8     C     3.24784  3.24784  0.00000 -0.49568
       9     H     0.42470  0.42470  0.00000  0.15060
      10     H     0.41484  0.41484  0.00000  0.17032
      11     H     0.42469  0.42469  0.00000  0.15063
      12     H     0.41743  0.41743  0.00000  0.16513
      13     H     0.41738  0.41738  0.00000  0.16523

   Total alpha = 17.00000, Total beta = 17.00000, Total charge =  0.00000
