                              Psi4 1.0.54 Driver

  ==> Input File <==

--------------------------------------------------------------------------
set {
	reference rhf
	basis cc-pvtz
}

set_num_threads( 4 )
memory 2 gb

molecule MOL {
0 1

H	 -0.328776	 2.379036	 0.952316
C	 0.528107	 1.718357	 1.139154
C	 0.692262	 0.592428	 0.156232
O	 1.238483	 1.918175	 2.062774
C	 -0.554654	 -0.292621	 0.086567
H	 1.567243	 0.019584	 0.433890
H	 0.874472	 1.036718	 -0.820131
C	 -1.846385	 0.513195	 -0.016346
H	 -0.473986	 -0.956115	 -0.769708
H	 -0.597929	 -0.929215	 0.966651
C	 -3.089953	 -0.365049	 -0.098564
H	 -1.798267	 1.154820	 -0.891143
H	 -1.925398	 1.173265	 0.842889
H	 -3.055079	 -1.012299	 -0.968245
H	 -3.988403	 0.236438	 -0.170014
H	 -3.183055	 -0.995885	 0.779079

	symmetry c1
}
set optking {
	frozen_dihedral = ("
		6 3 5 9
	")
}

ee,wfn = optimize('scf', return_wfn=True)
oeprop( wfn, 'DIPOLE', 'QUADRUPOLE', 'MULLIKEN_CHARGES')
f=open( 'psi4out.xyz', 'w' )
f.write( "16  " )
f.write( str(ee) + "\n" )
f.write( MOL.save_string_xyz() )
f.close()
--------------------------------------------------------------------------

    Molecular point group: c1
  Charge       = 0
  Multiplicity = 1
  Basis Set: CC-PVTZ
  Basis Set:
  @DF-RHF Final Energy:  -270.11325946350792
    Total Energy =                       -270.1132594635078021
    Molecular point group: c1
  Basis Set: CC-PVTZ
  Basis Set:
  Basis Set: CC-PVTZ
  Basis Set:
  @DF-RHF Final Energy:  -270.11370386036776
    Total Energy =                       -270.1137038603676501
  Basis Set: CC-PVTZ
  Basis Set:
  Basis Set: CC-PVTZ
  Basis Set:
  @DF-RHF Final Energy:  -270.11540297417548
    Total Energy =                       -270.1154029741753675
  Basis Set: CC-PVTZ
  Basis Set:
  Basis Set: CC-PVTZ
  Basis Set:
  @DF-RHF Final Energy:  -270.11496500210092
    Total Energy =                       -270.1149650021011439
  Basis Set: CC-PVTZ
  Basis Set:
  @DF-RHF Final Energy:  -270.11567217603022
    Total Energy =                       -270.1156721760300456
  @DF-RHF Final Energy:  -270.11594263691222
    Total Energy =                       -270.1159426369121093
  Basis Set: CC-PVTZ
  Basis Set:
  @DF-RHF Final Energy:  -270.11598512669116
    Total Energy =                       -270.1159851266911573
  Basis Set: CC-PVTZ
  Basis Set:
  Basis Set: CC-PVTZ
  Basis Set:
  @DF-RHF Final Energy:  -270.11602392954910
    Total Energy =                       -270.1160239295489873
  Basis Set: CC-PVTZ
  Basis Set:
  Basis Set: CC-PVTZ
  Basis Set:
  @DF-RHF Final Energy:  -270.11602994881434
    Total Energy =                       -270.1160299488142300
  Basis Set: CC-PVTZ
  Basis Set:
  Charge       = 0
  Multiplicity = 1
  Basis Set: CC-PVTZ
  Basis Set:

    Orbital Energies (a.u.)
    -----------------------

    Doubly Occupied:

       1A    -20.551469     2A    -11.320102     3A    -11.234137
       4A    -11.233465     5A    -11.228215     6A    -11.216852
       7A     -1.405966     8A     -1.096062     9A     -1.017280
      10A     -0.905502    11A     -0.831877    12A     -0.773590
      13A     -0.684816    14A     -0.650416    15A     -0.622984
      16A     -0.603412    17A     -0.583956    18A     -0.558126
      19A     -0.530325    20A     -0.517844    21A     -0.491167
      22A     -0.479764    23A     -0.471006    24A     -0.409949

  @DF-RHF Final Energy:  -270.11603059928132

   => Energetics <=

    Nuclear Repulsion Energy =            233.9914327181874114
    One-Electron Energy =                -829.3783663994329345
    Two-Electron Energy =                 325.2709030819642066
    DFT Exchange-Correlation Energy =       0.0000000000000000
    Empirical Dispersion Energy =           0.0000000000000000
    PCM Polarization Energy =               0.0000000000000000
    EFP Energy =                            0.0000000000000000
    Total Energy =                       -270.1160305992813164
    Molecular point group: c1
  Basis Set: CC-PVTZ
  Basis Set:

  -Total Gradient:
     Atom            X                  Y                   Z
    ------   -----------------  -----------------  -----------------
       1       -0.000016938442     0.000014298590     0.000003531274
       2        0.000058229711    -0.000033028399     0.000065436078
       3        0.000370411819    -0.000218449558    -0.004111928127
       4       -0.000045689565     0.000022337577    -0.000061427710
       5        0.001549842972    -0.002484284277     0.002783875630
       6       -0.000525679403     0.000528649963     0.003023363315
       7       -0.000009397533     0.000007859933     0.000003460300
       8       -0.000000136930    -0.000009649420     0.000005611582
       9       -0.001380501242     0.002142376926    -0.001713881766
      10        0.000006733631     0.000006586367     0.000002797594
      11        0.000012021768     0.000013474400     0.000001888356
      12       -0.000009455519     0.000000136348    -0.000011841117
      13       -0.000013317849     0.000003629474     0.000003099991
      14        0.000005551873     0.000003010616    -0.000002468281
      15       -0.000008032086     0.000005196093    -0.000000048470
      16        0.000006356798    -0.000002144631     0.000008531351

  **** Optimization is complete! (in 10 steps) ****
    Final optimized geometry and variables:
    Molecular point group: c1

    Geometry (in Angstrom), charge = 0, multiplicity = 1:

    H            0.558954203110     1.950916143525     0.341414929824
    C            1.144718464209     1.063649240997     0.606041417501
    C            1.222743736802    -0.019199778811    -0.440043789601
    O            1.667267173252     0.998458702088     1.665594191042
    C           -0.044936176553    -0.888357145120    -0.498779115420
    H            2.074927915042    -0.634811176356    -0.184591765836
    H            1.394077392063     0.448545032922    -1.404889098506
    C           -1.359492187465    -0.113497347088    -0.603592864532
    H            0.035643268878    -1.529131772552    -1.370624755979
    H           -0.073027379561    -1.531645068747     0.373773177125
    C           -2.561097443723    -1.034168448795    -0.788111597382
    H           -1.306493181420     0.580655586835    -1.438507054516
    H           -1.511547460286     0.487925602031     0.287117167147
    H           -2.468994234219    -1.620447981843    -1.696083388184
    H           -3.482172875298    -0.467053022340    -0.851748788900
    H           -2.654238002808    -1.724721969675     0.043109841422

  Mulliken Charges: (a.u.)
   Center  Symbol    Alpha    Beta     Spin     Total
       1     H     0.46032  0.46032  0.00000  0.07937
       2     C     2.90626  2.90626  0.00000  0.18747
       3     C     3.09192  3.09192  0.00000 -0.18384
       4     O     4.16673  4.16673  0.00000 -0.33346
       5     C     3.09661  3.09661  0.00000 -0.19322
       6     H     0.43839  0.43839  0.00000  0.12322
       7     H     0.44875  0.44875  0.00000  0.10250
       8     C     3.09475  3.09475  0.00000 -0.18949
       9     H     0.44892  0.44892  0.00000  0.10216
      10     H     0.44444  0.44444  0.00000  0.11112
      11     C     3.14858  3.14858  0.00000 -0.29716
      12     H     0.45198  0.45198  0.00000  0.09605
      13     H     0.44918  0.44918  0.00000  0.10164
      14     H     0.45394  0.45394  0.00000  0.09213
      15     H     0.44669  0.44669  0.00000  0.10663
      16     H     0.45255  0.45255  0.00000  0.09489

   Total alpha = 24.00000, Total beta = 24.00000, Total charge = -0.00000

*** Psi4 exiting successfully. Buy a developer a beer!
