                              Psi4 1.0.54 Driver

  ==> Input File <==

--------------------------------------------------------------------------
set {
	reference rhf
	basis cc-pvtz
}

set_num_threads( 4 )
memory 2 gb

molecule MOL {
0 1

H	 1.301991	 -2.588825	 -1.757487
C	 1.255997	 -1.554774	 -1.432821
C	 0.135987	 -1.371460	 -0.417697
H	 1.082422	 -0.929350	 -2.299791
H	 2.225589	 -1.296872	 -1.025251
N	 0.000297	 0.000045	 0.046090
H	 -0.792358	 -1.666678	 -0.886888
H	 0.280823	 -2.055863	 0.422865
C	 -1.359159	 0.315706	 0.454404
C	 0.979050	 0.340317	 1.066276
C	 -2.416729	 -0.286720	 -0.460525
H	 -1.478729	 1.390261	 0.442008
H	 -1.539692	 0.003361	 1.486761
C	 1.329656	 1.821815	 1.092340
H	 1.885655	 -0.214761	 0.868750
H	 0.639103	 0.021798	 2.055667
H	 -2.285276	 0.073129	 -1.473515
H	 -2.371743	 -1.368476	 -0.483209
H	 -3.408658	 -0.007405	 -0.121593
H	 1.732342	 2.128788	 0.134990
H	 0.469078	 2.443492	 1.306114
H	 2.073088	 2.017616	 1.857705

	symmetry c1
}
set optking {
	frozen_dihedral = ("
		3 6 9 11
	")
}

ee,wfn = optimize('scf', return_wfn=True)
oeprop( wfn, 'DIPOLE', 'QUADRUPOLE', 'MULLIKEN_CHARGES')
f=open( 'psi4out.xyz', 'w' )
f.write( "22  " )
f.write( str(ee) + "\n" )
f.write( MOL.save_string_xyz() )
f.close()
--------------------------------------------------------------------------

    Molecular point group: c1
  Charge       = 0
  Multiplicity = 1
  Basis Set: CC-PVTZ
  Basis Set:
  @DF-RHF Final Energy:  -290.46587731989462
    Total Energy =                       -290.4658773198946164
    Molecular point group: c1
  Basis Set: CC-PVTZ
  Basis Set:
  Basis Set: CC-PVTZ
  Basis Set:
  @DF-RHF Final Energy:  -289.92786113616563
    Total Energy =                       -289.9278611361656317
  Basis Set: CC-PVTZ
  Basis Set:
  Basis Set: CC-PVTZ
  Basis Set:
  @DF-RHF Final Energy:  -290.12481633833568
    Total Energy =                       -290.1248163383359042
  Basis Set: CC-PVTZ
  Basis Set:
  Basis Set: CC-PVTZ
  Basis Set:
  @DF-RHF Final Energy:  -290.35054782544512
    Total Energy =                       -290.3505478254453465
  Basis Set: CC-PVTZ
  Basis Set:
  @DF-RHF Final Energy:  -290.46534466152758
    Total Energy =                       -290.4653446615269559
  @DF-RHF Final Energy:  -290.46211374213658
    Total Energy =                       -290.4621137421365802
  @DF-RHF Final Energy:  -290.47164778927498
    Total Energy =                       -290.4716477892751527
  @DF-RHF Final Energy:  -290.47224031242428
    Total Energy =                       -290.4722403124244465
  @DF-RHF Final Energy:  -290.47232280513987
    Total Energy =                       -290.4723228051399246
  @DF-RHF Final Energy:  -290.47237284459129
    Total Energy =                       -290.4723728445912343
  @DF-RHF Final Energy:  -290.47239615631031
    Total Energy =                       -290.4723961563103671
  @DF-RHF Final Energy:  -290.47240928707186
    Total Energy =                       -290.4724092870719687
  Basis Set: CC-PVTZ
  Basis Set:
  @DF-RHF Final Energy:  -290.47241641781397
    Total Energy =                       -290.4724164178140882
  Basis Set: CC-PVTZ
  Basis Set:
  Basis Set: CC-PVTZ
  Basis Set:
  @DF-RHF Final Energy:  -290.47241840147893
    Total Energy =                       -290.4724184014792172
  Basis Set: CC-PVTZ
  Basis Set:
  Basis Set: CC-PVTZ
  Basis Set:
  @DF-RHF Final Energy:  -290.47241945336486
    Total Energy =                       -290.4724194533644663
  Basis Set: CC-PVTZ
  Basis Set:
  Charge       = 0
  Multiplicity = 1
  Basis Set: CC-PVTZ
  Basis Set:

    Orbital Energies (a.u.)
    -----------------------

    Doubly Occupied:

       1A    -15.532515     2A    -11.238899     3A    -11.237174
       4A    -11.236906     5A    -11.208797     6A    -11.203864
       7A    -11.203438     8A     -1.224096     9A     -1.025185
      10A     -1.024304    11A     -0.958665    12A     -0.855175
      13A     -0.845996    14A     -0.761648    15A     -0.647946
      16A     -0.640113    17A     -0.635101    18A     -0.596083
      19A     -0.593748    20A     -0.547589    21A     -0.529215
      22A     -0.521698    23A     -0.517830    24A     -0.501500
      25A     -0.490890    26A     -0.486230    27A     -0.464822
      28A     -0.460913    29A     -0.339169

  @DF-RHF Final Energy:  -290.47241962298330

   => Energetics <=

    Nuclear Repulsion Energy =            337.9453908058533784
    One-Electron Energy =               -1061.7766014069288758
    Two-Electron Energy =                 433.3587909780922018
    DFT Exchange-Correlation Energy =       0.0000000000000000
    Empirical Dispersion Energy =           0.0000000000000000
    PCM Polarization Energy =               0.0000000000000000
    EFP Energy =                            0.0000000000000000
    Total Energy =                       -290.4724196229833524
    Molecular point group: c1
  Basis Set: CC-PVTZ
  Basis Set:

  -Total Gradient:
     Atom            X                  Y                   Z
    ------   -----------------  -----------------  -----------------
       1        0.000002184104     0.000001605497     0.000009811091
       2        0.000006292480     0.000002303661    -0.000032172381
       3       -0.001623979957     0.002818947243    -0.001350326563
       4       -0.000004172392     0.000008100864     0.000000714021
       5        0.000003155795    -0.000004856971    -0.000001331213
       6        0.002073967285    -0.005683067594     0.002204217563
       7       -0.000003734341     0.000013329163     0.000008020652
       8       -0.000001264384    -0.000014695607    -0.000001208535
       9       -0.000076685648     0.006211990693    -0.001189553526
      10        0.000068608256     0.000022850146    -0.000023206735
      11       -0.000431472128    -0.003329311208     0.000380511289
      12       -0.000011675558    -0.000013527142     0.000035018966
      13       -0.000005050070    -0.000026591126    -0.000032217266
      14       -0.000022411961    -0.000019338425     0.000006906024
      15        0.000002737357    -0.000006142792    -0.000005905857
      16       -0.000002253957     0.000012445357    -0.000000513836
      17        0.000000706811     0.000001238779    -0.000002959577
      18        0.000002469579    -0.000000605041     0.000003525879
      19        0.000006882184    -0.000002822301    -0.000008112046
      20       -0.000000176081     0.000007038007    -0.000013054159
      21        0.000001973275     0.000001371323     0.000013186342
      22        0.000013899350    -0.000000262524    -0.000001350137

  **** Optimization is complete! (in 16 steps) ****
    Final optimized geometry and variables:
    Molecular point group: c1

    Geometry (in Angstrom), charge = 0, multiplicity = 1:

    H           -0.869182978617    -1.188578784061    -3.055899080210
    C           -0.236514025304    -0.596960563752    -2.403024846012
    C           -0.669100948178    -0.797277700289    -0.954393847559
    H           -0.335466544411     0.445020638404    -2.682214539869
    H            0.785763240987    -0.899818798451    -2.586805104315
    N            0.022503514021     0.070804039040    -0.019050634094
    H           -1.723098950014    -0.581059806923    -0.908227597554
    H           -0.558691679936    -1.853600248017    -0.684989801040
    C           -0.644804042838     0.304254514282     1.254023174886
    C            1.414359428723    -0.292216436566     0.169304224403
    C           -2.154890367621     0.493947518277     1.199697755770
    H           -0.213080148716     1.192910075874     1.693303120789
    H           -0.437191372935    -0.514454899448     1.952342426734
    C            2.275409997428     0.821363825640     0.753627121299
    H            1.829182905287    -0.557941108236    -0.791172996301
    H            1.500413701425    -1.183496764932     0.800071996035
    H           -2.435681342387     1.240712575616     0.465600962473
    H           -2.684397828180    -0.422613854345     0.977722451409
    H           -2.495952990014     0.836955515397     2.169650934102
    H            2.171226631167     1.726949028753     0.167876188699
    H            2.021030800436     1.049728212186     1.780370160667
    H            3.317486464974     0.521946086751     0.738056086080

  Mulliken Charges: (a.u.)
   Center  Symbol    Alpha    Beta     Spin     Total
       1     H     0.45146  0.45146  0.00000  0.09709
       2     C     3.14666  3.14666  0.00000 -0.29333
       3     C     3.03776  3.03776  0.00000 -0.07553
       4     H     0.45118  0.45118  0.00000  0.09765
       5     H     0.45453  0.45453  0.00000  0.09093
       6     N     3.61734  3.61734  0.00000 -0.23468
       7     H     0.44805  0.44805  0.00000  0.10390
       8     H     0.46976  0.46976  0.00000  0.06047
       9     C     3.02735  3.02735  0.00000 -0.05471
      10     C     3.03977  3.03977  0.00000 -0.07955
      11     C     3.15996  3.15996  0.00000 -0.31993
      12     H     0.45422  0.45422  0.00000  0.09156
      13     H     0.47289  0.47289  0.00000  0.05421
      14     C     3.15050  3.15050  0.00000 -0.30099
      15     H     0.45041  0.45041  0.00000  0.09918
      16     H     0.46693  0.46693  0.00000  0.06613
      17     H     0.45012  0.45012  0.00000  0.09976
      18     H     0.45177  0.45177  0.00000  0.09646
      19     H     0.44543  0.44543  0.00000  0.10914
      20     H     0.45015  0.45015  0.00000  0.09969
      21     H     0.45367  0.45367  0.00000  0.09266
      22     H     0.45006  0.45006  0.00000  0.09988

   Total alpha = 29.00000, Total beta = 29.00000, Total charge =  0.00000

*** Psi4 exiting successfully. Buy a developer a beer!
