  ==> Input File <==

--------------------------------------------------------------------------
set {
	reference rhf
	basis 6-31G*
}

set_num_threads( 4 )
memory 2 gb

molecule MOL {
0 1

H	 1.136379	 0.211822	 1.465562
C	 1.135357	 0.094285	 0.374742
C	 0.065331	 0.871482	 -0.349150
O	 1.941633	 -0.601957	 -0.151457
C	 -1.062948	 -0.030469	 -0.869679
H	 0.531917	 1.427339	 -1.154279
H	 -0.346664	 1.588939	 0.359141
C	 -0.612091	 -0.984889	 -1.976130
H	 -1.864637	 0.600362	 -1.240297
H	 -1.482270	 -0.598736	 -0.042103
H	 -0.221714	 -0.435824	 -2.827400
H	 -1.441139	 -1.592905	 -2.322991
H	 0.169289	 -1.657248	 -1.634415

	symmetry c1
}
set optking {
	frozen_dihedral = ("
		6 3 2 4
	")
}

ee = optimize('scf')
oeprop('DIPOLE', 'QUADRUPOLE', 'MULLIKEN_CHARGES')
f=open( 'psi4out.xyz', 'w' )
f.write( "13  " )
f.write( str(ee) + "\n" )
f.write( MOL.save_string_xyz() )
f.close()
--------------------------------------------------------------------------

    Molecular point group: c1
  Charge       = 0
  Multiplicity = 1
  Basis Set: 6-31G*
  Basis Set:
  @DF-RHF Final Energy:  -230.98207065991949
    Total Energy =                       -230.9820706599194864
    Molecular point group: c1
  Basis Set: 6-31G*
  Basis Set:
  Basis Set: 6-31G*
  Basis Set:
  @DF-RHF Final Energy:  -230.98128919592190
    Total Energy =                       -230.9812891959219314
  Basis Set: 6-31G*
  Basis Set:
  Basis Set: 6-31G*
  Basis Set:
  @DF-RHF Final Energy:  -230.98235692562398
    Total Energy =                       -230.9823569256238329
  Basis Set: 6-31G*
  Basis Set:
  Basis Set: 6-31G*
  Basis Set:
  @DF-RHF Final Energy:  -230.98250420061368
    Total Energy =                       -230.9825042006137323
  Basis Set: 6-31G*
  Basis Set:
  Charge       = 0
  Multiplicity = 1
  Basis Set: 6-31G*
  Basis Set:

    Orbital Energies (a.u.)
    -----------------------

    Doubly Occupied:

       1A    -20.564027     2A    -11.328251     3A    -11.236220
       4A    -11.235630     5A    -11.210386     6A     -1.403964
       7A     -1.079376     8A     -0.970496     9A     -0.844413
      10A     -0.781044    11A     -0.678279    12A     -0.649575
      13A     -0.602469    14A     -0.592331    15A     -0.566273
      16A     -0.523709    17A     -0.501195    18A     -0.489490
      19A     -0.478720    20A     -0.408137

  @DF-RHF Final Energy:  -230.98250375866061

   => Energetics <=

    Nuclear Repulsion Energy =            175.7163092147052623
    One-Electron Energy =                -661.1096560840211396
    Two-Electron Energy =                 254.4108431106551507
    DFT Exchange-Correlation Energy =       0.0000000000000000
    Empirical Dispersion Energy =           0.0000000000000000
    PCM Polarization Energy =               0.0000000000000000
    EFP Energy =                            0.0000000000000000
    Total Energy =                       -230.9825037586607550
    Molecular point group: c1
  Basis Set: 6-31G*
  Basis Set:

  -Total Gradient:
     Atom            X                  Y                   Z
    ------   -----------------  -----------------  -----------------
       1       -0.000059960277     0.000100716439    -0.000030593879
       2        0.001265918451     0.002014160751    -0.000131526125
       3       -0.000547887582    -0.002064044199    -0.001308722502
       4       -0.000966232594    -0.001201936032     0.000132598575
       5       -0.000054577887     0.000062807371     0.000229608235
       6        0.000311209955     0.001167037734     0.000930947179
       7       -0.000027284973    -0.000072302638     0.000138928263
       8        0.000009859589     0.000129988144    -0.000015945660
       9       -0.000055244906    -0.000059929381     0.000011552986
      10        0.000033501914    -0.000007998989     0.000034957062
      11        0.000047083949     0.000029518031    -0.000013111047
      12        0.000029535647     0.000042557240    -0.000040068478
      13        0.000014078707    -0.000140574470     0.000061375387

  **** Optimization is complete! (in 5 steps) ****
    Final optimized geometry and variables:
    Molecular point group: c1

    Geometry (in Angstrom), charge = 0, multiplicity = 1:

    H            0.832177020583     0.390035695660     2.093530837403
    C            0.836418678107     0.262963503742     1.005326845495
    C           -0.231034120081     1.016492073731     0.244524710700
    O            1.635447544780    -0.456848553434     0.497516217434
    C           -1.354628413031     0.098710508905    -0.273598841343
    H            0.243730668174     1.535474746495    -0.582840258092
    H           -0.656453434230     1.769566564944     0.901409161900
    C           -0.928750495211    -0.832020008141    -1.408335781322
    H           -2.167639961750     0.732996696437    -0.613962106278
    H           -1.752537697567    -0.485244938168     0.553395319277
    H           -0.561546821308    -0.262563204388    -2.257034263823
    H           -1.772621320944    -1.425255751725    -1.746481801712
    H           -0.141256543419    -1.507359529273    -1.099221248383

  Mulliken Charges: (a.u.)
   Center  Symbol    Alpha    Beta     Spin     Total
       1     H     0.42746  0.42746  0.00000  0.14509
       2     C     2.84405  2.84405  0.00000  0.31191
       3     C     3.20171  3.20171  0.00000 -0.40341
       4     O     4.23515  4.23515  0.00000 -0.47030
       5     C     3.15960  3.15960  0.00000 -0.31920
       6     H     0.40060  0.40060  0.00000  0.19879
       7     H     0.41497  0.41497  0.00000  0.17006
       8     C     3.24156  3.24156  0.00000 -0.48312
       9     H     0.41398  0.41398  0.00000  0.17204
      10     H     0.41814  0.41814  0.00000  0.16372
      11     H     0.42031  0.42031  0.00000  0.15937
      12     H     0.41995  0.41995  0.00000  0.16010
      13     H     0.40253  0.40253  0.00000  0.19494

   Total alpha = 20.00000, Total beta = 20.00000, Total charge =  0.00000
