  ==> Input File <==

--------------------------------------------------------------------------
set {
	reference rhf
	basis 6-31G*
}

set_num_threads( 4 )
memory 2 gb

molecule MOL {
0 1

H	 -3.161837	 0.500524	 -0.000234
C	 -2.367097	 -0.232926	 -0.000000
O	 -1.158440	 0.455814	 -0.000122
H	 -2.468853	 -0.861886	 -0.882833
H	 -2.468942	 -0.861421	 0.883154
C	 -0.029776	 -0.365156	 0.000148
C	 1.212217	 0.508981	 0.000007
H	 -0.036772	 -1.013236	 -0.877259
H	 -0.036869	 -1.012778	 0.877897
C	 2.057742	 0.323226	 1.259158
H	 1.798320	 0.274155	 -0.883170
H	 0.903690	 1.545534	 -0.095219
H	 2.397568	 -0.703741	 1.360555
H	 2.936539	 0.958726	 1.232679
H	 1.496311	 0.576021	 2.154309

	symmetry c1
}
set optking {
	frozen_dihedral = ("
		11 7 6 8
	")
}

ee = optimize('scf')
oeprop('DIPOLE', 'QUADRUPOLE', 'MULLIKEN_CHARGES')
f=open( 'psi4out.xyz', 'w' )
f.write( "15  " )
f.write( str(ee) + "\n" )
f.write( MOL.save_string_xyz() )
f.close()
--------------------------------------------------------------------------

    Molecular point group: c1
  Charge       = 0
  Multiplicity = 1
  Basis Set: 6-31G*
  Basis Set:
  @DF-RHF Final Energy:  -232.13308847933064
    Total Energy =                       -232.1330884793307519
    Molecular point group: c1
  Basis Set: 6-31G*
  Basis Set:
  Basis Set: 6-31G*
  Basis Set:
  @DF-RHF Final Energy:  -232.13345822594411
    Total Energy =                       -232.1334582259443664
  Basis Set: 6-31G*
  Basis Set:
  Basis Set: 6-31G*
  Basis Set:
  @DF-RHF Final Energy:  -232.13359069021647
    Total Energy =                       -232.1335906902163515
  Basis Set: 6-31G*
  Basis Set:
  Charge       = 0
  Multiplicity = 1
  Basis Set: 6-31G*
  Basis Set:

    Orbital Energies (a.u.)
    -----------------------

    Doubly Occupied:

       1A    -20.553411     2A    -11.266567     3A    -11.263593
       4A    -11.213985     5A    -11.210226     6A     -1.377570
       7A     -1.052850     8A     -0.953548     9A     -0.879259
      10A     -0.808212    11A     -0.668793    12A     -0.658045
      13A     -0.631466    14A     -0.591164    15A     -0.574593
      16A     -0.545370    17A     -0.491429    18A     -0.489350
      19A     -0.480605    20A     -0.460932    21A     -0.411029

  @DF-RHF Final Energy:  -232.13359163122291

   => Energetics <=

    Nuclear Repulsion Energy =            190.2046041012031026
    One-Electron Energy =                -691.5123965803312558
    Two-Electron Energy =                 269.1742008479052970
    DFT Exchange-Correlation Energy =       0.0000000000000000
    Empirical Dispersion Energy =           0.0000000000000000
    PCM Polarization Energy =               0.0000000000000000
    EFP Energy =                            0.0000000000000000
    Total Energy =                       -232.1335916312228278
    Molecular point group: c1
  Basis Set: 6-31G*
  Basis Set:

  -Total Gradient:
     Atom            X                  Y                   Z
    ------   -----------------  -----------------  -----------------
       1       -0.000053319855    -0.000031613800     0.000000411852
       2       -0.000069486992     0.000057108031     0.000002269921
       3        0.000127631851    -0.000100078381    -0.000005246336
       4       -0.000002999958    -0.000003874055     0.000012069948
       5       -0.000005147401    -0.000005010217    -0.000011417828
       6       -0.000708911600     0.001130121181    -0.000760390628
       7        0.000792240212    -0.001047252801     0.000748262216
       8        0.000465168377    -0.000708575638     0.000521766530
       9       -0.000029054190     0.000012564080    -0.000005166559
      10       -0.000007826127    -0.000007139107     0.000030176717
      11       -0.000505457063     0.000701412680    -0.000507188350
      12        0.000005269761     0.000007103338    -0.000005344431
      13        0.000013253751    -0.000001381854    -0.000010597935
      14       -0.000014128092     0.000012348235    -0.000011518156
      15       -0.000007232677    -0.000015731694     0.000001913038

  **** Optimization is complete! (in 4 steps) ****
    Final optimized geometry and variables:
    Molecular point group: c1

    Geometry (in Angstrom), charge = 0, multiplicity = 1:

    H           -3.079454761698     0.376077644537    -0.245175171960
    C           -2.285008031319    -0.357782673102    -0.252263830826
    O           -1.075779587904     0.329360091169    -0.254696553939
    H           -2.391412140735    -0.982584028604    -1.137641144848
    H           -2.383451522721    -0.991034631138     0.628032576728
    C            0.051131368033    -0.498611105780    -0.265730448415
    C            1.317211071327     0.368943665953    -0.254427264260
    H            0.026566013833    -1.144016668011    -1.142935508667
    H            0.028489795197    -1.154603885720     0.604835909443
    C            2.161315221848     0.204180680494     1.009002124133
    H            1.922352518573     0.152373799732    -1.129740225210
    H            0.999758026538     1.400898404171    -0.350457019063
    H            2.517456015262    -0.816653637658     1.117438133177
    H            3.029607521217     0.855015914292     0.985844205547
    H            1.583661354262     0.450184034158     1.895092941121

  Mulliken Charges: (a.u.)
   Center  Symbol    Alpha    Beta     Spin     Total
       1     H     0.41227  0.41227  0.00000  0.17546
       2     C     3.07978  3.07978  0.00000 -0.15956
       3     O     4.30486  4.30486  0.00000 -0.60973
       4     H     0.43052  0.43052  0.00000  0.13895
       5     H     0.43055  0.43055  0.00000  0.13890
       6     C     2.98901  2.98901  0.00000  0.02198
       7     C     3.16679  3.16679  0.00000 -0.33359
       8     H     0.43041  0.43041  0.00000  0.13919
       9     H     0.43006  0.43006  0.00000  0.13987
      10     C     3.24425  3.24425  0.00000 -0.48849
      11     H     0.41981  0.41981  0.00000  0.16038
      12     H     0.40282  0.40282  0.00000  0.19435
      13     H     0.42292  0.42292  0.00000  0.15416
      14     H     0.41870  0.41870  0.00000  0.16261
      15     H     0.41724  0.41724  0.00000  0.16551

   Total alpha = 21.00000, Total beta = 21.00000, Total charge = -0.00000
