  ==> Input File <==

--------------------------------------------------------------------------
set {
	reference rhf
	basis 6-31G*
}

set_num_threads( 1 )
memory 2 gb

molecule MOL {
0 1

O	 1.516406	 0.806481	 0.887928
C	 1.122059	 0.121804	 -0.000188
C	 -0.170150	 -0.657997	 -0.000612
O	 1.786741	 -0.048864	 -1.135990
C	 -1.412532	 0.227344	 -0.000452
H	 -0.153702	 -1.313099	 -0.867402
H	 -0.153924	 -1.313811	 0.865644
C	 -2.706999	 -0.587347	 -0.000541
H	 -1.388000	 0.879466	 -0.868000
H	 -1.387972	 0.879138	 0.867341
C	 -3.956778	 0.291888	 0.000910
H	 -2.726114	 -1.239230	 -0.871609
H	 -2.725217	 -1.240844	 0.869333
H	 -3.985213	 0.933254	 -0.875158
H	 -4.860123	 -0.309979	 0.000519
H	 -3.984618	 0.931166	 0.878514
C	 3.022031	 0.631045	 -1.266084
H	 2.877050	 1.699438	 -1.195334
H	 3.401856	 0.368980	 -2.241278
H	 3.712704	 0.314671	 -0.497719

	symmetry c1
}
set optking {
	frozen_dihedral = ("
		9 5 8 12,
		9 5 3 6,
		1 2 4 17
	")
}

ee = energy('scf')
oeprop('DIPOLE', 'QUADRUPOLE', 'MULLIKEN_CHARGES')
f=open( 'psi4out.xyz', 'w' )
f.write( "20  " )
f.write( str(ee) + "\n" )
f.write( MOL.save_string_xyz() )
f.close()
--------------------------------------------------------------------------

    Molecular point group: c1

    Geometry (in Angstrom), charge = 0, multiplicity = 1:

       Center              X                  Y                   Z               Mass
    ------------   -----------------  -----------------  -----------------  -----------------
           O          1.584091135639     0.694211835413     1.087243410113    15.994914619560
           C          1.189744135639     0.009534835413     0.199127410113    12.000000000000
           C         -0.102464864361    -0.770266164587     0.198703410113    12.000000000000
           O          1.854426135639    -0.161133164587    -0.936674589887    15.994914619560
           C         -1.344846864361     0.115074835413     0.198863410113    12.000000000000
           H         -0.086016864361    -1.425368164587    -0.668086589887     1.007825032070
           H         -0.086238864361    -1.426080164587     1.064959410113     1.007825032070
           C         -2.639313864361    -0.699616164587     0.198774410113    12.000000000000
           H         -1.320314864361     0.767196835413    -0.668684589887     1.007825032070
           H         -1.320286864361     0.766868835413     1.066656410113     1.007825032070
           C         -3.889092864361     0.179618835413     0.200225410113    12.000000000000
           H         -2.658428864361    -1.351499164587    -0.672293589887     1.007825032070
           H         -2.657531864361    -1.353113164587     1.068648410113     1.007825032070
           H         -3.917527864361     0.820984835413    -0.675842589887     1.007825032070
           H         -4.792437864361    -0.422248164587     0.199834410113     1.007825032070
           H         -3.916932864361     0.818896835413     1.077829410113     1.007825032070
           C          3.089716135639     0.518775835413    -1.066768589887    12.000000000000
           H          2.944735135639     1.587168835413    -0.996018589887     1.007825032070
           H          3.469541135639     0.256710835413    -2.041962589887     1.007825032070
           H          3.780389135639     0.202401835413    -0.298403589887     1.007825032070

  Charge       = 0
  Multiplicity = 1
  Basis Set: 6-31G*
  Basis Set:

    Orbital Energies (a.u.)
    -----------------------

    Doubly Occupied:

       1A    -20.604965     2A    -20.543203     3A    -11.371443
       4A    -11.280306     5A    -11.233479     6A    -11.227989
       7A    -11.223836     8A    -11.213591     9A     -1.469065
      10A     -1.361667    11A     -1.092281    12A     -1.025293
      13A     -0.968995    14A     -0.888847    15A     -0.807567
      16A     -0.771981    17A     -0.694019    18A     -0.680415
      19A     -0.672792    20A     -0.646344    21A     -0.599649
      22A     -0.591892    23A     -0.573586    24A     -0.553296
      25A     -0.534372    26A     -0.522810    27A     -0.504207
      28A     -0.482294    29A     -0.479988    30A     -0.473650
      31A     -0.453999    32A     -0.431515

  @DF-RHF Final Energy:  -383.93932879347227

   => Energetics <=

    Nuclear Repulsion Energy =            381.5849719132262976
    One-Electron Energy =               -1279.0895014602151605
    Two-Electron Energy =                 513.5652007535175017
    DFT Exchange-Correlation Energy =       0.0000000000000000
    Empirical Dispersion Energy =           0.0000000000000000
    PCM Polarization Energy =               0.0000000000000000
    EFP Energy =                            0.0000000000000000
    Total Energy =                       -383.9393287934713044

  Mulliken Charges: (a.u.)
   Center  Symbol    Alpha    Beta     Spin     Total
       1     O     4.28570  4.28570  0.00000 -0.57141
       2     C     2.61147  2.61147  0.00000  0.77705
       3     C     3.20286  3.20286  0.00000 -0.40573
       4     O     4.30285  4.30285  0.00000 -0.60570
       5     C     3.16030  3.16030  0.00000 -0.32061
       6     H     0.40113  0.40113  0.00000  0.19773
       7     H     0.40172  0.40172  0.00000  0.19656
       8     C     3.15376  3.15376  0.00000 -0.30751
       9     H     0.41567  0.41567  0.00000  0.16866
      10     H     0.40637  0.40637  0.00000  0.18727
      11     C     3.24025  3.24025  0.00000 -0.48050
      12     H     0.42091  0.42091  0.00000  0.15818
      13     H     0.42011  0.42011  0.00000  0.15978
      14     H     0.42045  0.42045  0.00000  0.15909
      15     H     0.41764  0.41764  0.00000  0.16472
      16     H     0.41921  0.41921  0.00000  0.16158
      17     C     3.09334  3.09334  0.00000 -0.18668
      18     H     0.40893  0.40893  0.00000  0.18213
      19     H     0.40860  0.40860  0.00000  0.18280
      20     H     0.40871  0.40871  0.00000  0.18257

   Total alpha = 32.00000, Total beta = 32.00000, Total charge = -0.00000
