  ==> Input File <==

--------------------------------------------------------------------------
set {
	reference rhf
	basis 6-31G*
}

set_num_threads( 4 )
memory 2 gb

molecule MOL {
0 1

O	 1.846825	 1.296220	 0.000415
C	 1.705091	 0.115954	 0.001797
C	 0.381791	 -0.609817	 0.001258
O	 2.721346	 -0.737485	 -0.000216
C	 -0.823008	 0.326187	 0.001381
H	 0.371250	 -1.265087	 -0.865474
H	 0.370908	 -1.265746	 0.867490
C	 -2.149452	 -0.435131	 -0.000098
H	 -0.770201	 0.977095	 -0.865636
H	 -0.771220	 0.975655	 0.869608
C	 -3.368779	 0.488503	 -0.000883
H	 -2.193746	 -1.087250	 -0.871175
H	 -2.195311	 -1.087803	 0.870418
C	 -3.020449	 1.936042	 -0.345192
H	 -3.846052	 0.454184	 0.975935
H	 -4.102249	 0.114417	 -0.711671
H	 -2.314106	 2.350141	 0.368822
H	 -3.904897	 2.565446	 -0.337871
H	 -2.571881	 2.007605	 -1.332094
C	 4.024888	 -0.184556	 -0.001949
H	 4.179030	 0.422472	 -0.882452
H	 4.701782	 -1.024608	 -0.003642
H	 4.181981	 0.421185	 0.878906

	symmetry c1
}
set optking {
	frozen_dihedral = ("
		15 11 8 12
	")
}

ee = optimize('scf')
oeprop('DIPOLE', 'QUADRUPOLE', 'MULLIKEN_CHARGES')
f=open( 'psi4out.xyz', 'w' )
f.write( "23  " )
f.write( str(ee) + "\n" )
f.write( MOL.save_string_xyz() )
f.close()
--------------------------------------------------------------------------

    Molecular point group: c1
  Charge       = 0
  Multiplicity = 1
  Basis Set: 6-31G*
  Basis Set:
  @DF-RHF Final Energy:  -422.96378616443110
    Total Energy =                       -422.9637861644308714
    Molecular point group: c1
  Basis Set: 6-31G*
  Basis Set:
  Basis Set: 6-31G*
  Basis Set:
  @DF-RHF Final Energy:  -422.96444303350023
    Total Energy =                       -422.9644430334997196
  Basis Set: 6-31G*
  Basis Set:
  Basis Set: 6-31G*
  Basis Set:
  @DF-RHF Final Energy:  -422.96750173561293
    Total Energy =                       -422.9675017356130411
  Basis Set: 6-31G*
  Basis Set:
  Basis Set: 6-31G*
  Basis Set:
  @DF-RHF Final Energy:  -422.96787397344576
    Total Energy =                       -422.9678739734456485
  Basis Set: 6-31G*
  Basis Set:
  @DF-RHF Final Energy:  -422.96650926740460
    Total Energy =                       -422.9665092674039215
  Basis Set: 6-31G*
  Basis Set:
  @DF-RHF Final Energy:  -422.96792241501157
    Total Energy =                       -422.9679224150115715
  Basis Set: 6-31G*
  Basis Set:
  Basis Set: 6-31G*
  Basis Set:
  @DF-RHF Final Energy:  -422.96795661408078
    Total Energy =                       -422.9679566140812312
  Basis Set: 6-31G*
  Basis Set:
  Basis Set: 6-31G*
  Basis Set:
  @DF-RHF Final Energy:  -422.96795518040204
    Total Energy =                       -422.9679551804019866
  Basis Set: 6-31G*
  Basis Set:
  Charge       = 0
  Multiplicity = 1
  Basis Set: 6-31G*
  Basis Set:

    Orbital Energies (a.u.)
    -----------------------

    Doubly Occupied:

       1A    -20.603591     2A    -20.545386     3A    -11.372197
       4A    -11.280821     5A    -11.235392     6A    -11.219095
       7A    -11.218104     8A    -11.216769     9A    -11.207573
      10A     -1.469277    11A     -1.362719    12A     -1.091146
      13A     -1.039741    14A     -0.984930    15A     -0.931091
      16A     -0.860412    17A     -0.779125    18A     -0.765496
      19A     -0.696329    20A     -0.683609    21A     -0.672128
      22A     -0.647335    23A     -0.607017    24A     -0.598246
      25A     -0.591636    26A     -0.556367    27A     -0.536446
      28A     -0.524950    29A     -0.520026    30A     -0.515536
      31A     -0.494394    32A     -0.464150    33A     -0.462555
      34A     -0.457489    35A     -0.447967    36A     -0.435552

  @DF-RHF Final Energy:  -422.96795705739498

   => Energetics <=

    Nuclear Repulsion Energy =            457.9725659886526046
    One-Electron Energy =               -1483.6918532600473100
    Two-Electron Energy =                 602.7513302139998359
    DFT Exchange-Correlation Energy =       0.0000000000000000
    Empirical Dispersion Energy =           0.0000000000000000
    PCM Polarization Energy =               0.0000000000000000
    EFP Energy =                            0.0000000000000000
    Total Energy =                       -422.9679570573948695
    Molecular point group: c1
  Basis Set: 6-31G*
  Basis Set:

  -Total Gradient:
     Atom            X                  Y                   Z
    ------   -----------------  -----------------  -----------------
       1       -0.000002783902     0.000000364831     0.000001463647
       2       -0.000004869715     0.000007280170    -0.000005426867
       3        0.000003278637    -0.000009656032     0.000001588373
       4        0.000003023471    -0.000007714426    -0.000001070362
       5        0.000000124176     0.000001514905     0.000001614881
       6        0.000001990444     0.000000960436     0.000000785996
       7        0.000001098466     0.000000438389     0.000000139136
       8        0.002250444195     0.003595550699    -0.003902523878
       9       -0.000001992805     0.000000266372    -0.000000513021
      10       -0.000002214699     0.000000858794     0.000000855191
      11        0.003003011387     0.004214757999     0.002531392024
      12       -0.002359070154    -0.003689922214     0.002876181633
      13        0.000003158701     0.000000239028    -0.000003210836
      14       -0.000005580931    -0.000004069726    -0.000000209123
      15       -0.002887657829    -0.004108646359    -0.001508466655
      16        0.000000532360     0.000003091686     0.000001726224
      17        0.000005154387    -0.000001461258     0.000002137968
      18       -0.000001132623    -0.000002928558     0.000002288042
      19       -0.000002307072    -0.000001236528    -0.000001155747
      20       -0.000005730712    -0.000000296077     0.000004350595
      21       -0.000000533100     0.000000349928    -0.000000643225
      22        0.000000414705    -0.000000184360    -0.000000599866
      23        0.000001642599     0.000000442302    -0.000000704132

  **** Optimization is complete! (in 9 steps) ****
    Final optimized geometry and variables:
    Molecular point group: c1

    Geometry (in Angstrom), charge = 0, multiplicity = 1:

    O            1.728128247111     1.016505947641     0.081168186228
    C            1.553053568598    -0.158846650915     0.048818303456
    C            0.209857001640    -0.846631987910     0.020886440938
    O            2.544751479909    -1.040585502454     0.033043822069
    C           -0.967501402437     0.124017960475     0.036744554762
    H            0.186977966070    -1.478667930762    -0.862746989945
    H            0.174568260206    -1.524271983515     0.869524184889
    C           -2.305046933175    -0.618290842696     0.007674590334
    H           -0.881535669208     0.795772969914    -0.809280874566
    H           -0.902407151622     0.744314565869     0.924681713418
    C           -3.585245040094     0.253564169011     0.070105561377
    H           -2.352528443060    -1.267489232480    -0.863711612580
    H           -2.328153037343    -1.303970134833     0.852565251400
    C           -3.445799581960     1.718812873635    -0.345073964019
    H           -4.015284252907     0.190010055193     1.065751640043
    H           -4.331380469930    -0.205813124685    -0.573508425594
    H           -2.763646823978     2.264608960177     0.297377533320
    H           -4.410945918148     2.213155772220    -0.293072567484
    H           -3.086172493720     1.811847283125    -1.365375874409
    C            3.863390794965    -0.525194353738     0.056598906275
    H            4.042723724377     0.099618507596    -0.806515330321
    H            4.516247045289    -1.383932724450     0.038703958397
    H            4.029544938893     0.052905103967     0.954214522264

  Mulliken Charges: (a.u.)
   Center  Symbol    Alpha    Beta     Spin     Total
       1     O     4.28621  4.28621  0.00000 -0.57242
       2     C     2.60493  2.60493  0.00000  0.79014
       3     C     3.20811  3.20811  0.00000 -0.41622
       4     O     4.30727  4.30727  0.00000 -0.61455
       5     C     3.15450  3.15450  0.00000 -0.30900
       6     H     0.40065  0.40065  0.00000  0.19870
       7     H     0.40071  0.40071  0.00000  0.19857
       8     C     3.15872  3.15872  0.00000 -0.31744
       9     H     0.40936  0.40936  0.00000  0.18129
      10     H     0.41142  0.41142  0.00000  0.17715
      11     C     3.15432  3.15432  0.00000 -0.30864
      12     H     0.42198  0.42198  0.00000  0.15605
      13     H     0.42229  0.42229  0.00000  0.15542
      14     C     3.24308  3.24308  0.00000 -0.48615
      15     H     0.42033  0.42033  0.00000  0.15933
      16     H     0.42070  0.42070  0.00000  0.15859
      17     H     0.41677  0.41677  0.00000  0.16646
      18     H     0.41896  0.41896  0.00000  0.16208
      19     H     0.42065  0.42065  0.00000  0.15871
      20     C     3.09244  3.09244  0.00000 -0.18489
      21     H     0.40908  0.40908  0.00000  0.18184
      22     H     0.40842  0.40842  0.00000  0.18315
      23     H     0.40909  0.40909  0.00000  0.18181

   Total alpha = 36.00000, Total beta = 36.00000, Total charge = -0.00000
