                              Psi4 1.0.54 Driver

  ==> Input File <==

--------------------------------------------------------------------------
set {
	reference rhf
	basis cc-pvtz
}

set_num_threads( 4 )
memory 2 gb

molecule MOL {
0 1

H	 -1.025188	 0.807056	 -0.589561
N	 -0.712187	 0.000026	 -0.093397
C	 0.734067	 -0.000020	 0.038424
H	 -1.023908	 -0.798317	 -0.604203
H	 1.140372	 -0.872115	 -0.458226
H	 1.140363	 0.872301	 -0.457869
H	 1.095085	 -0.000244	 1.065614

	symmetry c1
}
set optking {
	frozen_dihedral = ("
		1 2 3 7
	")
}

ee,wfn = optimize('scf', return_wfn=True)
oeprop( wfn, 'DIPOLE', 'QUADRUPOLE', 'MULLIKEN_CHARGES')
f=open( 'psi4out.xyz', 'w' )
f.write( "7  " )
f.write( str(ee) + "\n" )
f.write( MOL.save_string_xyz() )
f.close()
--------------------------------------------------------------------------

    Molecular point group: c1
  Charge       = 0
  Multiplicity = 1
  Basis Set: CC-PVTZ
  Basis Set:
  @DF-RHF Final Energy:   -95.24939894675211
    Total Energy =                        -95.2493989467521089
    Molecular point group: c1
  Basis Set: CC-PVTZ
  Basis Set:
  Basis Set: CC-PVTZ
  Basis Set:
  @DF-RHF Final Energy:   -95.25027831934855
    Total Energy =                        -95.2502783193485527
  Basis Set: CC-PVTZ
  Basis Set:
  Basis Set: CC-PVTZ
  Basis Set:
  @DF-RHF Final Energy:   -95.25041326271858
    Total Energy =                        -95.2504132627185811
  Basis Set: CC-PVTZ
  Basis Set:
  Charge       = 0
  Multiplicity = 1
  Basis Set: CC-PVTZ
  Basis Set:

    Orbital Energies (a.u.)
    -----------------------

    Doubly Occupied:

       1A    -15.526070     2A    -11.235601     3A     -1.168873
       4A     -0.898050     5A     -0.666026     6A     -0.600160
       7A     -0.560814     8A     -0.517854     9A     -0.382937

  @DF-RHF Final Energy:   -95.25041403422676

   => Energetics <=

    Nuclear Repulsion Energy =             42.3021842733589040
    One-Electron Energy =                -211.9924258303814213
    Two-Electron Energy =                  74.4398275227957527
    DFT Exchange-Correlation Energy =       0.0000000000000000
    Empirical Dispersion Energy =           0.0000000000000000
    PCM Polarization Energy =               0.0000000000000000
    EFP Energy =                            0.0000000000000000
    Total Energy =                        -95.2504140342267647
    Molecular point group: c1
  Basis Set: CC-PVTZ
  Basis Set:

  -Total Gradient:
     Atom            X                  Y                   Z
    ------   -----------------  -----------------  -----------------
       1       -0.000004393743     0.000040745347    -0.000014056011
       2       -0.000028881756    -0.000073092932     0.000084618156
       3        0.000043360481     0.000051914543    -0.000034969852
       4       -0.000036766904    -0.000023173234    -0.000062475293
       5       -0.000017588273    -0.000008806141     0.000019981392
       6        0.000037561574    -0.000007234346     0.000004603540
       7        0.000006708623     0.000019646764     0.000002298068

  **** Optimization is complete! (in 4 steps) ****
    Final optimized geometry and variables:
    Molecular point group: c1

    Geometry (in Angstrom), charge = 0, multiplicity = 1:

    H           -1.053650042793     0.803874457531    -0.509890775511
    N           -0.720677077613     0.000926582708    -0.025156535890
    C            0.733824862332    -0.000925980485     0.085206430200
    H           -1.056180922741    -0.801917029002    -0.508357079061
    H            1.172005521732    -0.871113927883    -0.390295321073
    H            1.172960944801     0.873621933441    -0.381228658059
    H            1.040677326082    -0.006314207791     1.124767187764

  Mulliken Charges: (a.u.)
   Center  Symbol    Alpha    Beta     Spin     Total
       1     H     0.42712  0.42712  0.00000  0.14577
       2     N     3.68870  3.68870  0.00000 -0.37740
       3     C     3.06896  3.06896  0.00000 -0.13792
       4     H     0.42713  0.42713  0.00000  0.14574
       5     H     0.46340  0.46340  0.00000  0.07319
       6     H     0.46326  0.46326  0.00000  0.07347
       7     H     0.46143  0.46143  0.00000  0.07714

   Total alpha =  9.00000, Total beta =  9.00000, Total charge = -0.00000

*** Psi4 exiting successfully. Buy a developer a beer!
