  ==> Input File <==

--------------------------------------------------------------------------
set {
	reference rhf
	basis cc-pvtz
}

set_num_threads( 4 )
memory 2 gb

molecule MOL {
0 1

O	 0.918239	 -0.029706	 0.774354
C	 0.029490	 0.077183	 0.000078
C	 -1.232113	 -0.748027	 0.000015
O	 0.030153	 0.955958	 -0.988348
C	 -2.501422	 0.088592	 -0.000052
H	 -1.188777	 -1.400384	 -0.865133
H	 -1.188857	 -1.400312	 0.865225
H	 -2.548170	 0.725504	 -0.873205
H	 -3.371613	 -0.556398	 -0.000040
H	 -2.548215	 0.725571	 0.873047
C	 1.158405	 1.799033	 -1.106308
H	 1.281046	 2.398484	 -0.216447
H	 0.969589	 2.431793	 -1.958241
H	 2.054078	 1.217030	 -1.265332

	symmetry c1
}
set optking {
	frozen_dihedral = ("
		4 2 3 6
	")
}

ee = optimize('scf')
oeprop('DIPOLE', 'QUADRUPOLE', 'MULLIKEN_CHARGES')
f=open( 'psi4out.xyz', 'w' )
f.write( "14  " )
f.write( str(ee) + "\n" )
f.write( MOL.save_string_xyz() )
f.close()
--------------------------------------------------------------------------

    Molecular point group: c1
  Charge       = 0
  Multiplicity = 1
  Basis Set: CC-PVTZ
  Basis Set:
  @DF-RHF Final Energy:  -305.98574218620377
    Total Energy =                       -305.9857421862037086
    Molecular point group: c1
  Basis Set: CC-PVTZ
  Basis Set:
  Basis Set: CC-PVTZ
  Basis Set:
  @DF-RHF Final Energy:  -305.98591217423410
    Total Energy =                       -305.9859121742340449
  Basis Set: CC-PVTZ
  Basis Set:
  Basis Set: CC-PVTZ
  Basis Set:
  @DF-RHF Final Energy:  -305.98539135179618
    Total Energy =                       -305.9853913517961246
  Basis Set: CC-PVTZ
  Basis Set:
  Basis Set: CC-PVTZ
  Basis Set:
  @DF-RHF Final Energy:  -305.98601409491039
    Total Energy =                       -305.9860140949101606
  Basis Set: CC-PVTZ
  Basis Set:
  Charge       = 0
  Multiplicity = 1
  Basis Set: CC-PVTZ
  Basis Set:

    Orbital Energies (a.u.)
    -----------------------

    Doubly Occupied:

       1A    -20.598065     2A    -20.533501     3A    -11.364645
       4A    -11.279476     5A    -11.236719     6A    -11.223078
       7A     -1.473132     8A     -1.365620     9A     -1.068293
      10A     -0.976344    11A     -0.887013    12A     -0.776653
      13A     -0.698184    14A     -0.683372    15A     -0.676926
      16A     -0.621128    17A     -0.588996    18A     -0.569304
      19A     -0.546456    20A     -0.521660    21A     -0.515089
      22A     -0.501962    23A     -0.460613    24A     -0.437556

  @DF-RHF Final Energy:  -305.98601630205087

   => Energetics <=

    Nuclear Repulsion Energy =            248.7580514666672400
    One-Electron Energy =                -910.2805642344283115
    Two-Electron Energy =                 355.5364964657100018
    DFT Exchange-Correlation Energy =       0.0000000000000000
    Empirical Dispersion Energy =           0.0000000000000000
    PCM Polarization Energy =               0.0000000000000000
    EFP Energy =                            0.0000000000000000
    Total Energy =                       -305.9860163020510981
    Molecular point group: c1
  Basis Set: CC-PVTZ
  Basis Set:

  -Total Gradient:
     Atom            X                  Y                   Z
    ------   -----------------  -----------------  -----------------
       1       -0.000078821315     0.000088447536    -0.000136292899
       2        0.000366018198    -0.000609511644    -0.000110175742
       3       -0.000370593065     0.000474877766    -0.000215885439
       4       -0.000140048043     0.000367167668     0.000213212985
       5        0.000052862109    -0.000004185606    -0.000028574942
       6        0.000235326339    -0.000344546535     0.000270413178
       7       -0.000014095934     0.000006973206    -0.000004380449
       8       -0.000005502015     0.000012643436     0.000010073194
       9       -0.000019766316     0.000001629842     0.000002467007
      10       -0.000012242566     0.000003780558     0.000004827028
      11       -0.000061042029    -0.000018312639    -0.000001758253
      12        0.000004629816     0.000002646006     0.000000971219
      13        0.000028874656     0.000019002124    -0.000003017002
      14        0.000014400167    -0.000000611719    -0.000001879883

  **** Optimization is complete! (in 5 steps) ****
    Final optimized geometry and variables:
    Molecular point group: c1

    Geometry (in Angstrom), charge = 0, multiplicity = 1:

    O            1.174066811925    -0.429147577795     0.985635411621
    C            0.276354972473    -0.298152654679     0.224933578330
    C           -0.982929466643    -1.127507259143     0.237075502236
    O            0.280054915402     0.595544009041    -0.749968890446
    C           -2.269889846611    -0.304990907458     0.225636380556
    H           -0.948229035533    -1.772490689501    -0.634993568748
    H           -0.931528992279    -1.758067577667     1.112181847405
    H           -2.344945119522     0.296242798953    -0.669354761890
    H           -3.128236222938    -0.963645449780     0.267046656105
    H           -2.317406698385     0.356297925618     1.083048461941
    C            1.421741401201     1.420211220320    -0.869703567501
    H            1.567437199476     2.001306095092     0.028668877100
    H            1.232597236936     2.071076308899    -1.707873445008
    H            2.304164281601     0.824799618854    -1.051188093788

  Mulliken Charges: (a.u.)
   Center  Symbol    Alpha    Beta     Spin     Total
       1     O     4.19876  4.19876  0.00000 -0.39751
       2     C     2.80262  2.80262  0.00000  0.39475
       3     C     3.08566  3.08566  0.00000 -0.17132
       4     O     4.14913  4.14913  0.00000 -0.29826
       5     C     3.14784  3.14784  0.00000 -0.29567
       6     H     0.44766  0.44766  0.00000  0.10468
       7     H     0.43561  0.43561  0.00000  0.12879
       8     H     0.44563  0.44563  0.00000  0.10875
       9     H     0.44813  0.44813  0.00000  0.10373
      10     H     0.45085  0.45085  0.00000  0.09830
      11     C     3.03500  3.03500  0.00000 -0.07000
      12     H     0.45407  0.45407  0.00000  0.09186
      13     H     0.44583  0.44583  0.00000  0.10834
      14     H     0.45323  0.45323  0.00000  0.09355

   Total alpha = 24.00000, Total beta = 24.00000, Total charge = -0.00000
