                              Psi4 1.0.54 Driver

  ==> Input File <==

--------------------------------------------------------------------------
set {
	reference rhf
	basis cc-pvtz
}

set_num_threads( 4 )
memory 2 gb

molecule MOL {
0 1

H	 2.341977	 -1.816528	 1.560757
O	 2.686225	 -1.027477	 1.181793
C	 1.715972	 -0.290286	 0.612810
C	 2.087879	 0.904787	 0.013974
C	 0.394147	 -0.681595	 0.609243
H	 3.121091	 1.190146	 0.028102
C	 1.138014	 1.700683	 -0.584072
H	 0.079239	 -1.597994	 1.063493
C	 -0.532034	 0.141680	 0.000000
H	 1.434694	 2.622553	 -1.044380
C	 -0.195975	 1.329000	 -0.600514
N	 -1.937041	 -0.281114	 0.000000
H	 -0.944126	 1.936518	 -1.060855
O	 -2.159542	 -1.446261	 0.000000
O	 -2.764978	 0.565773	 0.000000

	symmetry c1
}
set optking {
	frozen_dihedral = ("
		11 9 12 14
	")
}

ee,wfn = optimize('scf', return_wfn=True)
oeprop( wfn, 'DIPOLE', 'QUADRUPOLE', 'MULLIKEN_CHARGES')
f=open( 'psi4out.xyz', 'w' )
f.write( "15  " )
f.write( str(ee) + "\n" )
f.write( MOL.save_string_xyz() )
f.close()
--------------------------------------------------------------------------

    Molecular point group: c1
  Charge       = 0
  Multiplicity = 1
  Basis Set: CC-PVTZ
  Basis Set:
  @DF-RHF Final Energy:  -509.21742777418621
    Total Energy =                       -509.2174277741859214
    Molecular point group: c1
  Basis Set: CC-PVTZ
  Basis Set:
  Basis Set: CC-PVTZ
  Basis Set:
  @DF-RHF Final Energy:  -509.20981518091446
    Total Energy =                       -509.2098151809149158
  Basis Set: CC-PVTZ
  Basis Set:
  Basis Set: CC-PVTZ
  Basis Set:
  @DF-RHF Final Energy:  -509.21652849280429
    Total Energy =                       -509.2165284928042865
  Basis Set: CC-PVTZ
  Basis Set:
  Basis Set: CC-PVTZ
  Basis Set:
  @DF-RHF Final Energy:  -509.21758894224303
    Total Energy =                       -509.2175889422430828
  Basis Set: CC-PVTZ
  Basis Set:
  Basis Set: CC-PVTZ
  Basis Set:
  @DF-RHF Final Energy:  -509.21759197400598
    Total Energy =                       -509.2175919740054724
  Basis Set: CC-PVTZ
  Basis Set:
  Basis Set: CC-PVTZ
  Basis Set:
  @DF-RHF Final Energy:  -509.21762674371166
    Total Energy =                       -509.2176267437114348
  Basis Set: CC-PVTZ
  Basis Set:
  Charge       = 0
  Multiplicity = 1
  Basis Set: CC-PVTZ
  Basis Set:

    Orbital Energies (a.u.)
    -----------------------

    Doubly Occupied:

       1A    -20.609043     2A    -20.596245     3A    -20.595763
       4A    -15.850303     5A    -11.328545     6A    -11.309956
       7A    -11.263772     8A    -11.263345     9A    -11.258797
      10A    -11.255417    11A     -1.644654    12A     -1.441733
      13A     -1.427517    14A     -1.203308    15A     -1.096126
      16A     -1.048697    17A     -0.966959    18A     -0.883042
      19A     -0.832258    20A     -0.794663    21A     -0.760462
      22A     -0.741588    23A     -0.727038    24A     -0.711025
      25A     -0.676112    26A     -0.636177    27A     -0.622279
      28A     -0.598161    29A     -0.562270    30A     -0.547755
      31A     -0.525147    32A     -0.494864    33A     -0.492723
      34A     -0.459488    35A     -0.379138    36A     -0.346463

  @DF-RHF Final Energy:  -509.21762786786411

   => Energetics <=

    Nuclear Repulsion Energy =            504.6871703865215864
    One-Electron Energy =               -1695.9079312971693980
    Two-Electron Energy =                 682.0031330427839293
    DFT Exchange-Correlation Energy =       0.0000000000000000
    Empirical Dispersion Energy =           0.0000000000000000
    PCM Polarization Energy =               0.0000000000000000
    EFP Energy =                            0.0000000000000000
    Total Energy =                       -509.2176278678639392
    Molecular point group: c1
  Basis Set: CC-PVTZ
  Basis Set:

  -Total Gradient:
     Atom            X                  Y                   Z
    ------   -----------------  -----------------  -----------------
       1        0.000000052195     0.000003719941     0.000012545747
       2       -0.000000901897    -0.000010502562    -0.000003361519
       3       -0.000001509154    -0.000009182981    -0.000030696725
       4       -0.000004378014    -0.000000351167     0.000020392220
       5       -0.000019353462     0.000003790661     0.000008102830
       6       -0.000000223509    -0.000003787984    -0.000007265750
       7       -0.000019538618     0.000019302265     0.000027267238
       8       -0.000003908778    -0.000002930077     0.000000659336
       9       -0.000702945479     0.001846368599     0.002231467707
      10       -0.000004565037    -0.000000896537     0.000002379304
      11        0.000518474573    -0.001336621469    -0.002408380949
      12       -0.000143811877    -0.000600389424     0.003306601368
      13        0.000006281641    -0.000004360385     0.000004445096
      14        0.000355457086    -0.000078785551    -0.003148481947
      15        0.000020870331     0.000174626667    -0.000015673955

  **** Optimization is complete! (in 7 steps) ****
    Final optimized geometry and variables:
    Molecular point group: c1

    Geometry (in Angstrom), charge = 0, multiplicity = 1:

    H            2.343836151124    -1.829944256188     1.463871933823
    O            2.684166942106    -1.032517903510     1.099249276557
    C            1.717543954452    -0.307335191995     0.510174606709
    C            2.088230400655     0.889773994813    -0.086036833656
    C            0.400547558818    -0.714857708644     0.477486199202
    H            3.118737137122     1.183401064641    -0.057201883274
    C            1.142019933374     1.674762301456    -0.703825041084
    H            0.088871578041    -1.644868143310     0.907568015085
    C           -0.522688883423     0.108763528952    -0.132918082450
    H            1.440075659980     2.593611172314    -1.169323960958
    C           -0.190120552897     1.295937328052    -0.732930166434
    N           -1.915439877871    -0.340685725448    -0.185056813233
    H           -0.939088572230     1.899377403789    -1.199062477941
    O           -2.110744868402    -1.510709080524    -0.181269815590
    O           -2.755624094070     0.491781944157    -0.251359575649

  Mulliken Charges: (a.u.)
   Center  Symbol    Alpha    Beta     Spin     Total
       1     H     0.38428  0.38428  0.00000  0.23143
       2     O     4.16810  4.16810  0.00000 -0.33621
       3     C     2.84471  2.84471  0.00000  0.31059
       4     C     3.09877  3.09877  0.00000 -0.19753
       5     C     3.13726  3.13726  0.00000 -0.27451
       6     H     0.41336  0.41336  0.00000  0.17328
       7     C     3.05581  3.05581  0.00000 -0.11162
       8     H     0.41215  0.41215  0.00000  0.17569
       9     C     2.95707  2.95707  0.00000  0.08587
      10     H     0.41603  0.41603  0.00000  0.16793
      11     C     3.10160  3.10160  0.00000 -0.20320
      12     N     3.26225  3.26225  0.00000  0.47550
      13     H     0.40325  0.40325  0.00000  0.19349
      14     O     4.17394  4.17394  0.00000 -0.34787
      15     O     4.17142  4.17142  0.00000 -0.34283

   Total alpha = 36.00000, Total beta = 36.00000, Total charge =  0.00000

*** Psi4 exiting successfully. Buy a developer a beer!
