  ==> Input File <==

--------------------------------------------------------------------------
set {
	reference rhf
	basis 6-31G*
}

set_num_threads( 4 )
memory 2 gb

molecule MOL {
0 1

O	 -1.276010	 1.052711	 -0.768302
C	 -1.204840	 0.067374	 -0.106123
C	 -2.388195	 -0.672128	 0.458071
O	 -0.067104	 -0.527208	 0.221609
H	 -2.388023	 -1.694060	 0.097175
H	 -3.300579	 -0.174919	 0.164318
H	 -2.315377	 -0.706351	 1.539059
C	 0.270512	 -0.668856	 1.608648
C	 1.785016	 -0.764114	 1.661476
C	 -0.423722	 -1.893503	 2.183909
H	 -0.066597	 0.218199	 2.124399
H	 2.239598	 0.119550	 1.228184
H	 2.118345	 -0.851687	 2.690337
H	 2.134006	 -1.632230	 1.112629
H	 -0.154006	 -2.019456	 3.227655
H	 -1.499530	 -1.788795	 2.123503
H	 -0.126235	 -2.786676	 1.643769

	symmetry c1
}
set optking {
	frozen_dihedral = ("
		8 4 2 1
	")
}

ee = optimize('scf')
oeprop('DIPOLE', 'QUADRUPOLE', 'MULLIKEN_CHARGES')
f=open( 'psi4out.xyz', 'w' )
f.write( "17  " )
f.write( str(ee) + "\n" )
f.write( MOL.save_string_xyz() )
f.close()
--------------------------------------------------------------------------

    Molecular point group: c1
  Charge       = 0
  Multiplicity = 1
  Basis Set: 6-31G*
  Basis Set:
  @DF-RHF Final Energy:  -344.87289092276762
    Total Energy =                       -344.8728909227678514
    Molecular point group: c1
  Basis Set: 6-31G*
  Basis Set:
  Basis Set: 6-31G*
  Basis Set:
  @DF-RHF Final Energy:  -344.88819602023119
    Total Energy =                       -344.8881960202310779
  Basis Set: 6-31G*
  Basis Set:
  Basis Set: 6-31G*
  Basis Set:
  @DF-RHF Final Energy:  -344.89152752395916
    Total Energy =                       -344.8915275239592120
  Basis Set: 6-31G*
  Basis Set:
  Basis Set: 6-31G*
  Basis Set:
  @DF-RHF Final Energy:  -344.89075232452728
    Total Energy =                       -344.8907523245273978
  Basis Set: 6-31G*
  Basis Set:
  @DF-RHF Final Energy:  -344.89297425600063
    Total Energy =                       -344.8929742560004001
  @DF-RHF Final Energy:  -344.89364516167319
    Total Energy =                       -344.8936451616734757
  @DF-RHF Final Energy:  -344.89393431515873
    Total Energy =                       -344.8939343151587309
  @DF-RHF Final Energy:  -344.89407533022040
    Total Energy =                       -344.8940753302204030
  @DF-RHF Final Energy:  -344.89413872187981
    Total Energy =                       -344.8941387218796990
  @DF-RHF Final Energy:  -344.89416981640954
    Total Energy =                       -344.8941698164096010
  @DF-RHF Final Energy:  -344.89419014835289
    Total Energy =                       -344.8941901483531183
  @DF-RHF Final Energy:  -344.89421557712706
    Total Energy =                       -344.8942155771268290
  @DF-RHF Final Energy:  -344.89423938850229
    Total Energy =                       -344.8942393885023421
  @DF-RHF Final Energy:  -344.89411611496860
    Total Energy =                       -344.8941161149680283
  @DF-RHF Final Energy:  -344.84258167576576
    Total Energy =                       -344.8425816757656435
  @DF-RHF Final Energy:  -344.88860646395602
    Total Energy =                       -344.8886064639560800
  @DF-RHF Final Energy:  -344.89425563617459
    Total Energy =                       -344.8942556361744209
  @DF-RHF Final Energy:  -344.89270978037047
    Total Energy =                       -344.8927097803703532
  @DF-RHF Final Energy:  -344.89438134092393
    Total Energy =                       -344.8943813409237578
  @DF-RHF Final Energy:  -344.89447485929401
    Total Energy =                       -344.8944748592938936
  @DF-RHF Final Energy:  -344.89449969358361
    Total Energy =                       -344.8944996935839526
  @DF-RHF Final Energy:  -344.89454306814253
    Total Energy =                       -344.8945430681427524
  @DF-RHF Final Energy:  -344.89469435608441
    Total Energy =                       -344.8946943560843010
  @DF-RHF Final Energy:  -344.89506992845213
    Total Energy =                       -344.8950699284518464
  @DF-RHF Final Energy:  -344.89525802731509
    Total Energy =                       -344.8952580273152080
  @DF-RHF Final Energy:  -344.89532243576349
    Total Energy =                       -344.8953224357636600
  @DF-RHF Final Energy:  -344.89541020456249
    Total Energy =                       -344.8954102045626655
  Basis Set: 6-31G*
  Basis Set:
  @DF-RHF Final Energy:  -344.89542527780998
    Total Energy =                       -344.8954252778099772
  Basis Set: 6-31G*
  Basis Set:
  Basis Set: 6-31G*
  Basis Set:
  @DF-RHF Final Energy:  -344.89542737240146
    Total Energy =                       -344.8954273724015138
  Basis Set: 6-31G*
  Basis Set:
  Basis Set: 6-31G*
  Basis Set:
  @DF-RHF Final Energy:  -344.89542717343738
    Total Energy =                       -344.8954271734371559
  Basis Set: 6-31G*
  Basis Set:
  Charge       = 0
  Multiplicity = 1
  Basis Set: 6-31G*
  Basis Set:

    Orbital Energies (a.u.)
    -----------------------

    Doubly Occupied:

       1A    -20.584808     2A    -20.549527     3A    -11.375725
       4A    -11.303553     5A    -11.238582     6A    -11.224655
       7A    -11.223595     8A     -1.456508     9A     -1.365438
      10A     -1.074806    11A     -1.013125    12A     -0.955240
      13A     -0.853563    14A     -0.767509    15A     -0.693607
      16A     -0.673088    17A     -0.657890    18A     -0.625741
      19A     -0.591669    20A     -0.585990    21A     -0.559305
      22A     -0.554195    23A     -0.542139    24A     -0.526925
      25A     -0.508696    26A     -0.479251    27A     -0.448459
      28A     -0.433194

  @DF-RHF Final Energy:  -344.89542738763055

   => Energetics <=

    Nuclear Repulsion Energy =            323.1469969254113721
    One-Electron Energy =               -1110.3512802987374926
    Two-Electron Energy =                 442.3088559856955726
    DFT Exchange-Correlation Energy =       0.0000000000000000
    Empirical Dispersion Energy =           0.0000000000000000
    PCM Polarization Energy =               0.0000000000000000
    EFP Energy =                            0.0000000000000000
    Total Energy =                       -344.8954273876305479
    Molecular point group: c1
  Basis Set: 6-31G*
  Basis Set:

  -Total Gradient:
     Atom            X                  Y                   Z
    ------   -----------------  -----------------  -----------------
       1        0.001905551503     0.001815269276     0.001694233547
       2       -0.001773651267    -0.002302014074    -0.003010106448
       3        0.000016685728    -0.000005768393    -0.000001967578
       4       -0.002440268541    -0.000011906045     0.002328947186
       5       -0.000010487949     0.000006017324    -0.000017534809
       6       -0.000007404812     0.000031899048     0.000031756628
       7        0.000007613103     0.000045092517     0.000001566314
       8        0.002271468512     0.000332938506    -0.001142269678
       9        0.000055062464    -0.000009534353     0.000049365937
      10       -0.000007471586     0.000086548280     0.000058163065
      11       -0.000050804612    -0.000027591357     0.000027746849
      12       -0.000013567300    -0.000007513285    -0.000001976462
      13        0.000019656562     0.000022272435     0.000003963571
      14        0.000022462172     0.000006799823    -0.000005939870
      15       -0.000001491423    -0.000005679486    -0.000006921943
      16        0.000016175875     0.000001311310    -0.000001752963
      17       -0.000009528428     0.000021858473    -0.000007273342

  **** Optimization is complete! (in 31 steps) ****
    Final optimized geometry and variables:
    Molecular point group: c1

    Geometry (in Angstrom), charge = 0, multiplicity = 1:

    O           -0.182152453875     0.758040243491    -2.011076935639
    C           -0.636705283223     0.433232939708    -0.969369464193
    C           -1.839413123403     1.103563425474    -0.346921004760
    O           -0.114744619469    -0.595809462165    -0.277671026615
    H           -2.511628891426     0.368641439745     0.078902974085
    H           -2.348194422030     1.684029142152    -1.102352979434
    H           -1.527512685145     1.774050712955     0.447587093556
    C            0.409897935037    -0.398443374843     1.034447232612
    C            1.660598973513     0.467781207838     0.978756163375
    C            0.680323668832    -1.786187616977     1.586351803365
    H           -0.344142717064     0.085167945623     1.648191410074
    H            1.446603982001     1.453892638871     0.579781272494
    H            2.074550425606     0.592344676102     1.974242579478
    H            2.407725453008     0.005099038252     0.344254640168
    H            1.061482606443    -1.721854944908     2.600096247754
    H           -0.229749710316    -2.374290577062     1.595311561058
    H            1.412006279570    -2.297935087801     0.971634280846

  Mulliken Charges: (a.u.)
   Center  Symbol    Alpha    Beta     Spin     Total
       1     O     4.25335  4.25335  0.00000 -0.50669
       2     C     2.61994  2.61994  0.00000  0.76012
       3     C     3.29881  3.29881  0.00000 -0.59762
       4     O     4.31832  4.31832  0.00000 -0.63664
       5     H     0.40196  0.40196  0.00000  0.19607
       6     H     0.39191  0.39191  0.00000  0.21617
       7     H     0.40399  0.40399  0.00000  0.19202
       8     C     2.92858  2.92858  0.00000  0.14283
       9     C     3.24885  3.24885  0.00000 -0.49769
      10     C     3.24074  3.24074  0.00000 -0.48149
      11     H     0.42100  0.42100  0.00000  0.15801
      12     H     0.41351  0.41351  0.00000  0.17298
      13     H     0.41690  0.41690  0.00000  0.16620
      14     H     0.40485  0.40485  0.00000  0.19030
      15     H     0.41867  0.41867  0.00000  0.16266
      16     H     0.41017  0.41017  0.00000  0.17966
      17     H     0.40844  0.40844  0.00000  0.18312

   Total alpha = 28.00000, Total beta = 28.00000, Total charge = -0.00000
