  ==> Input File <==

--------------------------------------------------------------------------
set {
	reference rhf
	basis 6-31G*
}

set_num_threads( 4 )
memory 2 gb

molecule MOL {
0 1

O	 0.625848	 1.349995	 -0.000749
C	 0.486307	 0.169203	 0.000779
C	 1.608116	 -0.841643	 0.000302
O	 -0.698257	 -0.426125	 0.001050
C	 2.990107	 -0.200498	 -0.000684
H	 1.468623	 -1.481519	 -0.865924
H	 1.469683	 -1.481289	 0.866878
H	 3.129736	 0.423364	 -0.875135
H	 3.757882	 -0.966877	 -0.001197
H	 3.130964	 0.423383	 0.873533
C	 -1.650254	 0.003598	 0.968748
C	 -2.906462	 -0.816579	 0.764877
H	 -1.836728	 1.060404	 0.834687
H	 -1.236308	 -0.138147	 1.957762
H	 -3.305521	 -0.667800	 -0.232006
H	 -3.662127	 -0.520161	 1.485125
H	 -2.701935	 -1.872941	 0.897255

	symmetry c1
}
set optking {
	frozen_dihedral = ("
		11 4 2 3
	")
}

ee = optimize('scf')
oeprop('DIPOLE', 'QUADRUPOLE', 'MULLIKEN_CHARGES')
f=open( 'psi4out.xyz', 'w' )
f.write( "17  " )
f.write( str(ee) + "\n" )
f.write( MOL.save_string_xyz() )
f.close()
--------------------------------------------------------------------------

    Molecular point group: c1
  Charge       = 0
  Multiplicity = 1
  Basis Set: 6-31G*
  Basis Set:
  @DF-RHF Final Energy:  -344.90049334679730
    Total Energy =                       -344.9004933467972478
    Molecular point group: c1
  Basis Set: 6-31G*
  Basis Set:
  Basis Set: 6-31G*
  Basis Set:
  @DF-RHF Final Energy:  -344.89853802625754
    Total Energy =                       -344.8985380262577678
  Basis Set: 6-31G*
  Basis Set:
  Basis Set: 6-31G*
  Basis Set:
  @DF-RHF Final Energy:  -344.90114168811846
    Total Energy =                       -344.9011416881187415
  Basis Set: 6-31G*
  Basis Set:
  Basis Set: 6-31G*
  Basis Set:
  @DF-RHF Final Energy:  -344.90128406494648
    Total Energy =                       -344.9012840649457985
  Basis Set: 6-31G*
  Basis Set:
  Basis Set: 6-31G*
  Basis Set:
  @DF-RHF Final Energy:  -344.90130467153500
    Total Energy =                       -344.9013046715349446
  Basis Set: 6-31G*
  Basis Set:
  Basis Set: 6-31G*
  Basis Set:
  @DF-RHF Final Energy:  -344.90130618628189
    Total Energy =                       -344.9013061862823406
  Basis Set: 6-31G*
  Basis Set:
  Charge       = 0
  Multiplicity = 1
  Basis Set: 6-31G*
  Basis Set:

    Orbital Energies (a.u.)
    -----------------------

    Doubly Occupied:

       1A    -20.589822     2A    -20.550232     3A    -11.373078
       4A    -11.289313     5A    -11.239445     6A    -11.223202
       7A    -11.216898     8A     -1.461202     9A     -1.363417
      10A     -1.067943    11A     -1.033465    12A     -0.908218
      13A     -0.853963    14A     -0.770325    15A     -0.699190
      16A     -0.682170    17A     -0.662212    18A     -0.631188
      19A     -0.594423    20A     -0.566344    21A     -0.557596
      22A     -0.526593    23A     -0.522237    24A     -0.517014
      25A     -0.503252    26A     -0.493167    27A     -0.450700
      28A     -0.433610

  @DF-RHF Final Energy:  -344.90130640709378

   => Energetics <=

    Nuclear Repulsion Energy =            314.3146378069164939
    One-Electron Energy =               -1092.8714481580027496
    Two-Electron Energy =                 433.6555039439923576
    DFT Exchange-Correlation Energy =       0.0000000000000000
    Empirical Dispersion Energy =           0.0000000000000000
    PCM Polarization Energy =               0.0000000000000000
    EFP Energy =                            0.0000000000000000
    Total Energy =                       -344.9013064070938981
    Molecular point group: c1
  Basis Set: 6-31G*
  Basis Set:

  -Total Gradient:
     Atom            X                  Y                   Z
    ------   -----------------  -----------------  -----------------
       1        0.000054039928    -0.000003736762    -0.000164845713
       2        0.001492772219    -0.002158285853    -0.007099277352
       3       -0.000173171370    -0.000333358293     0.006800085461
       4       -0.003780286646     0.007985614433    -0.004236524640
       5       -0.000012724032    -0.000009578779    -0.000010218766
       6        0.000000101344     0.000014373268    -0.000002347245
       7       -0.000006222670     0.000006736903     0.000003748479
       8        0.000009292185     0.000004574278    -0.000010887031
       9       -0.000012897538     0.000002420642    -0.000000173791
      10       -0.000006443313     0.000003519768     0.000012180280
      11        0.002412640059    -0.005509456110     0.004709681188
      12        0.000006512375    -0.000001812469    -0.000003447648
      13        0.000002871996     0.000005960775    -0.000002842416
      14        0.000010035828    -0.000005026658     0.000002634286
      15        0.000002162480     0.000000214361     0.000002148671
      16        0.000002502988     0.000002440783     0.000000626457
      17       -0.000001185832    -0.000004600288    -0.000000540222

  **** Optimization is complete! (in 7 steps) ****
    Final optimized geometry and variables:
    Molecular point group: c1

    Geometry (in Angstrom), charge = 0, multiplicity = 1:

    O            0.591062412293     1.451033822004    -0.078335458681
    C            0.446506830408     0.282377189906    -0.216611102893
    C            1.565274442814    -0.729738211461    -0.232142485719
    O           -0.757637377149    -0.301508260226    -0.280269314866
    C            2.949684651492    -0.106086182098    -0.352817051452
    H            1.374551123590    -1.440994623890    -1.029426282990
    H            1.466378672961    -1.291614374957     0.693915071904
    H            3.049751494311     0.441981371969    -1.282575574243
    H            3.712335147818    -0.877158190657    -0.329730667367
    H            3.136520782323     0.585994506845     0.458648715736
    C           -1.728284164608     0.098770618795     0.681150372463
    C           -2.978590074056    -0.718901597858     0.438575597098
    H           -1.920551547807     1.157554325057     0.581018843862
    H           -1.328806489894    -0.082622586097     1.673287263558
    H           -3.364526944636    -0.535259063097    -0.557394850935
    H           -3.743518666252    -0.449987650067     1.159934208269
    H           -2.769847589767    -1.778104202156     0.535420258364

  Mulliken Charges: (a.u.)
   Center  Symbol    Alpha    Beta     Spin     Total
       1     O     4.27175  4.27175  0.00000 -0.54350
       2     C     2.60550  2.60550  0.00000  0.78901
       3     C     3.20653  3.20653  0.00000 -0.41306
       4     O     4.32058  4.32058  0.00000 -0.64117
       5     C     3.24041  3.24041  0.00000 -0.48083
       6     H     0.40022  0.40022  0.00000  0.19956
       7     H     0.40362  0.40362  0.00000  0.19277
       8     H     0.41148  0.41148  0.00000  0.17704
       9     H     0.41783  0.41783  0.00000  0.16434
      10     H     0.40777  0.40777  0.00000  0.18447
      11     C     3.00285  3.00285  0.00000 -0.00571
      12     C     3.24796  3.24796  0.00000 -0.49592
      13     H     0.40452  0.40452  0.00000  0.19095
      14     H     0.42086  0.42086  0.00000  0.15827
      15     H     0.40898  0.40898  0.00000  0.18205
      16     H     0.41681  0.41681  0.00000  0.16637
      17     H     0.41232  0.41232  0.00000  0.17536

   Total alpha = 28.00000, Total beta = 28.00000, Total charge =  0.00000
