                              Psi4 1.0.54 Driver

  ==> Input File <==

--------------------------------------------------------------------------
set {
	reference rhf
	basis cc-pvtz
}

set_num_threads( 4 )
memory 2 gb

molecule MOL {
0 1

O	 -0.988175	 -1.402891	 0.050086
C	 -0.675048	 -0.248293	 -0.009686
C	 -1.742492	 0.826599	 -0.011538
N	 0.622280	 0.144970	 -0.099307
H	 -1.692153	 1.431066	 -0.908439
H	 -2.698310	 0.331559	 0.031353
H	 -1.642148	 1.483784	 0.843455
C	 1.643081	 -0.857702	 -0.319674
C	 1.106500	 1.433157	 0.336421
H	 2.396345	 -0.464676	 -0.991497
H	 1.199945	 -1.734951	 -0.754699
H	 2.129126	 -1.137773	 0.611429
H	 1.935032	 1.733037	 -0.292263
H	 0.346959	 2.191934	 0.257362
H	 1.461106	 1.407130	 1.364341

	symmetry c1
}
set optking {
	frozen_dihedral = ("
		8 4 2 3
	")
}

ee,wfn = optimize('scf', return_wfn=True)
oeprop( wfn, 'DIPOLE', 'QUADRUPOLE', 'MULLIKEN_CHARGES')
f=open( 'psi4out.xyz', 'w' )
f.write( "15  " )
f.write( str(ee) + "\n" )
f.write( MOL.save_string_xyz() )
f.close()
--------------------------------------------------------------------------

    Molecular point group: c1
  Charge       = 0
  Multiplicity = 1
  Basis Set: CC-PVTZ
  Basis Set:
  @DF-RHF Final Energy:  -286.13344781103342
    Total Energy =                       -286.1334478110330224
    Molecular point group: c1
  Basis Set: CC-PVTZ
  Basis Set:
  Basis Set: CC-PVTZ
  Basis Set:
  @DF-RHF Final Energy:  -286.13157207671065
    Total Energy =                       -286.1315720767105404
  Basis Set: CC-PVTZ
  Basis Set:
  Basis Set: CC-PVTZ
  Basis Set:
  @DF-RHF Final Energy:  -286.13425507813452
    Total Energy =                       -286.1342550781342311
  Basis Set: CC-PVTZ
  Basis Set:
  Basis Set: CC-PVTZ
  Basis Set:
  @DF-RHF Final Energy:  -286.13441316795706
    Total Energy =                       -286.1344131679572342
  Basis Set: CC-PVTZ
  Basis Set:
  @DF-RHF Final Energy:  -286.13451903970304
    Total Energy =                       -286.1345190397032638
  @DF-RHF Final Energy:  -286.13463096680505
    Total Energy =                       -286.1346309668049344
  @DF-RHF Final Energy:  -286.13474151275113
    Total Energy =                       -286.1347415127514182
  @DF-RHF Final Energy:  -286.13486971484667
    Total Energy =                       -286.1348697148465590
  @DF-RHF Final Energy:  -286.13500078429018
    Total Energy =                       -286.1350007842904688
  @DF-RHF Final Energy:  -286.13513774084458
    Total Energy =                       -286.1351377408446979
  @DF-RHF Final Energy:  -286.13517823441578
    Total Energy =                       -286.1351782344157755
  @DF-RHF Final Energy:  -286.13520556776399
    Total Energy =                       -286.1352055677639328
  @DF-RHF Final Energy:  -286.13523159971362
    Total Energy =                       -286.1352315997137339
  @DF-RHF Final Energy:  -286.13525749880466
    Total Energy =                       -286.1352574988047763
  @DF-RHF Final Energy:  -286.13526932485985
    Total Energy =                       -286.1352693248595642
  @DF-RHF Final Energy:  -286.13529679199974
    Total Energy =                       -286.1352967919997923
  @DF-RHF Final Energy:  -286.13532119711101
    Total Energy =                       -286.1353211971110682
  @DF-RHF Final Energy:  -286.13534330481065
    Total Energy =                       -286.1353433048104762
  @DF-RHF Final Energy:  -286.13536415566330
    Total Energy =                       -286.1353641556637513
  @DF-RHF Final Energy:  -286.13538349205226
    Total Energy =                       -286.1353834920523127
  @DF-RHF Final Energy:  -286.13540110800477
    Total Energy =                       -286.1354011080047144
  @DF-RHF Final Energy:  -286.13541709217532
    Total Energy =                       -286.1354170921753166
  @DF-RHF Final Energy:  -286.13543130866020
    Total Energy =                       -286.1354313086601451
  @DF-RHF Final Energy:  -286.13544367213944
    Total Energy =                       -286.1354436721393313
  @DF-RHF Final Energy:  -286.13544652791836
    Total Energy =                       -286.1354465279184183
  Basis Set: CC-PVTZ
  Basis Set:
  @DF-RHF Final Energy:  -286.13544884375096
    Total Energy =                       -286.1354488437510781
  Basis Set: CC-PVTZ
  Basis Set:
  Basis Set: CC-PVTZ
  Basis Set:
  @DF-RHF Final Energy:  -286.13545336827440
    Total Energy =                       -286.1354533682745682
  Basis Set: CC-PVTZ
  Basis Set:
  Basis Set: CC-PVTZ
  Basis Set:
  @DF-RHF Final Energy:  -286.13545524528399
    Total Energy =                       -286.1354552452839357
  Basis Set: CC-PVTZ
  Basis Set:
  Charge       = 0
  Multiplicity = 1
  Basis Set: CC-PVTZ
  Basis Set:

    Orbital Energies (a.u.)
    -----------------------

    Doubly Occupied:

       1A    -20.503692     2A    -15.578369     3A    -11.335316
       4A    -11.263870     5A    -11.246655     6A    -11.226603
       7A     -1.387386     8A     -1.246448     9A     -1.015184
      10A     -0.972964    11A     -0.920945    12A     -0.738965
      13A     -0.683392    14A     -0.662185    15A     -0.653732
      16A     -0.589853    17A     -0.577780    18A     -0.567812
      19A     -0.562137    20A     -0.548681    21A     -0.530320
      22A     -0.507787    23A     -0.413713    24A     -0.370455

  @DF-RHF Final Energy:  -286.13545524747803

   => Energetics <=

    Nuclear Repulsion Energy =            252.9218536211213859
    One-Electron Energy =                -889.9061332051619502
    Two-Electron Energy =                 350.8488243365626431
    DFT Exchange-Correlation Energy =       0.0000000000000000
    Empirical Dispersion Energy =           0.0000000000000000
    PCM Polarization Energy =               0.0000000000000000
    EFP Energy =                            0.0000000000000000
    Total Energy =                       -286.1354552474779211
    Molecular point group: c1
  Basis Set: CC-PVTZ
  Basis Set:

  -Total Gradient:
     Atom            X                  Y                   Z
    ------   -----------------  -----------------  -----------------
       1       -0.000044628189    -0.000053082675     0.000176727614
       2       -0.000240452980    -0.000138980363     0.001353493692
       3        0.000219350955     0.000276496536    -0.001352528913
       4       -0.000055765805    -0.000567794190     0.000816728353
       5        0.000000819480     0.000001746018    -0.000009567081
       6        0.000004184800     0.000000810720    -0.000002424094
       7       -0.000002170246     0.000002163704    -0.000011680607
       8        0.000117559108     0.000542388859    -0.001255651955
       9       -0.000043737261    -0.000042380254     0.000299038267
      10        0.000032274622     0.000018018543    -0.000046401092
      11       -0.000028516706    -0.000043250574    -0.000009275674
      12        0.000026528086     0.000004752307     0.000044263987
      13        0.000002356523     0.000004738702    -0.000008009222
      14        0.000009545052    -0.000005796732     0.000001844759
      15        0.000002652565     0.000000169396     0.000003441964

  **** Optimization is complete! (in 29 steps) ****
    Final optimized geometry and variables:
    Molecular point group: c1

    Geometry (in Angstrom), charge = 0, multiplicity = 1:

    O           -1.007345459361    -1.340422753919    -0.387739190673
    C           -0.677554047230    -0.227037864996    -0.094445852804
    C           -1.712380608189     0.877650072303    -0.034230762007
    N            0.611518762320     0.094971334213     0.190091698578
    H           -1.467251694509     1.683892035607    -0.714282848924
    H           -2.659588113235     0.447848896684    -0.314466214989
    H           -1.791441011914     1.291642038550     0.963295064903
    C            1.652765660005    -0.877074633673    -0.068584636831
    C            1.073932896588     1.444539705713     0.410463745328
    H            2.191111507118    -0.636317972942    -0.981776238935
    H            1.216811396054    -1.854295936461    -0.168326946192
    H            2.361108681081    -0.883242470886     0.751364852704
    H            1.419324737339     1.913439402078    -0.508311777204
    H            0.306140612225     2.063468187255     0.842429416071
    H            1.904641381034     1.424045173941     1.104010813538

  Mulliken Charges: (a.u.)
   Center  Symbol    Alpha    Beta     Spin     Total
       1     O     4.22063  4.22063  0.00000 -0.44127
       2     C     2.84487  2.84487  0.00000  0.31025
       3     C     3.16082  3.16082  0.00000 -0.32164
       4     N     3.56199  3.56199  0.00000 -0.12398
       5     H     0.44944  0.44944  0.00000  0.10112
       6     H     0.42869  0.42869  0.00000  0.14261
       7     H     0.44843  0.44843  0.00000  0.10315
       8     C     3.09971  3.09971  0.00000 -0.19943
       9     C     3.09721  3.09721  0.00000 -0.19442
      10     H     0.45843  0.45843  0.00000  0.08313
      11     H     0.42562  0.42562  0.00000  0.14876
      12     H     0.45619  0.45619  0.00000  0.08762
      13     H     0.45475  0.45475  0.00000  0.09049
      14     H     0.44486  0.44486  0.00000  0.11028
      15     H     0.44834  0.44834  0.00000  0.10332

   Total alpha = 24.00000, Total beta = 24.00000, Total charge = -0.00000

*** Psi4 exiting successfully. Buy a developer a beer!
