  ==> Input File <==

--------------------------------------------------------------------------
set {
	reference rhf
	basis 6-31G*
}

set_num_threads( 4 )
memory 2 gb

molecule MOL {
0 1

H	 -0.095406	 3.651662	 -1.945918
O	 -0.564583	 2.847723	 -2.118960
C	 -0.355104	 1.943368	 -1.067651
C	 1.037921	 1.342035	 -1.127205
H	 -0.510329	 2.410910	 -0.099319
H	 -1.091441	 1.159494	 -1.176274
O	 1.171513	 0.459272	 -0.058250
H	 1.789612	 2.131667	 -1.068722
H	 1.175054	 0.831461	 -2.078569
C	 2.397842	 -0.198080	 -0.002151
H	 2.508049	 -0.905315	 -0.822092
H	 3.173794	 0.550865	 -0.078850
H	 2.517602	 -0.735921	 0.936026

	symmetry c1
}
set optking {
	frozen_dihedral = ("
		4 7 10 13
	")
}

ee = optimize('scf')
oeprop('DIPOLE', 'QUADRUPOLE', 'MULLIKEN_CHARGES')
f=open( 'psi4out.xyz', 'w' )
f.write( "13  " )
f.write( str(ee) + "\n" )
f.write( MOL.save_string_xyz() )
f.close()
--------------------------------------------------------------------------

    Molecular point group: c1
  Charge       = 0
  Multiplicity = 1
  Basis Set: 6-31G*
  Basis Set:
  @DF-RHF Final Energy:  -267.94925872789088
    Total Energy =                       -267.9492587278909923
    Molecular point group: c1
  Basis Set: 6-31G*
  Basis Set:
  Basis Set: 6-31G*
  Basis Set:
  @DF-RHF Final Energy:  -267.95012116940745
    Total Energy =                       -267.9501211694074527
  Basis Set: 6-31G*
  Basis Set:
  Basis Set: 6-31G*
  Basis Set:
  @DF-RHF Final Energy:  -267.95037989007875
    Total Energy =                       -267.9503798900786933
  Basis Set: 6-31G*
  Basis Set:
  Charge       = 0
  Multiplicity = 1
  Basis Set: 6-31G*
  Basis Set:

    Orbital Energies (a.u.)
    -----------------------

    Doubly Occupied:

       1A    -20.562211     2A    -20.560130     3A    -11.270922
       4A    -11.270280     5A    -11.268965     6A     -1.388625
       7A     -1.365162     8A     -1.018555     9A     -0.913364
      10A     -0.841963    11A     -0.709434    12A     -0.674189
      13A     -0.660518    14A     -0.636990    15A     -0.596602
      16A     -0.568364    17A     -0.546505    18A     -0.488727
      19A     -0.482344    20A     -0.438448    21A     -0.421919

  @DF-RHF Final Energy:  -267.95038093841436

   => Energetics <=

    Nuclear Repulsion Energy =            190.2335160694695446
    One-Electron Energy =                -742.9993605762660991
    Two-Electron Energy =                 284.8154635683819151
    DFT Exchange-Correlation Energy =       0.0000000000000000
    Empirical Dispersion Energy =           0.0000000000000000
    PCM Polarization Energy =               0.0000000000000000
    EFP Energy =                            0.0000000000000000
    Total Energy =                       -267.9503809384146962
    Molecular point group: c1
  Basis Set: 6-31G*
  Basis Set:

  -Total Gradient:
     Atom            X                  Y                   Z
    ------   -----------------  -----------------  -----------------
       1        0.000008393170     0.000011765457    -0.000006981631
       2        0.000101674169    -0.000068804362     0.000075483428
       3       -0.000079948202    -0.000081852435     0.000080358055
       4        0.000583908476     0.000879790772     0.000567608260
       5       -0.000015735297     0.000027853581    -0.000000331943
       6       -0.000009238703    -0.000009187361     0.000007456836
       7       -0.000512022334    -0.000964725250    -0.000814395797
       8        0.000013818908    -0.000014694974     0.000029812455
       9        0.000004308926    -0.000009723886    -0.000005588091
      10       -0.000554964469    -0.001087576985    -0.000531083217
      11       -0.000060037910     0.000032981010    -0.000008867527
      12       -0.000024167940     0.000042573002    -0.000011573952
      13        0.000544011205     0.001241601429     0.000618103120

  **** Optimization is complete! (in 4 steps) ****
    Final optimized geometry and variables:
    Molecular point group: c1

    Geometry (in Angstrom), charge = 0, multiplicity = 1:

    H           -0.847367716719     2.348800169253    -1.047437434468
    O           -1.312711845956     1.543335829366    -1.223723277094
    C           -1.097619847426     0.634904560174    -0.177018533503
    C            0.298311938329     0.040886569135    -0.241249541597
    H           -1.253105151876     1.097478688955     0.793630137304
    H           -1.830557930465    -0.151821676838    -0.287794104891
    O            0.438785737403    -0.841878270346     0.827169999509
    H            1.046616202810     0.833333770960    -0.182316457153
    H            0.434935950564    -0.466988324543    -1.194191618739
    C            1.667127085735    -1.496603917593     0.879491433616
    H            1.766355494475    -2.220658376577     0.073920372299
    H            2.494402317671    -0.792257069782     0.815269008528
    H            1.725588104181    -2.007250426782     1.830800869244

  Mulliken Charges: (a.u.)
   Center  Symbol    Alpha    Beta     Spin     Total
       1     H     0.28126  0.28126  0.00000  0.43747
       2     O     4.37089  4.37089  0.00000 -0.74177
       3     C     3.00469  3.00469  0.00000 -0.00938
       4     C     2.99664  2.99664  0.00000  0.00672
       5     H     0.42227  0.42227  0.00000  0.15546
       6     H     0.40841  0.40841  0.00000  0.18317
       7     O     4.30777  4.30777  0.00000 -0.61554
       8     H     0.43722  0.43722  0.00000  0.12556
       9     H     0.42351  0.42351  0.00000  0.15297
      10     C     3.07967  3.07967  0.00000 -0.15935
      11     H     0.42648  0.42648  0.00000  0.14704
      12     H     0.43006  0.43006  0.00000  0.13988
      13     H     0.41112  0.41112  0.00000  0.17776

   Total alpha = 21.00000, Total beta = 21.00000, Total charge = -0.00000
