  ==> Input File <==

--------------------------------------------------------------------------
set {
	reference rhf
	basis 6-31G*
}

set_num_threads( 4 )
memory 2 gb

molecule MOL {
0 1

H	 5.268524	 0.192471	 1.070992
C	 4.673736	 -0.214914	 0.259335
C	 3.185378	 -0.203514	 0.605509
H	 4.871837	 0.380453	 -0.627026
H	 5.025590	 -1.224632	 0.065769
C	 2.317601	 -0.778379	 -0.516234
H	 2.874655	 0.814325	 0.817774
H	 3.023650	 -0.778480	 1.515976
C	 1.541253	 -2.032142	 -0.112963
H	 1.616729	 -0.024350	 -0.856621
H	 2.951885	 -1.027121	 -1.364086
C	 0.397513	 -1.776106	 0.857372
H	 1.100967	 -2.491741	 -0.996528
H	 2.206608	 -2.782673	 0.307968
C	 -0.166929	 -2.969599	 1.608166
O	 -0.057031	 -0.682870	 1.014305
C	 -0.790997	 -4.035389	 0.695043
H	 -0.908873	 -2.587300	 2.298877
H	 0.632845	 -3.420028	 2.193110
C	 -1.435623	 -5.174251	 1.487544
H	 -1.541831	 -3.568950	 0.060773
H	 -0.035367	 -4.447605	 0.031286
C	 -2.060288	 -6.241388	 0.589815
H	 -2.196625	 -4.765638	 2.147827
H	 -0.687244	 -5.633698	 2.129597
H	 -2.835769	 -5.817569	 -0.041638
H	 -1.315933	 -6.693939	 -0.059219
H	 -2.510344	 -7.033821	 1.179202

	symmetry c1
}
set optking {
	frozen_dihedral = ("
		10 6 3 2
	")
}

ee = optimize('scf')
oeprop('DIPOLE', 'QUADRUPOLE', 'MULLIKEN_CHARGES')
f=open( 'psi4out.xyz', 'w' )
f.write( "28  " )
f.write( str(ee) + "\n" )
f.write( MOL.save_string_xyz() )
f.close()
--------------------------------------------------------------------------

    Molecular point group: c1
  Charge       = 0
  Multiplicity = 1
  Basis Set: 6-31G*
  Basis Set:
  @DF-RHF Final Energy:  -426.16332276923322
    Total Energy =                       -426.1633227692333321
    Molecular point group: c1
  Basis Set: 6-31G*
  Basis Set:
  Basis Set: 6-31G*
  Basis Set:
  @DF-RHF Final Energy:  -426.16363995679831
    Total Energy =                       -426.1636399567980789
  Basis Set: 6-31G*
  Basis Set:
  Basis Set: 6-31G*
  Basis Set:
  @DF-RHF Final Energy:  -426.16373776718092
    Total Energy =                       -426.1637377671809190
  Basis Set: 6-31G*
  Basis Set:
  Basis Set: 6-31G*
  Basis Set:
  @DF-RHF Final Energy:  -426.16278077825791
    Total Energy =                       -426.1627807782576838
  Basis Set: 6-31G*
  Basis Set:
  @DF-RHF Final Energy:  -426.16375304198755
    Total Energy =                       -426.1637530419881159
  @DF-RHF Final Energy:  -426.16355416469594
    Total Energy =                       -426.1635541646953698
  Basis Set: 6-31G*
  Basis Set:
  @DF-RHF Final Energy:  -426.16376900372188
    Total Energy =                       -426.1637690037211996
  Basis Set: 6-31G*
  Basis Set:
  Basis Set: 6-31G*
  Basis Set:
  @DF-RHF Final Energy:  -426.16377632393460
    Total Energy =                       -426.1637763239342576
  Basis Set: 6-31G*
  Basis Set:
  Basis Set: 6-31G*
  Basis Set:
  @DF-RHF Final Energy:  -426.16377741615531
    Total Energy =                       -426.1637774161547441
  Basis Set: 6-31G*
  Basis Set:
  Charge       = 0
  Multiplicity = 1
  Basis Set: 6-31G*
  Basis Set:

    Orbital Energies (a.u.)
    -----------------------

    Doubly Occupied:

       1A    -20.548235     2A    -11.321528     3A    -11.232391
       4A    -11.230023     5A    -11.228780     6A    -11.226056
       7A    -11.216300     8A    -11.215958     9A    -11.212009
      10A    -11.207567    11A     -1.393147    12A     -1.094782
      13A     -1.075502    14A     -1.021943    15A     -0.990686
      16A     -0.907708    17A     -0.873452    18A     -0.809312
      19A     -0.800347    20A     -0.721690    21A     -0.665790
      22A     -0.650434    23A     -0.638713    24A     -0.619096
      25A     -0.600997    26A     -0.590605    27A     -0.578340
      28A     -0.573920    29A     -0.541414    30A     -0.534833
      31A     -0.519764    32A     -0.505060    33A     -0.503557
      34A     -0.484808    35A     -0.479993    36A     -0.475849
      37A     -0.469081    38A     -0.459329    39A     -0.455738
      40A     -0.392579

  @DF-RHF Final Energy:  -426.16377817773309

   => Energetics <=

    Nuclear Repulsion Energy =            531.8749884908979766
    One-Electron Energy =               -1631.9429062571462055
    Two-Electron Energy =                 673.9041395885147949
    DFT Exchange-Correlation Energy =       0.0000000000000000
    Empirical Dispersion Energy =           0.0000000000000000
    PCM Polarization Energy =               0.0000000000000000
    EFP Energy =                            0.0000000000000000
    Total Energy =                       -426.1637781777334339
    Molecular point group: c1
  Basis Set: 6-31G*
  Basis Set:

  -Total Gradient:
     Atom            X                  Y                   Z
    ------   -----------------  -----------------  -----------------
       1       -0.000010238956    -0.000000693427    -0.000000107407
       2        0.000030375063    -0.000087572353     0.000034598305
       3       -0.000022889621     0.000100117302     0.000000123345
       4        0.000007507229     0.000003112301    -0.000007300593
       5        0.000008532991    -0.000002319747    -0.000000824258
       6        0.000038884382     0.000035576127    -0.000130971399
       7       -0.000009728608    -0.000015976262     0.000018512924
       8        0.000005265025     0.000025602650     0.000000880810
       9        0.000031130804    -0.000025764811     0.000007543096
      10       -0.000085242070    -0.000041360245     0.000066168740
      11       -0.000010463134    -0.000005491155     0.000007360564
      12        0.000043187423     0.000019707640     0.000095978047
      13       -0.000013847243     0.000029593574     0.000010865961
      14        0.000019117955    -0.000018722204    -0.000009711118
      15       -0.000115637823    -0.000034024085    -0.000118288768
      16        0.000026772094     0.000003735304    -0.000036568670
      17        0.000035150641    -0.000005794957     0.000046411434
      18       -0.000000420568     0.000011837618    -0.000005671965
      19        0.000015837628     0.000007259652     0.000026225448
      20        0.000024201258    -0.000007942975    -0.000000875893
      21       -0.000012816906    -0.000003642290    -0.000001592619
      22        0.000002426133     0.000008959510    -0.000004743370
      23       -0.000010568559     0.000006559527     0.000001703748
      24        0.000005488504    -0.000000018917     0.000003052597
      25        0.000001488057    -0.000003593566    -0.000002050402
      26        0.000000483852    -0.000000957004    -0.000005402990
      27        0.000001087503    -0.000000470512     0.000004839841
      28       -0.000005083055     0.000002283304    -0.000000155408

  **** Optimization is complete! (in 10 steps) ****
    Final optimized geometry and variables:
    Molecular point group: c1

    Geometry (in Angstrom), charge = 0, multiplicity = 1:

    H            4.427002473703     2.818897117294     0.410689918755
    C            3.877757983961     2.334209653369    -0.390785325632
    C            2.381024253460     2.278631622721    -0.082415524502
    H            4.068831808347     2.888838687625    -1.305262555528
    H            4.290743037048     1.336893083246    -0.519408850744
    C            1.556574480776     1.588874820321    -1.193543856422
    H            2.009309917116     3.284482257650     0.077578734289
    H            2.236735818318     1.761545694350     0.862386350250
    C            0.834861644768     0.321991207055    -0.736169108724
    H            0.821485212055     2.276447104097    -1.593095247745
    H            2.210641133422     1.320593108108    -2.018858179010
    C           -0.298560384575     0.583197981656     0.243892889407
    H            0.404247504769    -0.191326488835    -1.594294886407
    H            1.532413350406    -0.384283823343    -0.290009676466
    C           -0.889760948041    -0.610842611706     0.973657824774
    O           -0.721019420711     1.684818197295     0.428976358268
    C           -1.578076682854    -1.623549115932     0.046349616780
    H           -1.599805400381    -0.220944876969     1.693062226235
    H           -0.095564365547    -1.109953109419     1.525649759831
    C           -2.253930431992    -2.755545071880     0.822481402968
    H           -2.321461460032    -1.108400731230    -0.558252512859
    H           -0.855118563718    -2.049144490254    -0.644714108338
    C           -2.943704079248    -3.769508066603    -0.089113531243
    H           -2.981923277615    -2.333359460065     1.510830810562
    H           -1.512335397673    -3.264307590661     1.434549550491
    H           -3.712975804175    -3.295261509866    -0.691631470105
    H           -2.233830844093    -4.235885558458    -0.766368561935
    H           -3.415590901840    -4.557611162800     0.488935407991

  Mulliken Charges: (a.u.)
   Center  Symbol    Alpha    Beta     Spin     Total
       1     H     0.41986  0.41986  0.00000  0.16029
       2     C     3.24114  3.24114  0.00000 -0.48227
       3     C     3.15183  3.15183  0.00000 -0.30366
       4     H     0.42132  0.42132  0.00000  0.15736
       5     H     0.42493  0.42493  0.00000  0.15015
       6     C     3.15270  3.15270  0.00000 -0.30540
       7     H     0.41155  0.41155  0.00000  0.17690
       8     H     0.42381  0.42381  0.00000  0.15238
       9     C     3.21256  3.21256  0.00000 -0.42513
      10     H     0.40575  0.40575  0.00000  0.18850
      11     H     0.41936  0.41936  0.00000  0.16128
      12     C     2.73211  2.73211  0.00000  0.53578
      13     H     0.40457  0.40457  0.00000  0.19086
      14     H     0.41267  0.41267  0.00000  0.17466
      15     C     3.20137  3.20137  0.00000 -0.40275
      16     O     4.26556  4.26556  0.00000 -0.53111
      17     C     3.16363  3.16363  0.00000 -0.32727
      18     H     0.39972  0.39972  0.00000  0.20055
      19     H     0.41341  0.41341  0.00000  0.17317
      20     C     3.15180  3.15180  0.00000 -0.30359
      21     H     0.41361  0.41361  0.00000  0.17278
      22     H     0.41889  0.41889  0.00000  0.16221
      23     C     3.24033  3.24033  0.00000 -0.48067
      24     H     0.41837  0.41837  0.00000  0.16327
      25     H     0.42146  0.42146  0.00000  0.15709
      26     H     0.41958  0.41958  0.00000  0.16084
      27     H     0.42121  0.42121  0.00000  0.15757
      28     H     0.41689  0.41689  0.00000  0.16623

   Total alpha = 40.00000, Total beta = 40.00000, Total charge =  0.00000
