  ==> Input File <==

--------------------------------------------------------------------------
set {
	reference rhf
	basis 6-31G*
}

set_num_threads( 4 )
memory 2 gb

molecule MOL {
0 1

H	 2.380344	 1.647862	 -1.237472
N	 1.573104	 1.056506	 -1.284122
C	 1.267428	 0.496480	 0.024474
H	 1.786382	 0.326601	 -1.937317
C	 -0.016086	 -0.325158	 -0.029487
H	 1.134382	 1.324251	 0.714494
H	 2.075322	 -0.119741	 0.426914
C	 -1.282277	 0.529072	 0.046735
H	 -0.012495	 -0.908639	 -0.945788
H	 -0.015903	 -1.041248	 0.791956
C	 -2.563920	 -0.301775	 -0.006060
H	 -1.284084	 1.244622	 -0.773004
H	 -1.271387	 1.115393	 0.963286
H	 -2.621848	 -0.873522	 -0.927727
H	 -3.445135	 0.329952	 0.047812
H	 -2.609542	 -1.004582	 0.821105

	symmetry c1
}
set optking {
	frozen_dihedral = ("
		6 3 5 9
	")
}

ee = optimize('scf')
oeprop('DIPOLE', 'QUADRUPOLE', 'MULLIKEN_CHARGES')
f=open( 'psi4out.xyz', 'w' )
f.write( "16  " )
f.write( str(ee) + "\n" )
f.write( MOL.save_string_xyz() )
f.close()
--------------------------------------------------------------------------

    Molecular point group: c1
  Charge       = 0
  Multiplicity = 1
  Basis Set: 6-31G*
  Basis Set:
  @DF-RHF Final Energy:  -212.31533767868683
    Total Energy =                       -212.3153376786866033
    Molecular point group: c1
  Basis Set: 6-31G*
  Basis Set:
  Basis Set: 6-31G*
  Basis Set:
  @DF-RHF Final Energy:  -212.31566192023911
    Total Energy =                       -212.3156619202392790
  Basis Set: 6-31G*
  Basis Set:
  Basis Set: 6-31G*
  Basis Set:
  @DF-RHF Final Energy:  -212.31574685992402
    Total Energy =                       -212.3157468599239337
  Basis Set: 6-31G*
  Basis Set:
  Charge       = 0
  Multiplicity = 1
  Basis Set: 6-31G*
  Basis Set:

    Orbital Energies (a.u.)
    -----------------------

    Doubly Occupied:

       1A    -15.533394     2A    -11.240542     3A    -11.209913
       4A    -11.205838     5A    -11.202952     6A     -1.177051
       7A     -1.052931     8A     -0.956458     9A     -0.844388
      10A     -0.785347    11A     -0.663408    12A     -0.634643
      13A     -0.602078    14A     -0.574006    15A     -0.563480
      16A     -0.515477    17A     -0.501598    18A     -0.466814
      19A     -0.461255    20A     -0.460100    21A     -0.379724

  @DF-RHF Final Energy:  -212.31574760967260

   => Energetics <=

    Nuclear Repulsion Energy =            188.5148538690056057
    One-Electron Energy =                -659.5984106171260919
    Two-Electron Energy =                 258.7678091384479444
    DFT Exchange-Correlation Energy =       0.0000000000000000
    Empirical Dispersion Energy =           0.0000000000000000
    PCM Polarization Energy =               0.0000000000000000
    EFP Energy =                            0.0000000000000000
    Total Energy =                       -212.3157476096725418
    Molecular point group: c1
  Basis Set: 6-31G*
  Basis Set:

  -Total Gradient:
     Atom            X                  Y                   Z
    ------   -----------------  -----------------  -----------------
       1       -0.000002414528     0.000006047848    -0.000034547206
       2        0.000038690352     0.000026444199    -0.000018130186
       3        0.001122200561    -0.001770214039     0.002658715384
       4        0.000000193482     0.000012209181     0.000013783576
       5        0.001685805694    -0.002585519630     0.001327259278
       6       -0.001225803549     0.001828259728    -0.002473944780
       7       -0.000064673745    -0.000020574441    -0.000003660918
       8       -0.000015889956     0.000082237997     0.000157173450
       9       -0.001507698244     0.002347843123    -0.001630333075
      10       -0.000004119086     0.000077293774    -0.000021375116
      11        0.000026453150    -0.000002172608    -0.000082796863
      12       -0.000006102401    -0.000042245815     0.000077692848
      13       -0.000052426853     0.000041891758     0.000049132036
      14        0.000005778232    -0.000053885114     0.000006706462
      15        0.000004122407     0.000007209291    -0.000041576450
      16       -0.000004115513     0.000045174746     0.000015901559

  **** Optimization is complete! (in 4 steps) ****
    Final optimized geometry and variables:
    Molecular point group: c1

    Geometry (in Angstrom), charge = 0, multiplicity = 1:

    H            2.475512045834     1.394142485442    -1.014862899860
    N            1.704529937380     0.754880721674    -1.033961754272
    C            1.462214109978     0.193008583981     0.290058924939
    H            1.943280936697     0.030698133215    -1.684532334854
    C            0.172367349350    -0.629895914186     0.290870008047
    H            1.353821786221     1.033193969077     0.968962432868
    H            2.292309395900    -0.415393118711     0.652303489720
    C           -1.089941558176     0.234589959854     0.335579977877
    H            0.143105644969    -1.231956470955    -0.616125869191
    H            0.176106795221    -1.318467245845     1.132633962154
    C           -2.375522528160    -0.583623286317     0.221806471399
    H           -1.044434640985     0.962274308880    -0.467938719847
    H           -1.104254771458     0.798569499995     1.266454819685
    H           -2.408054599390    -1.134788552754    -0.714026158015
    H           -3.252749077488     0.055159435712     0.258389015279
    H           -2.457973728602    -1.304186983881     1.031242795361

  Mulliken Charges: (a.u.)
   Center  Symbol    Alpha    Beta     Spin     Total
       1     H     0.33217  0.33217  0.00000  0.33565
       2     N     3.92140  3.92140  0.00000 -0.84279
       3     C     3.06750  3.06750  0.00000 -0.13499
       4     H     0.33511  0.33511  0.00000  0.32978
       5     C     3.14941  3.14941  0.00000 -0.29882
       6     H     0.42021  0.42021  0.00000  0.15958
       7     H     0.43072  0.43072  0.00000  0.13857
       8     C     3.15347  3.15347  0.00000 -0.30694
       9     H     0.42572  0.42572  0.00000  0.14855
      10     H     0.42391  0.42391  0.00000  0.15217
      11     C     3.23965  3.23965  0.00000 -0.47930
      12     H     0.40777  0.40777  0.00000  0.18446
      13     H     0.42643  0.42643  0.00000  0.14714
      14     H     0.42245  0.42245  0.00000  0.15511
      15     H     0.41998  0.41998  0.00000  0.16003
      16     H     0.42411  0.42411  0.00000  0.15179

   Total alpha = 21.00000, Total beta = 21.00000, Total charge = -0.00000
