                              Psi4 1.0.54 Driver

  ==> Input File <==

--------------------------------------------------------------------------
set {
	reference rhf
	basis cc-pvtz
}

set_num_threads( 4 )
memory 2 gb

molecule MOL {
0 1

O	 -2.081319	 -0.951530	 -0.502732
N	 -1.613558	 0.006676	 0.014756
C	 -0.329345	 -0.171618	 0.743966
O	 -2.068523	 1.100482	 -0.024385
C	 0.835904	 0.041968	 -0.213982
H	 -0.346048	 -1.174374	 1.137184
H	 -0.333613	 0.555559	 1.538590
C	 2.165516	 -0.333503	 0.435109
H	 0.675090	 -0.556934	 -1.102809
H	 0.853538	 1.081494	 -0.520271
C	 3.350232	 -0.122025	 -0.500950
H	 2.133440	 -1.372816	 0.748535
H	 2.306779	 0.256482	 1.335869
H	 3.253193	 -0.725511	 -1.396542
H	 3.426413	 0.915509	 -0.806620
H	 4.279859	 -0.394339	 -0.016389

	symmetry c1
}
set optking {
	frozen_dihedral = ("
		9 5 3 2
	")
}

ee,wfn = optimize('scf', return_wfn=True)
oeprop( wfn, 'DIPOLE', 'QUADRUPOLE', 'MULLIKEN_CHARGES')
f=open( 'psi4out.xyz', 'w' )
f.write( "16  " )
f.write( str(ee) + "\n" )
f.write( MOL.save_string_xyz() )
f.close()
--------------------------------------------------------------------------

    Molecular point group: c1
  Charge       = 0
  Multiplicity = 1
  Basis Set: CC-PVTZ
  Basis Set:
  @DF-RHF Final Energy:  -360.90926941846118
    Total Energy =                       -360.9092694184614629
    Molecular point group: c1
  Basis Set: CC-PVTZ
  Basis Set:
  Basis Set: CC-PVTZ
  Basis Set:
  @DF-RHF Final Energy:  -360.90928455682626
    Total Energy =                       -360.9092845568266057
  Basis Set: CC-PVTZ
  Basis Set:
  Basis Set: CC-PVTZ
  Basis Set:
  @DF-RHF Final Energy:  -360.90872991309419
    Total Energy =                       -360.9087299130944189
  Basis Set: CC-PVTZ
  Basis Set:
  Basis Set: CC-PVTZ
  Basis Set:
  @DF-RHF Final Energy:  -360.90928979661885
    Total Energy =                       -360.9092897966189639
  Basis Set: CC-PVTZ
  Basis Set:
  Basis Set: CC-PVTZ
  Basis Set:
  @DF-RHF Final Energy:  -360.90929384827024
    Total Energy =                       -360.9092938482701811
  Basis Set: CC-PVTZ
  Basis Set:
  Basis Set: CC-PVTZ
  Basis Set:
  @DF-RHF Final Energy:  -360.90929808096450
    Total Energy =                       -360.9092980809643905
  Basis Set: CC-PVTZ
  Basis Set:
  Charge       = 0
  Multiplicity = 1
  Basis Set: CC-PVTZ
  Basis Set:

    Orbital Energies (a.u.)
    -----------------------

    Doubly Occupied:

       1A    -20.589702     2A    -20.589642     3A    -15.836243
       4A    -11.296260     5A    -11.250744     6A    -11.241919
       7A    -11.225913     8A     -1.635232     9A     -1.419512
      10A     -1.136578    11A     -1.060247    12A     -0.948756
      13A     -0.843524    14A     -0.829466    15A     -0.757902
      16A     -0.737889    17A     -0.728008    18A     -0.678670
      19A     -0.616118    20A     -0.607995    21A     -0.567968
      22A     -0.542140    23A     -0.517107    24A     -0.504389
      25A     -0.496515    26A     -0.485996    27A     -0.470162
      28A     -0.452222

  @DF-RHF Final Energy:  -360.90929874733712

   => Energetics <=

    Nuclear Repulsion Energy =            313.0323534767230171
    One-Electron Energy =               -1111.7496740596775453
    Two-Electron Energy =                 437.8080218356171258
    DFT Exchange-Correlation Energy =       0.0000000000000000
    Empirical Dispersion Energy =           0.0000000000000000
    PCM Polarization Energy =               0.0000000000000000
    EFP Energy =                            0.0000000000000000
    Total Energy =                       -360.9092987473373455
    Molecular point group: c1
  Basis Set: CC-PVTZ
  Basis Set:

  -Total Gradient:
     Atom            X                  Y                   Z
    ------   -----------------  -----------------  -----------------
       1       -0.000002882426     0.000035392823    -0.000000724657
       2        0.000028130296    -0.001167442030    -0.000264902510
       3       -0.000164025343     0.001797818539     0.000184197474
       4       -0.000043623542     0.000000119188    -0.000007290475
       5        0.000968241748    -0.001915647269     0.000780104543
       6        0.000010260601    -0.000012186902     0.000021745116
       7        0.000008621038    -0.000002639279    -0.000021616654
       8       -0.000012418446     0.000009004486     0.000003268690
       9       -0.000794134943     0.001240697511    -0.000671919796
      10        0.000014497419     0.000022917220    -0.000010410525
      11       -0.000003510524    -0.000006190558    -0.000008925726
      12        0.000003173285    -0.000002175994    -0.000002338862
      13       -0.000010363371    -0.000001730452    -0.000001703802
      14        0.000002557344    -0.000000269267    -0.000002988207
      15       -0.000002007216     0.000001315701     0.000000921545
      16       -0.000002515920     0.000001016288     0.000002583846

  **** Optimization is complete! (in 7 steps) ****
    Final optimized geometry and variables:
    Molecular point group: c1

    Geometry (in Angstrom), charge = 0, multiplicity = 1:

    O           -2.100216019126    -0.892597938280    -0.458606782197
    N           -1.610814312361     0.068682665374     0.032562724938
    C           -0.327137156576    -0.116583935605     0.760645750675
    O           -2.044074908501     1.170164180904    -0.032399080171
    C            0.839130286386     0.084827901624    -0.199935728171
    H           -0.352955975553    -1.120259065810     1.151056015909
    H           -0.323486772122     0.607827264335     1.557746084192
    C            2.169834133876    -0.283329527148     0.449613657969
    H            0.672907137232    -0.516105455543    -1.086646561835
    H            0.855276537597     1.120939109630    -0.517912220585
    C            3.354980385692    -0.057090667415    -0.482422388342
    H            2.144613591309    -1.324358951043     0.757083609126
    H            2.304592228026     0.302677250448     1.354262324542
    H            3.262213259349    -0.652972387455    -1.383569295233
    H            3.426573065542     0.983495519863    -0.778615647743
    H            4.285155183530    -0.329283396377     0.001146888298

  Mulliken Charges: (a.u.)
   Center  Symbol    Alpha    Beta     Spin     Total
       1     O     4.17329  4.17329  0.00000 -0.34658
       2     N     3.27614  3.27614  0.00000  0.44772
       3     C     3.03971  3.03971  0.00000 -0.07943
       4     O     4.17462  4.17462  0.00000 -0.34923
       5     C     3.10115  3.10115  0.00000 -0.20230
       6     H     0.43489  0.43489  0.00000  0.13021
       7     H     0.43320  0.43320  0.00000  0.13359
       8     C     3.09324  3.09324  0.00000 -0.18647
       9     H     0.43756  0.43756  0.00000  0.12488
      10     H     0.43871  0.43871  0.00000  0.12258
      11     C     3.14834  3.14834  0.00000 -0.29669
      12     H     0.44964  0.44964  0.00000  0.10073
      13     H     0.45091  0.45091  0.00000  0.09818
      14     H     0.45155  0.45155  0.00000  0.09689
      15     H     0.45186  0.45186  0.00000  0.09628
      16     H     0.44518  0.44518  0.00000  0.10964

   Total alpha = 28.00000, Total beta = 28.00000, Total charge =  0.00000

*** Psi4 exiting successfully. Buy a developer a beer!
