  ==> Input File <==

--------------------------------------------------------------------------
set {
	reference rhf
	basis 6-31G*
}

set_num_threads( 4 )
memory 2 gb

molecule MOL {
0 1

H	 2.161365	 -0.648248	 0.730568
C	 1.932196	 -0.337074	 -0.295811
C	 0.661060	 0.456171	 -0.456794
O	 2.664453	 -0.628309	 -1.185255
C	 -0.558097	 -0.297372	 0.091132
H	 0.539595	 0.693949	 -1.507122
H	 0.782009	 1.391409	 0.088671
C	 -1.850991	 0.512573	 -0.019058
H	 -0.672201	 -1.234847	 -0.448215
H	 -0.386001	 -0.559878	 1.133405
C	 -3.096943	 -0.368295	 -0.099594
H	 -1.800724	 1.150330	 -0.898172
H	 -1.931651	 1.177355	 0.838044
H	 -3.060452	 -1.020287	 -0.967456
H	 -3.996858	 0.233488	 -0.175704
H	 -3.191959	 -0.995686	 0.782074

	symmetry c1
}
set optking {
	frozen_dihedral = ("
		9 5 8 12
	")
}

ee = optimize('scf')
oeprop('DIPOLE', 'QUADRUPOLE', 'MULLIKEN_CHARGES')
f=open( 'psi4out.xyz', 'w' )
f.write( "16  " )
f.write( str(ee) + "\n" )
f.write( MOL.save_string_xyz() )
f.close()
--------------------------------------------------------------------------

    Molecular point group: c1
  Charge       = 0
  Multiplicity = 1
  Basis Set: 6-31G*
  Basis Set:
  @DF-RHF Final Energy:  -270.01755397478973
    Total Energy =                       -270.0175539747898483
    Molecular point group: c1
  Basis Set: 6-31G*
  Basis Set:
  Basis Set: 6-31G*
  Basis Set:
  @DF-RHF Final Energy:  -270.01768101017421
    Total Energy =                       -270.0176810101744991
  Basis Set: 6-31G*
  Basis Set:
  Basis Set: 6-31G*
  Basis Set:
  @DF-RHF Final Energy:  -270.01515184062123
    Total Energy =                       -270.0151518406211153
  Basis Set: 6-31G*
  Basis Set:
  Basis Set: 6-31G*
  Basis Set:
  @DF-RHF Final Energy:  -270.01780263244552
    Total Energy =                       -270.0178026324456368
  Basis Set: 6-31G*
  Basis Set:
  Basis Set: 6-31G*
  Basis Set:
  @DF-RHF Final Energy:  -270.01784921662016
    Total Energy =                       -270.0178492166202204
  Basis Set: 6-31G*
  Basis Set:
  Basis Set: 6-31G*
  Basis Set:
  @DF-RHF Final Energy:  -270.01785226003744
    Total Energy =                       -270.0178522600374436
  Basis Set: 6-31G*
  Basis Set:
  Basis Set: 6-31G*
  Basis Set:
  @DF-RHF Final Energy:  -270.01786255184538
    Total Energy =                       -270.0178625518451554
  Basis Set: 6-31G*
  Basis Set:
  Charge       = 0
  Multiplicity = 1
  Basis Set: 6-31G*
  Basis Set:

    Orbital Energies (a.u.)
    -----------------------

    Doubly Occupied:

       1A    -20.562620     2A    -11.326639     3A    -11.236462
       4A    -11.235689     5A    -11.229211     6A    -11.218664
       7A     -1.402408     8A     -1.095647     9A     -1.019017
      10A     -0.906056    11A     -0.812957    12A     -0.794301
      13A     -0.675249    14A     -0.649170    15A     -0.627879
      16A     -0.601023    17A     -0.585605    18A     -0.551992
      19A     -0.522417    20A     -0.513973    21A     -0.488464
      22A     -0.480509    23A     -0.475748    24A     -0.409144

  @DF-RHF Final Energy:  -270.01786244638288

   => Energetics <=

    Nuclear Repulsion Energy =            228.7785967056451000
    One-Electron Energy =                -818.7512328216648712
    Two-Electron Energy =                 319.9547736696369498
    DFT Exchange-Correlation Energy =       0.0000000000000000
    Empirical Dispersion Energy =           0.0000000000000000
    PCM Polarization Energy =               0.0000000000000000
    EFP Energy =                            0.0000000000000000
    Total Energy =                       -270.0178624463828214
    Molecular point group: c1
  Basis Set: 6-31G*
  Basis Set:

  -Total Gradient:
     Atom            X                  Y                   Z
    ------   -----------------  -----------------  -----------------
       1        0.000021508164     0.000002512740     0.000000351296
       2       -0.000031647179     0.000000539923     0.000010046185
       3        0.000061887460     0.000042372080     0.000036174382
       4        0.000019948332    -0.000004289322     0.000002423016
       5        0.002195281249     0.003052548570    -0.003870185055
       6       -0.000001475998    -0.000016742578    -0.000000247470
       7        0.000001523303     0.000005531721    -0.000013228249
       8       -0.002564980609    -0.004213855546    -0.002038890642
       9       -0.001420785225    -0.001904525833     0.003541827186
      10       -0.000005857414    -0.000021638235    -0.000044394178
      11       -0.000039752620    -0.000004792871     0.000021491008
      12        0.001765938782     0.003062977756     0.002386000739
      13        0.000002135277     0.000010752794    -0.000036625081
      14        0.000013446547    -0.000011165247     0.000006369646
      15       -0.000006453904    -0.000002499819    -0.000007587539
      16       -0.000010716172     0.000002273867     0.000006474760

  **** Optimization is complete! (in 8 steps) ****
    Final optimized geometry and variables:
    Molecular point group: c1

    Geometry (in Angstrom), charge = 0, multiplicity = 1:

    H            2.177704354517    -0.510344973723     1.103472265924
    C            1.982845128478    -0.205389332732     0.068325448794
    C            0.707069798981     0.567915447494    -0.143706038737
    O            2.751576529875    -0.489211034245    -0.792261300036
    C           -0.520812655927    -0.198071534240     0.361007176453
    H            0.620751938068     0.800539117685    -1.198473366249
    H            0.793681228489     1.506926551432     0.402354778903
    C           -1.817320314998     0.619805822935     0.279019373672
    H           -0.634593757410    -1.131080537600    -0.185873903368
    H           -0.360326880610    -0.494495498736     1.396310632830
    C           -3.075340408077    -0.244361828837     0.255266562706
    H           -1.786952836915     1.272350224270    -0.590104530903
    H           -1.858647032565     1.291582061730     1.133811907861
    H           -3.095793470366    -0.881603705397    -0.623770889730
    H           -3.971138207429     0.368084412288     0.243151714582
    H           -3.125257742235    -0.886303361350     1.130325205939

  Mulliken Charges: (a.u.)
   Center  Symbol    Alpha    Beta     Spin     Total
       1     H     0.43199  0.43199  0.00000  0.13602
       2     C     2.82992  2.82992  0.00000  0.34015
       3     C     3.20859  3.20859  0.00000 -0.41717
       4     O     4.23706  4.23706  0.00000 -0.47412
       5     C     3.16591  3.16591  0.00000 -0.33183
       6     H     0.39884  0.39884  0.00000  0.20233
       7     H     0.40952  0.40952  0.00000  0.18097
       8     C     3.15261  3.15261  0.00000 -0.30522
       9     H     0.41219  0.41219  0.00000  0.17562
      10     H     0.41868  0.41868  0.00000  0.16264
      11     C     3.24079  3.24079  0.00000 -0.48158
      12     H     0.41845  0.41845  0.00000  0.16311
      13     H     0.41994  0.41994  0.00000  0.16011
      14     H     0.41865  0.41865  0.00000  0.16270
      15     H     0.41672  0.41672  0.00000  0.16656
      16     H     0.42014  0.42014  0.00000  0.15971

   Total alpha = 24.00000, Total beta = 24.00000, Total charge = -0.00000
