  ==> Input File <==

--------------------------------------------------------------------------
set {
	reference rhf
	basis 6-31G*
}

set_num_threads( 4 )
memory 2 gb

molecule MOL {
0 1

H	 1.747937	 -3.211094	 4.265864
C	 1.633925	 -2.937837	 3.221794
C	 0.393259	 -2.070742	 3.012371
H	 2.535390	 -2.412993	 2.918269
H	 1.576543	 -3.856530	 2.644770
C	 0.195190	 -1.664786	 1.555537
H	 0.458488	 -1.170988	 3.616173
H	 -0.486422	 -2.611997	 3.356747
N	 -0.972592	 -0.819909	 1.400853
H	 1.061857	 -1.101955	 1.219274
H	 0.146714	 -2.561550	 0.928766
C	 -1.217365	 -0.386708	 0.039277
H	 -1.780487	 -1.302046	 1.747104
C	 -2.452633	 0.504241	 -0.042481
H	 -0.348344	 0.174017	 -0.294411
H	 -1.326475	 -1.228542	 -0.652672
C	 -3.758029	 -0.289423	 -0.010781
H	 -2.394220	 1.093569	 -0.952170
H	 -2.440793	 1.210787	 0.785871
H	 -3.816659	 -0.981993	 -0.845726
H	 -4.617837	 0.370165	 -0.069296
H	 -3.847478	 -0.867502	 0.904682

	symmetry c1
}
set optking {
	frozen_dihedral = ("
		15 12 14 18
	")
}

ee = optimize('scf')
oeprop('DIPOLE', 'QUADRUPOLE', 'MULLIKEN_CHARGES')
f=open( 'psi4out.xyz', 'w' )
f.write( "22  " )
f.write( str(ee) + "\n" )
f.write( MOL.save_string_xyz() )
f.close()
--------------------------------------------------------------------------

    Molecular point group: c1
  Charge       = 0
  Multiplicity = 1
  Basis Set: 6-31G*
  Basis Set:
  @DF-RHF Final Energy:  -290.38113339278311
    Total Energy =                       -290.3811333927828855
    Molecular point group: c1
  Basis Set: 6-31G*
  Basis Set:
  Basis Set: 6-31G*
  Basis Set:
  @DF-RHF Final Energy:  -290.38137862908764
    Total Energy =                       -290.3813786290877488
  Basis Set: 6-31G*
  Basis Set:
  Basis Set: 6-31G*
  Basis Set:
  @DF-RHF Final Energy:  -290.38142207679044
    Total Energy =                       -290.3814220767899315
  Basis Set: 6-31G*
  Basis Set:
  Charge       = 0
  Multiplicity = 1
  Basis Set: 6-31G*
  Basis Set:

    Orbital Energies (a.u.)
    -----------------------

    Doubly Occupied:

       1A    -15.533648     2A    -11.237967     3A    -11.237949
       4A    -11.213579     5A    -11.213304     6A    -11.211277
       7A    -11.209735     8A     -1.205612     9A     -1.058669
      10A     -1.024108    11A     -0.928789    12A     -0.877488
      13A     -0.806027    14A     -0.790992    15A     -0.667294
      16A     -0.634915    17A     -0.620856    18A     -0.587416
      19A     -0.575084    20A     -0.570883    21A     -0.548331
      22A     -0.527717    23A     -0.506836    24A     -0.487386
      25A     -0.479383    26A     -0.470935    27A     -0.467460
      28A     -0.451198    29A     -0.358567

  @DF-RHF Final Energy:  -290.38142259904430

   => Energetics <=

    Nuclear Repulsion Energy =            316.5136803003590558
    One-Electron Energy =               -1018.7833994903537587
    Two-Electron Energy =                 411.8882965909505174
    DFT Exchange-Correlation Energy =       0.0000000000000000
    Empirical Dispersion Energy =           0.0000000000000000
    PCM Polarization Energy =               0.0000000000000000
    EFP Energy =                            0.0000000000000000
    Total Energy =                       -290.3814225990441855
    Molecular point group: c1
  Basis Set: 6-31G*
  Basis Set:

  -Total Gradient:
     Atom            X                  Y                   Z
    ------   -----------------  -----------------  -----------------
       1        0.000015014175    -0.000003174976     0.000003920213
       2        0.000010488593     0.000008501665     0.000032692234
       3        0.000039433604    -0.000022474167     0.000005247644
       4        0.000003606081    -0.000003950400    -0.000003776706
       5       -0.000007304208     0.000003585189     0.000003670994
       6       -0.000073425484    -0.000027602173     0.000015397255
       7       -0.000003527572    -0.000010529803     0.000010954464
       8        0.000000544379     0.000001849492    -0.000010295139
       9        0.000016179719    -0.000000691795    -0.000037700071
      10       -0.000017735027     0.000002488070     0.000000636289
      11        0.000012062958    -0.000001002145    -0.000010806371
      12        0.000806523590     0.001574503493     0.003419433587
      13        0.000004606514    -0.000006515226    -0.000006852950
      14       -0.001669530753    -0.002592862735    -0.002249306970
      15       -0.000410023273    -0.000860421474    -0.002504620049
      16        0.000002130031    -0.000000695901     0.000023330808
      17       -0.000008300040    -0.000012642001     0.000032509035
      18        0.001255752255     0.001938812023     0.001291232789
      19       -0.000000078135    -0.000020956201    -0.000026460855
      20        0.000012883021     0.000027730493    -0.000020103042
      21        0.000002204877     0.000016393340     0.000020383290
      22        0.000008494693    -0.000010344768     0.000010513550

  **** Optimization is complete! (in 4 steps) ****
    Final optimized geometry and variables:
    Molecular point group: c1

    Geometry (in Angstrom), charge = 0, multiplicity = 1:

    H            2.654152418594    -2.104627014548     2.949286199078
    C            2.537561961198    -1.825794426599     1.906954725984
    C            1.287928151119    -0.970406269129     1.702749775018
    H            3.433529646815    -1.289587137152     1.607132483497
    H            2.489921892641    -2.741254883354     1.323939053808
    C            1.087446804177    -0.554874075811     0.248912754400
    H            1.342777668130    -0.074922506882     2.313828892047
    H            0.413611491080    -1.523835851001     2.041640359335
    N           -0.088006986327     0.280657301523     0.099515143002
    H            1.949028548084     0.018738086696    -0.082082743223
    H            1.048014030456    -1.446995868092    -0.385048435506
    C           -0.327975632546     0.723867407465    -1.260274380625
    H           -0.889179879850    -0.215530578758     0.439454743025
    C           -1.571439101618     1.607398589098    -1.367484588100
    H            0.538945815658     1.287157901405    -1.592062977890
    H           -0.420846747836    -0.115600879907    -1.958558674632
    C           -2.893669794339     0.839964837644    -1.333624801701
    H           -1.509420469677     2.187008388702    -2.284947414075
    H           -1.543421124595     2.326465240005    -0.553915650029
    H           -2.952199404440     0.123347803730    -2.148101180998
    H           -3.737223532720     1.516623916931    -1.426959873217
    H           -3.021952309408     0.294833481142    -0.402679746286

  Mulliken Charges: (a.u.)
   Center  Symbol    Alpha    Beta     Spin     Total
       1     H     0.41773  0.41773  0.00000  0.16455
       2     C     3.24329  3.24329  0.00000 -0.48657
       3     C     3.15551  3.15551  0.00000 -0.31102
       4     H     0.42067  0.42067  0.00000  0.15866
       5     H     0.42165  0.42165  0.00000  0.15670
       6     C     3.04714  3.04714  0.00000 -0.09427
       7     H     0.41297  0.41297  0.00000  0.17406
       8     H     0.42679  0.42679  0.00000  0.14641
       9     N     3.85744  3.85744  0.00000 -0.71488
      10     H     0.42177  0.42177  0.00000  0.15647
      11     H     0.43614  0.43614  0.00000  0.12772
      12     C     3.05165  3.05165  0.00000 -0.10330
      13     H     0.33282  0.33282  0.00000  0.33437
      14     C     3.15882  3.15882  0.00000 -0.31763
      15     H     0.41969  0.41969  0.00000  0.16062
      16     H     0.43690  0.43690  0.00000  0.12619
      17     C     3.24294  3.24294  0.00000 -0.48588
      18     H     0.42095  0.42095  0.00000  0.15810
      19     H     0.41253  0.41253  0.00000  0.17494
      20     H     0.42123  0.42123  0.00000  0.15755
      21     H     0.41705  0.41705  0.00000  0.16590
      22     H     0.42434  0.42434  0.00000  0.15132

   Total alpha = 29.00000, Total beta = 29.00000, Total charge = -0.00000
