  ==> Input File <==

--------------------------------------------------------------------------
set {
	reference rhf
	basis 6-31G*
}

set_num_threads( 4 )
memory 2 gb

molecule MOL {
0 1

H	 1.824134	 -1.101122	 1.358581
C	 1.898002	 -0.262151	 0.656105
C	 0.644499	 0.560684	 0.505735
O	 2.915380	 -0.055940	 0.077704
C	 -0.558097	 -0.297372	 0.091132
H	 0.837770	 1.345551	 -0.216144
H	 0.438248	 1.030178	 1.466915
C	 -1.850991	 0.512573	 -0.019058
H	 -0.347116	 -0.772504	 -0.864122
H	 -0.697758	 -1.101312	 0.811572
C	 -3.096943	 -0.368295	 -0.099594
H	 -1.800724	 1.150330	 -0.898172
H	 -1.931651	 1.177355	 0.838044
H	 -3.060452	 -1.020287	 -0.967456
H	 -3.996858	 0.233488	 -0.175704
H	 -3.191959	 -0.995686	 0.782074

	symmetry c1
}
set optking {
	frozen_dihedral = ("
		9 5 8 12
	")
}

ee = optimize('scf')
oeprop('DIPOLE', 'QUADRUPOLE', 'MULLIKEN_CHARGES')
f=open( 'psi4out.xyz', 'w' )
f.write( "16  " )
f.write( str(ee) + "\n" )
f.write( MOL.save_string_xyz() )
f.close()
--------------------------------------------------------------------------

    Molecular point group: c1
  Charge       = 0
  Multiplicity = 1
  Basis Set: 6-31G*
  Basis Set:
  @DF-RHF Final Energy:  -270.01914933088199
    Total Energy =                       -270.0191493308822146
    Molecular point group: c1
  Basis Set: 6-31G*
  Basis Set:
  Basis Set: 6-31G*
  Basis Set:
  @DF-RHF Final Energy:  -270.01911910807974
    Total Energy =                       -270.0191191080796784
  Basis Set: 6-31G*
  Basis Set:
  Basis Set: 6-31G*
  Basis Set:
  @DF-RHF Final Energy:  -270.01821842012896
    Total Energy =                       -270.0182184201290738
  Basis Set: 6-31G*
  Basis Set:
  Basis Set: 6-31G*
  Basis Set:
  @DF-RHF Final Energy:  -270.01923746291931
    Total Energy =                       -270.0192374629193637
  Basis Set: 6-31G*
  Basis Set:
  Basis Set: 6-31G*
  Basis Set:
  @DF-RHF Final Energy:  -270.01923677866057
    Total Energy =                       -270.0192367786606837
  Basis Set: 6-31G*
  Basis Set:
  Basis Set: 6-31G*
  Basis Set:
  @DF-RHF Final Energy:  -270.01926360209529
    Total Energy =                       -270.0192636020952364
  Basis Set: 6-31G*
  Basis Set:
  Basis Set: 6-31G*
  Basis Set:
  @DF-RHF Final Energy:  -270.01926714532942
    Total Energy =                       -270.0192671453295361
  Basis Set: 6-31G*
  Basis Set:
  Charge       = 0
  Multiplicity = 1
  Basis Set: 6-31G*
  Basis Set:

    Orbital Energies (a.u.)
    -----------------------

    Doubly Occupied:

       1A    -20.562387     2A    -11.326393     3A    -11.236754
       4A    -11.235058     5A    -11.229409     6A    -11.218443
       7A     -1.402145     8A     -1.096315     9A     -1.018781
      10A     -0.905723    11A     -0.811944    12A     -0.793322
      13A     -0.679248    14A     -0.645298    15A     -0.630797
      16A     -0.605064    17A     -0.580805    18A     -0.548676
      19A     -0.530294    20A     -0.507441    21A     -0.487720
      22A     -0.482498    23A     -0.478089    24A     -0.408808

  @DF-RHF Final Energy:  -270.01926723079373

   => Energetics <=

    Nuclear Repulsion Energy =            228.8356542021454345
    One-Electron Energy =                -818.8670198489701306
    Two-Electron Energy =                 320.0120984160309945
    DFT Exchange-Correlation Energy =       0.0000000000000000
    Empirical Dispersion Energy =           0.0000000000000000
    PCM Polarization Energy =               0.0000000000000000
    EFP Energy =                            0.0000000000000000
    Total Energy =                       -270.0192672307937301
    Molecular point group: c1
  Basis Set: 6-31G*
  Basis Set:

  -Total Gradient:
     Atom            X                  Y                   Z
    ------   -----------------  -----------------  -----------------
       1        0.000004030800    -0.000007138338    -0.000006549280
       2        0.000008493321     0.000014833561     0.000005423934
       3       -0.000024188795    -0.000018619208    -0.000024235274
       4       -0.000000255054    -0.000003887643     0.000007928240
       5       -0.002030423714    -0.003093415913     0.000622075324
       6        0.000002017585     0.000004576228     0.000002285914
       7        0.000008082657     0.000002320540     0.000000729459
       8        0.001693511095     0.002910078318     0.001631019007
       9        0.001432710372     0.002152674146    -0.000763994351
      10        0.000002292283    -0.000007878369     0.000006862457
      11        0.000006144635     0.000001772953     0.000001563591
      12       -0.001105795733    -0.001951226836    -0.001488351096
      13       -0.000000216294    -0.000006117124     0.000003180161
      14        0.000001598423     0.000002379036     0.000001365564
      15        0.000002879364     0.000001531553    -0.000000603294
      16       -0.000000880941    -0.000001882905     0.000001299645

  **** Optimization is complete! (in 8 steps) ****
    Final optimized geometry and variables:
    Molecular point group: c1

    Geometry (in Angstrom), charge = 0, multiplicity = 1:

    H            1.861974029809    -1.108280565212     1.147108692710
    C            1.916885259674    -0.269672132923     0.442553656213
    C            0.657965084668     0.549187830344     0.320846844462
    O            2.918859412583    -0.063411470716    -0.162244141827
    C           -0.551144800683    -0.313622268747    -0.068716576949
    H            0.832355644898     1.334949688279    -0.405036688759
    H            0.471407303028     1.017620762305     1.286359153262
    C           -1.839273744254     0.504981499065    -0.191140478798
    H           -0.339905968017    -0.792504783804    -1.021814123150
    H           -0.685217691756    -1.104898323711     0.665694143316
    C           -3.085057150410    -0.373814236666    -0.308269237880
    H           -1.774929049676     1.136891278202    -1.073157329784
    H           -1.940025348387     1.164423671223     0.667210363834
    H           -3.017402801148    -1.036977048996    -1.165943597765
    H           -3.979361095619     0.229482734281    -0.427153401326
    H           -3.216062934913    -0.990006376259     0.576568526458

  Mulliken Charges: (a.u.)
   Center  Symbol    Alpha    Beta     Spin     Total
       1     H     0.43217  0.43217  0.00000  0.13566
       2     C     2.82999  2.82999  0.00000  0.34001
       3     C     3.20837  3.20837  0.00000 -0.41674
       4     O     4.23713  4.23713  0.00000 -0.47426
       5     C     3.16453  3.16453  0.00000 -0.32905
       6     H     0.39942  0.39942  0.00000  0.20116
       7     H     0.40991  0.40991  0.00000  0.18018
       8     C     3.15177  3.15177  0.00000 -0.30354
       9     H     0.41227  0.41227  0.00000  0.17545
      10     H     0.41897  0.41897  0.00000  0.16206
      11     C     3.24066  3.24066  0.00000 -0.48132
      12     H     0.41746  0.41746  0.00000  0.16508
      13     H     0.42044  0.42044  0.00000  0.15912
      14     H     0.41954  0.41954  0.00000  0.16091
      15     H     0.41663  0.41663  0.00000  0.16673
      16     H     0.42073  0.42073  0.00000  0.15854

   Total alpha = 24.00000, Total beta = 24.00000, Total charge = -0.00000
