  ==> Input File <==

--------------------------------------------------------------------------
set {
	reference rhf
	basis 6-31G*
}

set_num_threads( 4 )
memory 2 gb

molecule MOL {
0 1

H	 -2.646374	 -0.642757	 1.268656
C	 -2.083525	 -0.384536	 0.393091
O	 -0.807605	 -0.127164	 0.768327
F	 -2.118945	 -1.383102	 -0.486752
F	 -2.621877	 0.670592	 -0.209486
C	 0.084052	 0.273579	 -0.209957
C	 1.353033	 -0.546803	 -0.018071
Cl	 0.433844	 2.004619	 -0.074457
H	 -0.288836	 0.092657	 -1.202930
F	 1.510705	 -1.389674	 -1.016493
F	 1.242331	 -1.245781	 1.093960
F	 2.421229	 0.207593	 0.070348

	symmetry c1
}
set optking {
	frozen_dihedral = ("
		10 7 6 9
	")
}

ee = optimize('scf')
oeprop('DIPOLE', 'QUADRUPOLE', 'MULLIKEN_CHARGES')
f=open( 'psi4out.xyz', 'w' )
f.write( "12  " )
f.write( str(ee) + "\n" )
f.write( MOL.save_string_xyz() )
f.close()
--------------------------------------------------------------------------

    Molecular point group: c1
  Charge       = 0
  Multiplicity = 1
  Basis Set: 6-31G*
  Basis Set:
  @DF-RHF Final Energy: -1146.30262334321924
    Total Energy =                      -1146.3026233432206027
    Molecular point group: c1
  Basis Set: 6-31G*
  Basis Set:
  Basis Set: 6-31G*
  Basis Set:
  @DF-RHF Final Energy: -1146.30274473769623
    Total Energy =                      -1146.3027447376962300
  Basis Set: 6-31G*
  Basis Set:
  Basis Set: 6-31G*
  Basis Set:
  @DF-RHF Final Energy: -1146.30528726718990
    Total Energy =                      -1146.3052872671887599
  Basis Set: 6-31G*
  Basis Set:
  Basis Set: 6-31G*
  Basis Set:
  @DF-RHF Final Energy: -1146.30540341250071
    Total Energy =                      -1146.3054034125007092
  Basis Set: 6-31G*
  Basis Set:
  Basis Set: 6-31G*
  Basis Set:
  @DF-RHF Final Energy: -1146.30541538180023
    Total Energy =                      -1146.3054153818011400
  Basis Set: 6-31G*
  Basis Set:
  Basis Set: 6-31G*
  Basis Set:
  @DF-RHF Final Energy: -1146.30541711751698
    Total Energy =                      -1146.3054171175181182
  Basis Set: 6-31G*
  Basis Set:
  Charge       = 0
  Multiplicity = 1
  Basis Set: 6-31G*
  Basis Set:

    Orbital Energies (a.u.)
    -----------------------

    Doubly Occupied:

       1A   -104.843484     2A    -26.358270     3A    -26.357507
       4A    -26.357287     5A    -26.345810     6A    -26.345714
       7A    -20.647223     8A    -11.529782     9A    -11.488715
      10A    -11.401712    11A    -10.578088    12A     -8.047443
      13A     -8.043892    14A     -8.043818    15A     -1.761468
      16A     -1.717096    17A     -1.657097    18A     -1.654548
      19A     -1.637863    20A     -1.484158    21A     -1.176825
      22A     -1.048237    23A     -0.985878    24A     -0.918766
      25A     -0.857354    26A     -0.851519    27A     -0.844603
      28A     -0.824627    29A     -0.811567    30A     -0.791149
      31A     -0.725332    32A     -0.724015    33A     -0.704364
      34A     -0.701809    35A     -0.677022    36A     -0.673942
      37A     -0.657888    38A     -0.656130    39A     -0.646429
      40A     -0.629926    41A     -0.596219    42A     -0.578591
      43A     -0.522375    44A     -0.474933    45A     -0.468261

  @DF-RHF Final Energy: -1146.30541743447930

   => Energetics <=

    Nuclear Repulsion Energy =            735.1322846669351065
    One-Electron Energy =               -3053.1779332414917008
    Two-Electron Energy =                1171.7402311400774124
    DFT Exchange-Correlation Energy =       0.0000000000000000
    Empirical Dispersion Energy =           0.0000000000000000
    PCM Polarization Energy =               0.0000000000000000
    EFP Energy =                            0.0000000000000000
    Total Energy =                      -1146.3054174344792955
    Molecular point group: c1
  Basis Set: 6-31G*
  Basis Set:

  -Total Gradient:
     Atom            X                  Y                   Z
    ------   -----------------  -----------------  -----------------
       1        0.000003513457     0.000000221491     0.000003114985
       2       -0.000061389854    -0.000029623183     0.000032954088
       3        0.000025306301     0.000013235212    -0.000031631977
       4        0.000016438388     0.000047400041     0.000000342561
       5        0.000020416148    -0.000035584910    -0.000009751871
       6        0.002677716550     0.003657445369    -0.001886674375
       7       -0.002252524035    -0.002999242175     0.002142280272
       8        0.000023572824     0.000054656531     0.000004642710
       9       -0.001903042245    -0.002644255405     0.001238141826
      10        0.001460635477     0.001908813562    -0.001508384212
      11        0.000005371326     0.000021765450    -0.000010636962
      12       -0.000016014372     0.000005167976     0.000025602960

  **** Optimization is complete! (in 7 steps) ****
    Final optimized geometry and variables:
    Molecular point group: c1

    Geometry (in Angstrom), charge = 0, multiplicity = 1:

    H           -2.678721937590    -0.627192906034     1.233675247127
    C           -2.092814908685    -0.377677250941     0.370838266187
    O           -0.831537649548    -0.103245587880     0.778236140875
    F           -2.092054355934    -1.393221884392    -0.492009028196
    F           -2.626191897495     0.659311588694    -0.266650319603
    C            0.083804832917     0.293833323518    -0.182731279392
    C            1.368228057831    -0.556705844523    -0.003826923631
    CL           0.391132634962     2.031124771695    -0.048910378950
    H           -0.294486233270     0.099785406802    -1.169828044226
    F            1.452930565417    -1.393494492141    -1.024756326899
    F            1.344284210599    -1.257657356677     1.102068373416
    F            2.463644029122     0.166024939496    -0.003614913956

  Mulliken Charges: (a.u.)
   Center  Symbol    Alpha    Beta     Spin     Total
       1     H     0.40118  0.40118  0.00000  0.19764
       2     C     2.56676  2.56676  0.00000  0.86648
       3     O     4.29394  4.29394  0.00000 -0.58789
       4     F     4.68749  4.68749  0.00000 -0.37497
       5     F     4.68437  4.68437  0.00000 -0.36874
       6     C     3.07142  3.07142  0.00000 -0.14284
       7     C     2.42436  2.42436  0.00000  1.15128
       8    CL     8.49400  8.49400  0.00000  0.01200
       9     H     0.36256  0.36256  0.00000  0.27489
      10     F     4.67932  4.67932  0.00000 -0.35864
      11     F     4.66608  4.66608  0.00000 -0.33215
      12     F     4.66853  4.66853  0.00000 -0.33706

   Total alpha = 45.00000, Total beta = 45.00000, Total charge =  0.00000
