  ==> Input File <==

--------------------------------------------------------------------------
set {
	reference rhf
	basis cc-pvtz
}

set_num_threads( 4 )
memory 2 gb

molecule MOL {
0 1

H	 3.083659	 -1.378387	 0.000000
O	 2.179005	 -1.633391	 0.000000
C	 1.366950	 -0.558201	 0.000000
C	 1.730752	 0.644615	 -0.586141
C	 0.135807	 -0.682803	 0.610560
H	 2.690197	 0.739930	 -1.061336
C	 0.864091	 1.718486	 -0.560525
H	 -0.148091	 -1.610441	 1.064137
C	 -0.726642	 0.398447	 0.631669
H	 1.156333	 2.644130	 -1.017253
C	 -0.369316	 1.602081	 0.048226
C	 -2.055690	 0.277284	 1.286138
H	 -1.045345	 2.435394	 0.069721
O	 -2.460909	 -0.701150	 1.813285
H	 -2.666627	 1.184579	 1.251902

	symmetry c1
}
set optking {
	frozen_dihedral = ("
		4 3 2 1
	")
}

ee = optimize('scf')
oeprop('DIPOLE', 'QUADRUPOLE', 'MULLIKEN_CHARGES')
f=open( 'psi4out.xyz', 'w' )
f.write( "15  " )
f.write( str(ee) + "\n" )
f.write( MOL.save_string_xyz() )
f.close()
--------------------------------------------------------------------------

    Molecular point group: c1
  Charge       = 0
  Multiplicity = 1
  Basis Set: CC-PVTZ
  Basis Set:
  @DF-RHF Final Energy:  -418.43777790617622
    Total Energy =                       -418.4377779061755973
    Molecular point group: c1
  Basis Set: CC-PVTZ
  Basis Set:
  Basis Set: CC-PVTZ
  Basis Set:
  @DF-RHF Final Energy:  -418.43784881096872
    Total Energy =                       -418.4378488109687169
  Basis Set: CC-PVTZ
  Basis Set:
  Basis Set: CC-PVTZ
  Basis Set:
  @DF-RHF Final Energy:  -418.43791389127119
    Total Energy =                       -418.4379138912709095
  Basis Set: CC-PVTZ
  Basis Set:
  Basis Set: CC-PVTZ
  Basis Set:
  @DF-RHF Final Energy:  -418.43792464672742
    Total Energy =                       -418.4379246467274243
  Basis Set: CC-PVTZ
  Basis Set:
  Basis Set: CC-PVTZ
  Basis Set:
  @DF-RHF Final Energy:  -418.43793195222656
    Total Energy =                       -418.4379319522262222
  Basis Set: CC-PVTZ
  Basis Set:
  Basis Set: CC-PVTZ
  Basis Set:
  @DF-RHF Final Energy:  -418.43793309595731
    Total Energy =                       -418.4379330959571917
  Basis Set: CC-PVTZ
  Basis Set:
  Charge       = 0
  Multiplicity = 1
  Basis Set: CC-PVTZ
  Basis Set:

    Orbital Energies (a.u.)
    -----------------------

    Doubly Occupied:

       1A    -20.592373     2A    -20.554408     3A    -11.327641
       4A    -11.309696     5A    -11.250811     6A    -11.250576
       7A    -11.247886     8A    -11.244860     9A    -11.238082
      10A     -1.423155    11A     -1.410196    12A     -1.174529
      13A     -1.052195    14A     -1.030886    15A     -0.901955
      16A     -0.849831    17A     -0.814918    18A     -0.740934
      19A     -0.705313    20A     -0.689838    21A     -0.645136
      22A     -0.641275    23A     -0.618596    24A     -0.610868
      25A     -0.568793    26A     -0.555776    27A     -0.545030
      28A     -0.514506    29A     -0.492704    30A     -0.426862
      31A     -0.358029    32A     -0.334258

  @DF-RHF Final Energy:  -418.43793314821278

   => Energetics <=

    Nuclear Repulsion Energy =            403.9585704293151593
    One-Electron Energy =               -1370.5491735230607446
    Two-Electron Energy =                 548.1526699455325797
    DFT Exchange-Correlation Energy =       0.0000000000000000
    Empirical Dispersion Energy =           0.0000000000000000
    PCM Polarization Energy =               0.0000000000000000
    EFP Energy =                            0.0000000000000000
    Total Energy =                       -418.4379331482130056
    Molecular point group: c1
  Basis Set: CC-PVTZ
  Basis Set:

  -Total Gradient:
     Atom            X                  Y                   Z
    ------   -----------------  -----------------  -----------------
       1        0.000066083536    -0.000003715211     0.002006612347
       2       -0.000425037768    -0.000246369963    -0.003194644220
       3        0.001014558725     0.000714373262     0.002438805509
       4       -0.000633192486    -0.000479640478    -0.001272572833
       5       -0.000026125462     0.000010795267     0.000013173266
       6       -0.000003900069     0.000000479568    -0.000004215089
       7       -0.000014767283     0.000027723232     0.000049007461
       8        0.000001177871    -0.000002081201    -0.000003702543
       9        0.000010471539    -0.000027743521     0.000022161088
      10       -0.000000013027    -0.000001750264    -0.000004521131
      11        0.000009292139     0.000005797138    -0.000056426927
      12        0.000006215551     0.000006916276     0.000013032901
      13       -0.000001043057    -0.000000951242     0.000001647524
      14       -0.000002650827    -0.000002648855    -0.000004950728
      15       -0.000001069388    -0.000001184009    -0.000003406627

  **** Optimization is complete! (in 7 steps) ****
    Final optimized geometry and variables:
    Molecular point group: c1

    Geometry (in Angstrom), charge = 0, multiplicity = 1:

    H            3.004577327006    -1.446606499030    -0.420533771325
    O            2.099080837038    -1.698236140825    -0.391589670764
    C            1.290868567461    -0.615241771063    -0.362617954296
    C            1.651126155589     0.583712173747    -0.961096338946
    C            0.058236920894    -0.741700228765     0.239793805473
    H            2.605996068365     0.670307588118    -1.446230137966
    C            0.785776924521     1.657301583226    -0.937696633723
    H           -0.225082377511    -1.668179245836     0.696261543425
    C           -0.810637794979     0.337031393916     0.249310084446
    H            1.075473347152     2.581551103179    -1.398820549989
    C           -0.451484444022     1.538670570742    -0.333860118463
    C           -2.142704639650     0.214782285509     0.896639051625
    H           -1.129492463623     2.370720593463    -0.318793498884
    O           -2.547311413764    -0.761980564314     1.427235911919
    H           -2.756392453805     1.120102116829     0.853302938721

  Mulliken Charges: (a.u.)
   Center  Symbol    Alpha    Beta     Spin     Total
       1     H     0.38600  0.38600  0.00000  0.22801
       2     O     4.17475  4.17475  0.00000 -0.34949
       3     C     2.84974  2.84974  0.00000  0.30053
       4     C     3.12067  3.12067  0.00000 -0.24134
       5     C     3.11856  3.11856  0.00000 -0.23711
       6     H     0.42672  0.42672  0.00000  0.14657
       7     C     3.06405  3.06405  0.00000 -0.12809
       8     H     0.40387  0.40387  0.00000  0.19226
       9     C     2.97195  2.97195  0.00000  0.05611
      10     H     0.41932  0.41932  0.00000  0.16136
      11     C     3.10671  3.10671  0.00000 -0.21341
      12     C     2.90904  2.90904  0.00000  0.18192
      13     H     0.42302  0.42302  0.00000  0.15396
      14     O     4.16909  4.16909  0.00000 -0.33818
      15     H     0.45654  0.45654  0.00000  0.08691

   Total alpha = 32.00000, Total beta = 32.00000, Total charge = -0.00000
