                              Psi4 1.0.54 Driver

  ==> Input File <==

--------------------------------------------------------------------------
set {
	reference rhf
	basis cc-pvtz
}

set_num_threads( 4 )
memory 2 gb

molecule MOL {
0 1

H	 1.562451	 -1.804569	 -0.995178
C	 0.688304	 -2.358606	 -0.628348
C	 -0.614159	 -1.609938	 -0.690671
O	 0.815462	 -3.460763	 -0.220041
C	 -0.554654	 -0.292621	 0.086567
H	 -1.398330	 -2.254088	 -0.315193
H	 -0.820031	 -1.401689	 -1.738587
C	 -1.846385	 0.513195	 -0.016346
H	 -0.343156	 -0.503659	 1.130918
H	 0.273510	 0.308475	 -0.280177
C	 -3.089953	 -0.365049	 -0.098564
H	 -1.798267	 1.154820	 -0.891143
H	 -1.925398	 1.173265	 0.842889
H	 -3.055079	 -1.012299	 -0.968245
H	 -3.988403	 0.236438	 -0.170014
H	 -3.183055	 -0.995885	 0.779079

	symmetry c1
}
set optking {
	frozen_dihedral = ("
		9 5 8 12
	")
}

ee,wfn = optimize('scf', return_wfn=True)
oeprop( wfn, 'DIPOLE', 'QUADRUPOLE', 'MULLIKEN_CHARGES')
f=open( 'psi4out.xyz', 'w' )
f.write( "16  " )
f.write( str(ee) + "\n" )
f.write( MOL.save_string_xyz() )
f.close()
--------------------------------------------------------------------------

    Molecular point group: c1
  Charge       = 0
  Multiplicity = 1
  Basis Set: CC-PVTZ
  Basis Set:
  @DF-RHF Final Energy:  -270.11216899582126
    Total Energy =                       -270.1121689958213210
    Molecular point group: c1
  Basis Set: CC-PVTZ
  Basis Set:
  Basis Set: CC-PVTZ
  Basis Set:
  @DF-RHF Final Energy:  -270.11285462598892
    Total Energy =                       -270.1128546259888026
  Basis Set: CC-PVTZ
  Basis Set:
  Basis Set: CC-PVTZ
  Basis Set:
  @DF-RHF Final Energy:  -270.11471493659667
    Total Energy =                       -270.1147149365968403
  Basis Set: CC-PVTZ
  Basis Set:
  Basis Set: CC-PVTZ
  Basis Set:
  @DF-RHF Final Energy:  -270.11455997513190
    Total Energy =                       -270.1145599751317832
  Basis Set: CC-PVTZ
  Basis Set:
  Basis Set: CC-PVTZ
  Basis Set:
  @DF-RHF Final Energy:  -270.11470316786915
    Total Energy =                       -270.1147031678690951
  Basis Set: CC-PVTZ
  Basis Set:
  Basis Set: CC-PVTZ
  Basis Set:
  @DF-RHF Final Energy:  -270.11483604740192
    Total Energy =                       -270.1148360474016954
  Basis Set: CC-PVTZ
  Basis Set:
  Basis Set: CC-PVTZ
  Basis Set:
  @DF-RHF Final Energy:  -270.11484018393151
    Total Energy =                       -270.1148401839316193
  Basis Set: CC-PVTZ
  Basis Set:
  Charge       = 0
  Multiplicity = 1
  Basis Set: CC-PVTZ
  Basis Set:

    Orbital Energies (a.u.)
    -----------------------

    Doubly Occupied:

       1A    -20.552126     2A    -11.321228     3A    -11.234826
       4A    -11.233822     5A    -11.227734     6A    -11.216656
       7A     -1.406918     8A     -1.096302     9A     -1.016308
      10A     -0.916311    11A     -0.811441    12A     -0.787349
      13A     -0.681770    14A     -0.646806    15A     -0.635089
      16A     -0.599450    17A     -0.580557    18A     -0.560190
      19A     -0.539456    20A     -0.511427    21A     -0.487775
      22A     -0.478914    23A     -0.469972    24A     -0.412342

  @DF-RHF Final Energy:  -270.11484108436343

   => Energetics <=

    Nuclear Repulsion Energy =            232.6347993205939986
    One-Electron Energy =                -826.6497403319394834
    Two-Electron Energy =                 323.9000999269817385
    DFT Exchange-Correlation Energy =       0.0000000000000000
    Empirical Dispersion Energy =           0.0000000000000000
    PCM Polarization Energy =               0.0000000000000000
    EFP Energy =                            0.0000000000000000
    Total Energy =                       -270.1148410843637748
    Molecular point group: c1
  Basis Set: CC-PVTZ
  Basis Set:

  -Total Gradient:
     Atom            X                  Y                   Z
    ------   -----------------  -----------------  -----------------
       1        0.000002016307    -0.000025527059     0.000020493476
       2       -0.000024807666     0.000014284365    -0.000019879178
       3        0.000019085057     0.000032386774     0.000015987064
       4        0.000026986796    -0.000013565382    -0.000015871122
       5       -0.003266959904    -0.004798223193     0.000153851903
       6        0.000018433038    -0.000003064436    -0.000005322629
       7       -0.000011498898    -0.000029124519    -0.000010955197
       8       -0.002104080739    -0.003811694175    -0.003734148301
       9        0.003047481329     0.004642007941     0.000435404981
      10        0.000004678866    -0.000011287819     0.000019607212
      11       -0.000006564470     0.000022314304     0.000015911800
      12        0.002287873369     0.003985506374     0.003126348597
      13       -0.000021324831    -0.000000739520    -0.000017647060
      14        0.000018535526     0.000015874302     0.000022012433
      15        0.000029320376    -0.000021171559    -0.000004591525
      16       -0.000019174155     0.000002023598    -0.000001202452

  **** Optimization is complete! (in 8 steps) ****
    Final optimized geometry and variables:
    Molecular point group: c1

    Geometry (in Angstrom), charge = 0, multiplicity = 1:

    H            2.375448546252    -0.446126400277    -0.704050418446
    C            1.530220690648    -1.057127087619    -0.360935828041
    C            0.184396998689    -0.390698679044    -0.442902500832
    O            1.717096789980    -2.153576705920     0.039505876822
    C            0.155137866284     0.906567404305     0.368182559818
    H           -0.562816783945    -1.096247497883    -0.109635242241
    H           -0.002756803567    -0.166523222970    -1.491461208440
    C           -1.111209451024     1.760261654066     0.205368042365
    H            0.322583107065     0.697637083859     1.420291967151
    H            1.003487896713     1.518303535537     0.071459009889
    C           -2.431252346561     0.998260831793     0.172926323372
    H           -1.009701375888     2.391065631588    -0.672626944519
    H           -1.137655556028     2.456563261280     1.038196855878
    H           -2.511043343399     0.357357952881    -0.696640509904
    H           -3.265021713470     1.689567323788     0.145866052328
    H           -2.547469435931     0.376643402229     1.054605906791

  Mulliken Charges: (a.u.)
   Center  Symbol    Alpha    Beta     Spin     Total
       1     H     0.46431  0.46431  0.00000  0.07139
       2     C     2.91246  2.91246  0.00000  0.17508
       3     C     3.08116  3.08116  0.00000 -0.16232
       4     O     4.16307  4.16307  0.00000 -0.32614
       5     C     3.10832  3.10832  0.00000 -0.21665
       6     H     0.44041  0.44041  0.00000  0.11918
       7     H     0.44834  0.44834  0.00000  0.10332
       8     C     3.08986  3.08986  0.00000 -0.17971
       9     H     0.44292  0.44292  0.00000  0.11415
      10     H     0.44924  0.44924  0.00000  0.10151
      11     C     3.15480  3.15480  0.00000 -0.30961
      12     H     0.45085  0.45085  0.00000  0.09829
      13     H     0.44852  0.44852  0.00000  0.10296
      14     H     0.45173  0.45173  0.00000  0.09654
      15     H     0.44343  0.44343  0.00000  0.11313
      16     H     0.45056  0.45056  0.00000  0.09888

   Total alpha = 24.00000, Total beta = 24.00000, Total charge = -0.00000

*** Psi4 exiting successfully. Buy a developer a beer!
