  ==> Input File <==

--------------------------------------------------------------------------
set {
	reference rhf
	basis 6-31G*
}

set_num_threads( 4 )
memory 2 gb

molecule MOL {
0 1

H	 -3.261111	 -0.295142	 1.469456
C	 -3.306842	 -0.277400	 0.373456
C	 -2.660244	 0.921717	 -0.272021
O	 -3.838538	 -1.161155	 -0.216482
C	 -3.595575	 2.137710	 -0.324673
H	 -1.744645	 1.145995	 0.262850
H	 -2.391531	 0.632407	 -1.287279
C	 -3.927357	 2.712723	 1.054668
H	 -3.126975	 2.905937	 -0.932560
H	 -4.515376	 1.863962	 -0.839244
C	 -4.850785	 3.930676	 0.986218
H	 -3.002363	 2.986062	 1.558176
H	 -4.390729	 1.945837	 1.672495
C	 -5.167571	 4.512911	 2.366290
H	 -4.387704	 4.688823	 0.359720
H	 -5.780469	 3.650930	 0.492443
C	 -6.155759	 5.684839	 2.354497
H	 -4.241990	 4.828900	 2.844981
H	 -5.577340	 3.722483	 2.991610
C	 -5.635882	 6.947772	 1.665767
H	 -6.410336	 5.929135	 3.382825
H	 -7.082724	 5.369615	 1.879849
H	 -4.700051	 7.277153	 2.109611
H	 -5.462560	 6.791031	 0.606350
H	 -6.350021	 7.760091	 1.761356

	symmetry c1
}
set optking {
	frozen_dihedral = ("
		6 3 2 4
	")
}

ee = optimize('scf')
oeprop('DIPOLE', 'QUADRUPOLE', 'MULLIKEN_CHARGES')
f=open( 'psi4out.xyz', 'w' )
f.write( "25  " )
f.write( str(ee) + "\n" )
f.write( MOL.save_string_xyz() )
f.close()
--------------------------------------------------------------------------

    Molecular point group: c1
  Charge       = 0
  Multiplicity = 1
  Basis Set: 6-31G*
  Basis Set:
  @DF-RHF Final Energy:  -387.11992157354632
    Total Energy =                       -387.1199215735467760
    Molecular point group: c1
  Basis Set: 6-31G*
  Basis Set:
  Basis Set: 6-31G*
  Basis Set:
  @DF-RHF Final Energy:  -387.12022281246925
    Total Energy =                       -387.1202228124692510
  Basis Set: 6-31G*
  Basis Set:
  Basis Set: 6-31G*
  Basis Set:
  @DF-RHF Final Energy:  -387.11925495700416
    Total Energy =                       -387.1192549570041592
  Basis Set: 6-31G*
  Basis Set:
  Basis Set: 6-31G*
  Basis Set:
  @DF-RHF Final Energy:  -387.12031388151473
    Total Energy =                       -387.1203138815146758
  Basis Set: 6-31G*
  Basis Set:
  @DF-RHF Final Energy:  -387.12019326008487
    Total Energy =                       -387.1201932600852160
  @DF-RHF Final Energy:  -387.12031680466032
    Total Energy =                       -387.1203168046607743
  Basis Set: 6-31G*
  Basis Set:
  @DF-RHF Final Energy:  -387.12032583620874
    Total Energy =                       -387.1203258362086217
  Basis Set: 6-31G*
  Basis Set:
  Basis Set: 6-31G*
  Basis Set:
  @DF-RHF Final Energy:  -387.12032469890153
    Total Energy =                       -387.1203246989020954
  Basis Set: 6-31G*
  Basis Set:
  Basis Set: 6-31G*
  Basis Set:
  @DF-RHF Final Energy:  -387.12032664463766
    Total Energy =                       -387.1203266446372027
  Basis Set: 6-31G*
  Basis Set:
  Charge       = 0
  Multiplicity = 1
  Basis Set: 6-31G*
  Basis Set:

    Orbital Energies (a.u.)
    -----------------------

    Doubly Occupied:

       1A    -20.561567     2A    -11.325111     3A    -11.234917
       4A    -11.233868     5A    -11.227272     6A    -11.221294
       7A    -11.219466     8A    -11.218872     9A    -11.211699
      10A     -1.401144    11A     -1.104183    12A     -1.069317
      13A     -1.013510    14A     -0.943089    15A     -0.877178
      16A     -0.827698    17A     -0.783574    18A     -0.775597
      19A     -0.681820    20A     -0.657059    21A     -0.632378
      22A     -0.620819    23A     -0.598086    24A     -0.592742
      25A     -0.577936    26A     -0.553344    27A     -0.540526
      28A     -0.520523    29A     -0.511086    30A     -0.498866
      31A     -0.488706    32A     -0.480187    33A     -0.466350
      34A     -0.460645    35A     -0.442743    36A     -0.407576

  @DF-RHF Final Energy:  -387.12032710953036

   => Energetics <=

    Nuclear Repulsion Energy =            438.1093508201385589
    One-Electron Energy =               -1392.4978584231487275
    Two-Electron Energy =                 567.2681804934800311
    DFT Exchange-Correlation Energy =       0.0000000000000000
    Empirical Dispersion Energy =           0.0000000000000000
    PCM Polarization Energy =               0.0000000000000000
    EFP Energy =                            0.0000000000000000
    Total Energy =                       -387.1203271095300806
    Molecular point group: c1
  Basis Set: 6-31G*
  Basis Set:

  -Total Gradient:
     Atom            X                  Y                   Z
    ------   -----------------  -----------------  -----------------
       1        0.000021868056    -0.000041290417     0.000007145102
       2        0.000011076690     0.000004900454     0.000027527815
       3        0.000031551436    -0.000092535768    -0.000159135722
       4       -0.000052386159     0.000032987771     0.000017419922
       5        0.000000753125     0.000010052701     0.000024930506
       6       -0.000043029405     0.000085197716     0.000057228196
       7        0.000004709674     0.000009172409     0.000017941277
       8        0.000017110603     0.000023884293     0.000007668574
       9        0.000016308780     0.000004467794     0.000001694409
      10        0.000018679086    -0.000010430646     0.000000895472
      11       -0.000034951850    -0.000025631676    -0.000001643039
      12        0.000013049834     0.000008670856     0.000015065015
      13       -0.000008905996    -0.000002613458    -0.000018431335
      14        0.000007958001     0.000006656089     0.000006171814
      15       -0.000007368607     0.000001269312    -0.000003634310
      16       -0.000010502725    -0.000007771105    -0.000002168449
      17        0.000013507002     0.000006967018     0.000000488453
      18        0.000002911396    -0.000009081155     0.000009743050
      19       -0.000011013721     0.000007717449    -0.000005199284
      20       -0.000000890808     0.000000081238     0.000002222522
      21        0.000002783422    -0.000000014713     0.000000080520
      22        0.000003363015    -0.000003879354     0.000000402544
      23       -0.000000218613    -0.000000269953    -0.000000617447
      24        0.000002300228    -0.000009217224    -0.000005379322
      25        0.000001337537     0.000000710371    -0.000000416284

  **** Optimization is complete! (in 10 steps) ****
    Final optimized geometry and variables:
    Molecular point group: c1

    Geometry (in Angstrom), charge = 0, multiplicity = 1:

    H            1.139430182155    -3.107875663749     0.590917778499
    C            1.099963475890    -3.102922020121    -0.503192025954
    C            1.686998344308    -1.893532801814    -1.189061424761
    O            0.599367218192    -4.012657720669    -1.082890597145
    C            0.714962983235    -0.698866229073    -1.205389515121
    H            2.605769147561    -1.608692071944    -0.681443764779
    H            1.930594596641    -2.180508909907    -2.205232910572
    C            0.384477377743    -0.125179052458     0.175762265596
    H            1.159089511406     0.081428600074    -1.817111237067
    H           -0.200465028138    -1.000404531127    -1.707468920167
    C           -0.515814578166     1.110066536421     0.101041928729
    H            1.309275884428     0.133753429552     0.688899124532
    H           -0.103970437981    -0.880679130775     0.787626425970
    C           -0.845148681841     1.689611884139     1.479301651427
    H           -0.029327765361     1.863044524058    -0.513546773764
    H           -1.441464179571     0.848578218121    -0.409045452423
    C           -1.812064798476     2.879016906623     1.458339262457
    H            0.077742242223     1.987211587534     1.974870416334
    H           -1.279232018970     0.903238988536     2.093363782399
    C           -1.259731060017     4.135555828860     0.782870578476
    H           -2.078244280052     3.122986796927     2.483759181599
    H           -2.736750459561     2.581600772380     0.968096538444
    H           -0.327169402657     4.449006186282     1.244584824601
    H           -1.069978166372     3.979486597693    -0.273896067977
    H           -1.962314075650     4.958704958968     0.868271970131

  Mulliken Charges: (a.u.)
   Center  Symbol    Alpha    Beta     Spin     Total
       1     H     0.42931  0.42931  0.00000  0.14137
       2     C     2.83646  2.83646  0.00000  0.32707
       3     C     3.20454  3.20454  0.00000 -0.40908
       4     O     4.23749  4.23749  0.00000 -0.47499
       5     C     3.16281  3.16281  0.00000 -0.32562
       6     H     0.41459  0.41459  0.00000  0.17081
       7     H     0.39868  0.39868  0.00000  0.20263
       8     C     3.15737  3.15737  0.00000 -0.31473
       9     H     0.41381  0.41381  0.00000  0.17239
      10     H     0.41007  0.41007  0.00000  0.17987
      11     C     3.15419  3.15419  0.00000 -0.30839
      12     H     0.42198  0.42198  0.00000  0.15605
      13     H     0.42107  0.42107  0.00000  0.15786
      14     C     3.15309  3.15309  0.00000 -0.30618
      15     H     0.42028  0.42028  0.00000  0.15945
      16     H     0.42129  0.42129  0.00000  0.15741
      17     C     3.15278  3.15278  0.00000 -0.30557
      18     H     0.42403  0.42403  0.00000  0.15194
      19     H     0.42147  0.42147  0.00000  0.15705
      20     C     3.24150  3.24150  0.00000 -0.48300
      21     H     0.42010  0.42010  0.00000  0.15980
      22     H     0.42238  0.42238  0.00000  0.15523
      23     H     0.42223  0.42223  0.00000  0.15554
      24     H     0.42016  0.42016  0.00000  0.15969
      25     H     0.41830  0.41830  0.00000  0.16341

   Total alpha = 36.00000, Total beta = 36.00000, Total charge = -0.00000
