  ==> Input File <==

--------------------------------------------------------------------------
set {
	reference rhf
	basis 6-31G*
}

set_num_threads( 4 )
memory 2 gb

molecule MOL {
0 1

H	 -1.768848	 1.138977	 0.147432
N	 -1.852125	 0.165761	 -0.074816
C	 -0.563778	 -0.502042	 0.037919
H	 -2.194750	 0.111711	 -1.015264
C	 0.575259	 0.508231	 -0.048326
H	 -0.482092	 -1.204004	 -0.786564
H	 -0.460411	 -1.085169	 0.956626
C	 1.954651	 -0.143624	 0.035137
H	 0.475158	 1.060484	 -0.977307
H	 0.469181	 1.234488	 0.755973
H	 2.103292	 -0.853109	 -0.774172
H	 2.742821	 0.599562	 -0.030094
H	 2.083613	 -0.679371	 0.971560

	symmetry c1
}
set optking {
	frozen_dihedral = ("
		1 2 3 6
	")
}

ee = optimize('scf')
oeprop('DIPOLE', 'QUADRUPOLE', 'MULLIKEN_CHARGES')
f=open( 'psi4out.xyz', 'w' )
f.write( "13  " )
f.write( str(ee) + "\n" )
f.write( MOL.save_string_xyz() )
f.close()
--------------------------------------------------------------------------

    Molecular point group: c1
  Charge       = 0
  Multiplicity = 1
  Basis Set: 6-31G*
  Basis Set:
  @DF-RHF Final Energy:  -173.27779653150034
    Total Energy =                       -173.2777965315003144
    Molecular point group: c1
  Basis Set: 6-31G*
  Basis Set:
  Basis Set: 6-31G*
  Basis Set:
  @DF-RHF Final Energy:  -173.27894365797371
    Total Energy =                       -173.2789436579735991
  Basis Set: 6-31G*
  Basis Set:
  Basis Set: 6-31G*
  Basis Set:
  @DF-RHF Final Energy:  -173.27912660393255
    Total Energy =                       -173.2791266039324682
  Basis Set: 6-31G*
  Basis Set:
  Basis Set: 6-31G*
  Basis Set:
  @DF-RHF Final Energy:  -173.27912899198475
    Total Energy =                       -173.2791289919847486
  Basis Set: 6-31G*
  Basis Set:
  Charge       = 0
  Multiplicity = 1
  Basis Set: 6-31G*
  Basis Set:

    Orbital Energies (a.u.)
    -----------------------

    Doubly Occupied:

       1A    -15.531425     2A    -11.240314     3A    -11.218463
       4A    -11.213006     5A     -1.175511     6A     -1.038232
       7A     -0.900182     8A     -0.808018     9A     -0.669314
      10A     -0.615766    11A     -0.605679    12A     -0.557602
      13A     -0.538707    14A     -0.504405    15A     -0.485742
      16A     -0.471696    17A     -0.377080

  @DF-RHF Final Energy:  -173.27912915491819

   => Energetics <=

    Nuclear Repulsion Energy =            131.6099659011786400
    One-Electron Energy =                -493.8759040253318631
    Two-Electron Energy =                 188.9868089692349429
    DFT Exchange-Correlation Energy =       0.0000000000000000
    Empirical Dispersion Energy =           0.0000000000000000
    PCM Polarization Energy =               0.0000000000000000
    EFP Energy =                            0.0000000000000000
    Total Energy =                       -173.2791291549182517
    Molecular point group: c1
  Basis Set: 6-31G*
  Basis Set:

  -Total Gradient:
     Atom            X                  Y                   Z
    ------   -----------------  -----------------  -----------------
       1        0.000469343402     0.000694267656    -0.003114445139
       2       -0.000283385699    -0.000343220280     0.003511349153
       3       -0.001277180343    -0.002462951387     0.001328275897
       4        0.000013631054    -0.000008073234    -0.000015227796
       5       -0.000114358483    -0.000034192186    -0.000024874514
       6        0.001077946689     0.002152150218    -0.001719817156
       7        0.000027314659    -0.000007248351     0.000010814528
       8        0.000042906200     0.000016346111     0.000038459435
       9       -0.000007490177    -0.000013372113     0.000004913901
      10        0.000010141260     0.000010539117    -0.000024509804
      11       -0.000014222026     0.000018672326     0.000006975965
      12        0.000048608340    -0.000014551917     0.000011479613
      13        0.000006745126    -0.000008365961    -0.000013394082

  **** Optimization is complete! (in 5 steps) ****
    Final optimized geometry and variables:
    Molecular point group: c1

    Geometry (in Angstrom), charge = 0, multiplicity = 1:

    H           -1.848529184479     1.099412356725     0.192315967659
    N           -1.895601401107     0.122632704438    -0.025413154311
    C           -0.571303731393    -0.492269455282     0.041448041801
    H           -2.264099287733     0.065014771158    -0.953944988022
    C            0.587721781169     0.503241613797    -0.036762578272
    H           -0.474408999975    -1.196206206374    -0.779942674839
    H           -0.489390090276    -1.064109360436     0.961478389286
    C            1.956406913045    -0.168336208002     0.067361357194
    H            0.519172089640     1.056888871488    -0.971159125994
    H            0.482330681191     1.233432467565     0.764003478023
    H            2.107957677054    -0.878279982605    -0.740897625798
    H            2.757497339893     0.562182460778     0.019191732500
    H            2.057530755574    -0.708530349885     1.004204963051

  Mulliken Charges: (a.u.)
   Center  Symbol    Alpha    Beta     Spin     Total
       1     H     0.33323  0.33323  0.00000  0.33353
       2     N     3.92540  3.92540  0.00000 -0.85081
       3     C     3.05126  3.05126  0.00000 -0.10253
       4     H     0.33309  0.33309  0.00000  0.33382
       5     C     3.16435  3.16435  0.00000 -0.32869
       6     H     0.42481  0.42481  0.00000  0.15039
       7     H     0.41940  0.41940  0.00000  0.16120
       8     C     3.24315  3.24315  0.00000 -0.48631
       9     H     0.42457  0.42457  0.00000  0.15086
      10     H     0.42309  0.42309  0.00000  0.15381
      11     H     0.42101  0.42101  0.00000  0.15798
      12     H     0.41746  0.41746  0.00000  0.16509
      13     H     0.41917  0.41917  0.00000  0.16166

   Total alpha = 17.00000, Total beta = 17.00000, Total charge =  0.00000
