  ==> Input File <==

--------------------------------------------------------------------------
set {
	reference rhf
	basis 6-31G*
}

set_num_threads( 4 )
memory 2 gb

molecule MOL {
0 1

H	 2.899312	 1.743319	 -1.254321
N	 2.138234	 1.093298	 -1.296498
C	 1.865559	 0.531981	 0.018834
H	 2.409389	 0.371390	 -1.936931
C	 0.645745	 -0.382037	 -0.029944
H	 1.667776	 1.358035	 0.695130
H	 2.713666	 -0.017300	 0.435253
C	 -0.679275	 0.379305	 0.025956
H	 0.698998	 -0.976915	 -0.937203
H	 0.693479	 -1.083846	 0.802235
C	 -1.903357	 -0.536963	 -0.023547
H	 -0.726309	 1.082987	 -0.803784
H	 -0.717680	 0.977832	 0.934877
C	 -3.225172	 0.228290	 0.028445
H	 -1.867824	 -1.134999	 -0.931459
H	 -1.860449	 -1.239604	 0.805977
H	 -3.313397	 0.915643	 -0.808262
H	 -4.073500	 -0.448134	 -0.008893
H	 -3.306061	 0.809945	 0.942516

	symmetry c1
}
set optking {
	frozen_dihedral = ("
		6 3 5 9
	")
}

ee = optimize('scf')
oeprop('DIPOLE', 'QUADRUPOLE', 'MULLIKEN_CHARGES')
f=open( 'psi4out.xyz', 'w' )
f.write( "19  " )
f.write( str(ee) + "\n" )
f.write( MOL.save_string_xyz() )
f.close()
--------------------------------------------------------------------------

    Molecular point group: c1
  Charge       = 0
  Multiplicity = 1
  Basis Set: 6-31G*
  Basis Set:
  @DF-RHF Final Energy:  -251.35002269041948
    Total Energy =                       -251.3500226904193369
    Molecular point group: c1
  Basis Set: 6-31G*
  Basis Set:
  Basis Set: 6-31G*
  Basis Set:
  @DF-RHF Final Energy:  -251.35035114377177
    Total Energy =                       -251.3503511437717748
  Basis Set: 6-31G*
  Basis Set:
  Basis Set: 6-31G*
  Basis Set:
  @DF-RHF Final Energy:  -251.35043095211142
    Total Energy =                       -251.3504309521113669
  Basis Set: 6-31G*
  Basis Set:
  Basis Set: 6-31G*
  Basis Set:
  @DF-RHF Final Energy:  -251.35042967951600
    Total Energy =                       -251.3504296795156279
  Basis Set: 6-31G*
  Basis Set:
  Basis Set: 6-31G*
  Basis Set:
  @DF-RHF Final Energy:  -251.35043402537553
    Total Energy =                       -251.3504340253756482
  Basis Set: 6-31G*
  Basis Set:
  Charge       = 0
  Multiplicity = 1
  Basis Set: 6-31G*
  Basis Set:

    Orbital Energies (a.u.)
    -----------------------

    Doubly Occupied:

       1A    -15.533312     2A    -11.240471     3A    -11.209795
       4A    -11.209047     5A    -11.203655     6A    -11.203336
       7A     -1.176992     8A     -1.066778     9A     -0.994662
      10A     -0.899482    11A     -0.811480    12A     -0.782836
      13A     -0.663811    14A     -0.639488    15A     -0.615142
      16A     -0.585240    17A     -0.558687    18A     -0.544555
      19A     -0.532964    20A     -0.488636    21A     -0.483566
      22A     -0.458342    23A     -0.457349    24A     -0.449467
      25A     -0.379359

  @DF-RHF Final Energy:  -251.35043422026047

   => Energetics <=

    Nuclear Repulsion Energy =            248.6352025076174641
    One-Electron Energy =                -831.5943638824385289
    Two-Electron Energy =                 331.6087271545607678
    DFT Exchange-Correlation Energy =       0.0000000000000000
    Empirical Dispersion Energy =           0.0000000000000000
    PCM Polarization Energy =               0.0000000000000000
    EFP Energy =                            0.0000000000000000
    Total Energy =                       -251.3504342202602970
    Molecular point group: c1
  Basis Set: 6-31G*
  Basis Set:

  -Total Gradient:
     Atom            X                  Y                   Z
    ------   -----------------  -----------------  -----------------
       1       -0.000002038817    -0.000004806821     0.000004846370
       2        0.000011714089    -0.000011151321    -0.000008652417
       3        0.001199794352    -0.001575842769     0.002716609233
       4        0.000000163449     0.000003771147     0.000002177428
       5        0.001812673467    -0.002391285023     0.001350544432
       6       -0.001302135732     0.001691568335    -0.002500380653
       7       -0.000003612261     0.000001989813     0.000000579696
       8        0.000001651072     0.000001821758     0.000015677742
       9       -0.001718800415     0.002286568131    -0.001580624998
      10        0.000007142836    -0.000005324861     0.000010306629
      11       -0.000001078915    -0.000007401825     0.000003351520
      12       -0.000000243653     0.000015563477    -0.000002185388
      13       -0.000000534824    -0.000007790845    -0.000005925757
      14       -0.000002723497    -0.000001265091    -0.000008021112
      15       -0.000006888087    -0.000004212799     0.000002496894
      16        0.000005137377     0.000005472823    -0.000001821959
      17       -0.000000530020     0.000004123985     0.000001531553
      18        0.000001099865     0.000001536013    -0.000003326332
      19       -0.000000790288    -0.000003334130     0.000002817118

  **** Optimization is complete! (in 6 steps) ****
    Final optimized geometry and variables:
    Molecular point group: c1

    Geometry (in Angstrom), charge = 0, multiplicity = 1:

    H            2.969759210883     1.545704481607    -1.079842436249
    N            2.249232927248     0.849862912218    -1.089520110475
    C            2.046217455716     0.294051024322     0.243607435979
    H            2.544148966775     0.134762415423    -1.726999448174
    C            0.822062549500    -0.623952039269     0.256555926057
    H            1.873448737526     1.135123781796     0.907848842613
    H            2.919071518193    -0.243688779643     0.617185205886
    C           -0.501372723782     0.143934931016     0.285152645065
    H            0.841487952985    -1.241141791110    -0.640179472594
    H            0.876503000245    -1.296251832257     1.109644376817
    C           -1.728088021884    -0.763952111694     0.183787309944
    H           -0.508387480637     0.861307898989    -0.530147457951
    H           -0.559465941365     0.720782086575     1.207344846939
    C           -3.046548602098     0.007652965491     0.231275164546
    H           -1.678352545380    -1.333791551572    -0.741825984268
    H           -1.708190802073    -1.493120393980     0.991628922617
    H           -3.110069217894     0.723518993486    -0.583305700935
    H           -3.898385922792    -0.660990816704     0.151749815276
    H           -3.144776804290     0.558883194782     1.162371593460

  Mulliken Charges: (a.u.)
   Center  Symbol    Alpha    Beta     Spin     Total
       1     H     0.33220  0.33220  0.00000  0.33561
       2     N     3.92137  3.92137  0.00000 -0.84273
       3     C     3.06737  3.06737  0.00000 -0.13473
       4     H     0.33513  0.33513  0.00000  0.32974
       5     C     3.15098  3.15098  0.00000 -0.30197
       6     H     0.42015  0.42015  0.00000  0.15970
       7     H     0.43077  0.43077  0.00000  0.13847
       8     C     3.15265  3.15265  0.00000 -0.30531
       9     H     0.42545  0.42545  0.00000  0.14911
      10     H     0.42364  0.42364  0.00000  0.15271
      11     C     3.15155  3.15155  0.00000 -0.30310
      12     H     0.40865  0.40865  0.00000  0.18270
      13     H     0.42746  0.42746  0.00000  0.14509
      14     C     3.23882  3.23882  0.00000 -0.47765
      15     H     0.42379  0.42379  0.00000  0.15242
      16     H     0.42546  0.42546  0.00000  0.14908
      17     H     0.42108  0.42108  0.00000  0.15784
      18     H     0.42081  0.42081  0.00000  0.15839
      19     H     0.42268  0.42268  0.00000  0.15463

   Total alpha = 25.00000, Total beta = 25.00000, Total charge =  0.00000
