  ==> Input File <==

--------------------------------------------------------------------------
set {
	reference rhf
	basis cc-pvtz
}

set_num_threads( 4 )
memory 2 gb

molecule MOL {
0 1

H	 2.646708	 0.758099	 0.000000
O	 2.258158	 -0.097743	 0.000000
C	 0.911162	 -0.015915	 0.000000
C	 0.328927	 0.962085	 -0.789506
C	 0.117952	 -0.863484	 0.750244
H	 0.959796	 1.610601	 -1.364772
C	 -1.043459	 1.083072	 -0.821011
H	 0.569662	 -1.622523	 1.362999
C	 -1.258656	 -0.730446	 0.708860
H	 -1.489147	 1.842810	 -1.434657
C	 -1.848854	 0.239722	 -0.073680
H	 -1.867295	 -1.392842	 1.294621
H	 -2.916078	 0.339961	 -0.103335

	symmetry c1
}
set optking {
	frozen_dihedral = ("
		4 3 2 1
	")
}

ee = optimize('scf')
oeprop('DIPOLE', 'QUADRUPOLE', 'MULLIKEN_CHARGES')
f=open( 'psi4out.xyz', 'w' )
f.write( "13  " )
f.write( str(ee) + "\n" )
f.write( MOL.save_string_xyz() )
f.close()
--------------------------------------------------------------------------

    Molecular point group: c1
  Charge       = 0
  Multiplicity = 1
  Basis Set: CC-PVTZ
  Basis Set:
  @DF-RHF Final Energy:  -305.66705154133768
    Total Energy =                       -305.6670515413375711
    Molecular point group: c1
  Basis Set: CC-PVTZ
  Basis Set:
  Basis Set: CC-PVTZ
  Basis Set:
  @DF-RHF Final Energy:  -305.66861817234263
    Total Energy =                       -305.6686181723424625
  Basis Set: CC-PVTZ
  Basis Set:
  Basis Set: CC-PVTZ
  Basis Set:
  @DF-RHF Final Energy:  -305.66873048194611
    Total Energy =                       -305.6687304819458291
  Basis Set: CC-PVTZ
  Basis Set:
  Basis Set: CC-PVTZ
  Basis Set:
  @DF-RHF Final Energy:  -305.66874403322367
    Total Energy =                       -305.6687440332237315
  Basis Set: CC-PVTZ
  Basis Set:
  Charge       = 0
  Multiplicity = 1
  Basis Set: CC-PVTZ
  Basis Set:

    Orbital Energies (a.u.)
    -----------------------

    Doubly Occupied:

       1A    -20.579373     2A    -11.294059     3A    -11.234662
       4A    -11.233211     5A    -11.226240     6A    -11.221914
       7A    -11.221827     8A     -1.408482     9A     -1.152909
      10A     -1.022546    11A     -1.008402    12A     -0.846773
      13A     -0.827168    14A     -0.740345    15A     -0.686829
      16A     -0.653298    17A     -0.622046    18A     -0.598911
      19A     -0.591778    20A     -0.547037    21A     -0.517324
      22A     -0.495761    23A     -0.480468    24A     -0.342598
      25A     -0.320023

  @DF-RHF Final Energy:  -305.66874742576107

   => Energetics <=

    Nuclear Repulsion Energy =            273.6333844310065047
    One-Electron Energy =                -956.8562882781126291
    Two-Electron Energy =                 377.5541564213453398
    DFT Exchange-Correlation Energy =       0.0000000000000000
    Empirical Dispersion Energy =           0.0000000000000000
    PCM Polarization Energy =               0.0000000000000000
    EFP Energy =                            0.0000000000000000
    Total Energy =                       -305.6687474257608415
    Molecular point group: c1
  Basis Set: CC-PVTZ
  Basis Set:

  -Total Gradient:
     Atom            X                  Y                   Z
    ------   -----------------  -----------------  -----------------
       1       -0.000095972641     0.000073025365     0.002546896197
       2        0.000026591060    -0.000780494857    -0.003913204683
       3       -0.000017164009     0.001820531618     0.002815467599
       4       -0.000029137705    -0.001238041953    -0.001441675033
       5        0.000175860161     0.000015737892     0.000030051709
       6       -0.000066003290    -0.000004891473     0.000025181032
       7        0.000069905737     0.000049844774     0.000029809290
       8        0.000083811256     0.000018206648    -0.000015674278
       9       -0.000151425371     0.000100597355    -0.000045542724
      10       -0.000051484869    -0.000007550707    -0.000013846765
      11        0.000020754786    -0.000112840463     0.000060669757
      12        0.000032293116     0.000006752873    -0.000016659565
      13        0.000001971761     0.000059122929    -0.000061472538

  **** Optimization is complete! (in 5 steps) ****
    Final optimized geometry and variables:
    Molecular point group: c1

    Geometry (in Angstrom), charge = 0, multiplicity = 1:

    H            2.693335297087     0.592835517062     0.049353817850
    O            2.251693270285    -0.237085960315     0.064615828624
    C            0.905800324412    -0.067942379144     0.031528264027
    C            0.313319310862     0.894120627007    -0.765867209771
    C            0.123696666726    -0.930045499868     0.777013929228
    H            0.925492354700     1.545563853513    -1.361494319593
    C           -1.064010058102     1.005611460840    -0.795740083595
    H            0.602025241341    -1.675056314928     1.381828350509
    C           -1.251598266771    -0.818192522341     0.728819285619
    H           -1.518596538912     1.757799289783    -1.412115970373
    C           -1.854209558902     0.151160178122    -0.052134077396
    H           -1.854758864842    -1.489942206614     1.309476421399
    H           -2.922880179610     0.236852138420    -0.083106103030

  Mulliken Charges: (a.u.)
   Center  Symbol    Alpha    Beta     Spin     Total
       1     H     0.38588  0.38588  0.00000  0.22823
       2     O     4.18285  4.18285  0.00000 -0.36569
       3     C     2.86229  2.86229  0.00000  0.27542
       4     C     3.12570  3.12570  0.00000 -0.25139
       5     C     3.10923  3.10923  0.00000 -0.21846
       6     H     0.42757  0.42757  0.00000  0.14487
       7     C     3.06645  3.06645  0.00000 -0.13289
       8     H     0.41766  0.41766  0.00000  0.16467
       9     C     3.06051  3.06051  0.00000 -0.12101
      10     H     0.42227  0.42227  0.00000  0.15546
      11     C     3.09381  3.09381  0.00000 -0.18762
      12     H     0.42217  0.42217  0.00000  0.15566
      13     H     0.42362  0.42362  0.00000  0.15276

   Total alpha = 25.00000, Total beta = 25.00000, Total charge = -0.00000
