  ==> Input File <==

--------------------------------------------------------------------------
set {
	reference rhf
	basis 6-31G*
}

set_num_threads( 4 )
memory 2 gb

molecule MOL {
0 1

O	 -3.670176	 -0.414647	 -0.339501
C	 -2.668563	 0.129746	 -0.000350
C	 -2.609093	 1.558508	 0.475433
O	 -1.481751	 -0.454642	 0.000584
H	 -3.259061	 1.666128	 1.335561
H	 -1.603680	 1.855129	 0.735432
H	 -2.992250	 2.202115	 -0.307408
C	 -0.334255	 0.388708	 0.000906
C	 0.891947	 -0.504646	 0.000751
H	 -0.365390	 1.025305	 -0.873475
H	 -0.365484	 1.024911	 0.875569
C	 2.191998	 0.301789	 0.000897
H	 0.855148	 -1.151283	 -0.871571
H	 0.855132	 -1.151660	 0.872805
C	 3.441114	 -0.581407	 0.000108
H	 2.215074	 0.954890	 -0.869742
H	 2.215465	 0.953923	 0.872248
C	 4.739576	 0.224112	 -0.001102
H	 3.419457	 -1.233487	 -0.870178
H	 3.420834	 -1.233096	 0.870717
H	 4.804918	 0.861552	 -0.878265
H	 5.606527	 -0.429058	 -0.001824
H	 4.806469	 0.861674	 0.875853

	symmetry c1
}
set optking {
	frozen_dihedral = ("
		1 2 4 8
	")
}

ee = optimize('scf')
oeprop('DIPOLE', 'QUADRUPOLE', 'MULLIKEN_CHARGES')
f=open( 'psi4out.xyz', 'w' )
f.write( "23  " )
f.write( str(ee) + "\n" )
f.write( MOL.save_string_xyz() )
f.close()
--------------------------------------------------------------------------

    Molecular point group: c1
  Charge       = 0
  Multiplicity = 1
  Basis Set: 6-31G*
  Basis Set:
  @DF-RHF Final Energy:  -422.94508209304081
    Total Energy =                       -422.9450820930404689
    Molecular point group: c1
  Basis Set: 6-31G*
  Basis Set:
  Basis Set: 6-31G*
  Basis Set:
  @DF-RHF Final Energy:  -422.94895957401224
    Total Energy =                       -422.9489595740124059
  Basis Set: 6-31G*
  Basis Set:
  Basis Set: 6-31G*
  Basis Set:
  @DF-RHF Final Energy:  -422.95734071144363
    Total Energy =                       -422.9573407114430665
  Basis Set: 6-31G*
  Basis Set:
  Basis Set: 6-31G*
  Basis Set:
  @DF-RHF Final Energy:  -422.96172838519902
    Total Energy =                       -422.9617283851990805
  Basis Set: 6-31G*
  Basis Set:
  @DF-RHF Final Energy:  -422.96233701930748
    Total Energy =                       -422.9623370193074834
  @DF-RHF Final Energy:  -422.96253263861519
    Total Energy =                       -422.9625326386145616
  @DF-RHF Final Energy:  -422.96294101221963
    Total Energy =                       -422.9629410122196305
  @DF-RHF Final Energy:  -422.96309998505819
    Total Energy =                       -422.9630999850575108
  @DF-RHF Final Energy:  -422.96316073130788
    Total Energy =                       -422.9631607313079940
  @DF-RHF Final Energy:  -422.96332463714720
    Total Energy =                       -422.9633246371467976
  @DF-RHF Final Energy:  -422.95273485031601
    Total Energy =                       -422.9527348503168014
  @DF-RHF Final Energy:  -422.96303855729064
    Total Energy =                       -422.9630385572901332
  @DF-RHF Final Energy:  -422.96393186950536
    Total Energy =                       -422.9639318695060410
  @DF-RHF Final Energy:  -422.96443574149077
    Total Energy =                       -422.9644357414910019
  @DF-RHF Final Energy:  -422.96479198054186
    Total Energy =                       -422.9647919805421452
  @DF-RHF Final Energy:  -422.96509525720694
    Total Energy =                       -422.9650952572068263
  @DF-RHF Final Energy:  -422.96524124409797
    Total Energy =                       -422.9652412440982516
  Basis Set: 6-31G*
  Basis Set:
  @DF-RHF Final Energy:  -422.96527173617875
    Total Energy =                       -422.9652717361778969
  Basis Set: 6-31G*
  Basis Set:
  Basis Set: 6-31G*
  Basis Set:
  @DF-RHF Final Energy:  -422.96529568749452
    Total Energy =                       -422.9652956874938354
  Basis Set: 6-31G*
  Basis Set:
  Basis Set: 6-31G*
  Basis Set:
  @DF-RHF Final Energy:  -422.96529950978709
    Total Energy =                       -422.9652995097859502
  Basis Set: 6-31G*
  Basis Set:
  Charge       = 0
  Multiplicity = 1
  Basis Set: 6-31G*
  Basis Set:

    Orbital Energies (a.u.)
    -----------------------

    Doubly Occupied:

       1A    -20.597840     2A    -20.539038     3A    -11.375149
       4A    -11.297044     5A    -11.241553     6A    -11.229991
       7A    -11.229315     8A    -11.225437     9A    -11.216441
      10A     -1.461019    11A     -1.363919    12A     -1.098150
      13A     -1.036833    14A     -1.015286    15A     -0.943605
      16A     -0.848477    17A     -0.808010    18A     -0.779044
      19A     -0.699651    20A     -0.695263    21A     -0.659059
      22A     -0.650401    23A     -0.611483    24A     -0.595614
      25A     -0.581313    26A     -0.574150    27A     -0.569625
      28A     -0.541800    29A     -0.529887    30A     -0.505118
      31A     -0.499163    32A     -0.482516    33A     -0.475990
      34A     -0.473970    35A     -0.443928    36A     -0.429813

  @DF-RHF Final Energy:  -422.96529984111879

   => Energetics <=

    Nuclear Repulsion Energy =            449.4725223542797607
    One-Electron Energy =               -1466.2258588860995587
    Two-Electron Energy =                 593.7880366907002099
    DFT Exchange-Correlation Energy =       0.0000000000000000
    Empirical Dispersion Energy =           0.0000000000000000
    PCM Polarization Energy =               0.0000000000000000
    EFP Energy =                            0.0000000000000000
    Total Energy =                       -422.9652998411195313
    Molecular point group: c1
  Basis Set: 6-31G*
  Basis Set:

  -Total Gradient:
     Atom            X                  Y                   Z
    ------   -----------------  -----------------  -----------------
       1        0.000190586965     0.000452598367    -0.002027813199
       2       -0.000343088507    -0.000791247494     0.001884142558
       3        0.000001383279     0.000018394894     0.000021799053
       4        0.000105602159     0.000457703185     0.001951429117
       5        0.000008761161    -0.000022682474    -0.000014306098
       6        0.000001913666     0.000014125029    -0.000005548639
       7        0.000010892818     0.000014238164     0.000002992839
       8        0.000008050738    -0.000134073058    -0.001813079062
       9        0.000007932211     0.000011211600     0.000027063214
      10        0.000004658196    -0.000000356705     0.000013041595
      11       -0.000008442455    -0.000007985636    -0.000007217282
      12        0.000000810855    -0.000008302041    -0.000012927625
      13       -0.000000408298     0.000014922420    -0.000002418334
      14        0.000006389665    -0.000020485632     0.000000514547
      15        0.000001307925     0.000003818081    -0.000009651323
      16       -0.000001730807    -0.000009044558    -0.000012919092
      17        0.000001354332     0.000006949434    -0.000014652728
      18        0.000003716641    -0.000000718659     0.000026620946
      19        0.000004613097     0.000010780035    -0.000007119168
      20       -0.000005735620    -0.000010279375    -0.000006055402
      21       -0.000003923716    -0.000007389459     0.000000376367
      22        0.000001915832     0.000001005949     0.000006790886
      23        0.000003439879     0.000006817937    -0.000001063169

  **** Optimization is complete! (in 21 steps) ****
    Final optimized geometry and variables:
    Molecular point group: c1

    Geometry (in Angstrom), charge = 0, multiplicity = 1:

    O           -3.631420269812    -0.644874586357    -0.227115808708
    C           -2.724575647170     0.059563799671     0.060125363017
    C           -2.906355516859     1.514388598229     0.429178945197
    O           -1.486432071949    -0.438887316780     0.087206647373
    H           -3.962914846138     1.733851313284     0.419244618711
    H           -2.503867965682     1.713103132744     1.416351543052
    H           -2.400626158577     2.166912344426    -0.273687266582
    C           -0.331383525500     0.376190600288     0.009643897788
    C            0.875250387774    -0.544840811520    -0.000957676638
    H           -0.363380114548     0.971799481282    -0.896628036340
    H           -0.286916007790     1.050173125569     0.857948576672
    C            2.194094483634     0.225058596154    -0.088104989539
    H            0.780701276805    -1.226254567791    -0.840675088551
    H            0.852943531043    -1.151249241007     0.899601665359
    C            3.418159146562    -0.692673918891    -0.096325195432
    H            2.200996063482     0.837061301988    -0.988708936052
    H            2.270999752176     0.914859288592     0.750974325094
    C            4.736703088443     0.075052318938    -0.178359602281
    H            3.346080196831    -1.379106396521    -0.936666734971
    H            3.412162991011    -1.306706537529     0.801236286335
    H            4.787324088729     0.672601307409    -1.084146578059
    H            5.584777782442    -0.602206204696    -0.181643771723
    H            4.853298448039     0.746737569961     0.667447242789

  Mulliken Charges: (a.u.)
   Center  Symbol    Alpha    Beta     Spin     Total
       1     O     4.26449  4.26449  0.00000 -0.52898
       2     C     2.61472  2.61472  0.00000  0.77056
       3     C     3.30838  3.30838  0.00000 -0.61676
       4     O     4.30685  4.30685  0.00000 -0.61371
       5     H     0.38812  0.38812  0.00000  0.22375
       6     H     0.40212  0.40212  0.00000  0.19577
       7     H     0.40379  0.40379  0.00000  0.19242
       8     C     2.99517  2.99517  0.00000  0.00966
       9     C     3.16201  3.16201  0.00000 -0.32403
      10     H     0.41898  0.41898  0.00000  0.16203
      11     H     0.42054  0.42054  0.00000  0.15891
      12     C     3.16111  3.16111  0.00000 -0.32222
      13     H     0.40827  0.40827  0.00000  0.18345
      14     H     0.41023  0.41023  0.00000  0.17954
      15     C     3.15183  3.15183  0.00000 -0.30367
      16     H     0.42191  0.42191  0.00000  0.15618
      17     H     0.42251  0.42251  0.00000  0.15497
      18     C     3.24008  3.24008  0.00000 -0.48016
      19     H     0.41964  0.41964  0.00000  0.16072
      20     H     0.42012  0.42012  0.00000  0.15977
      21     H     0.42102  0.42102  0.00000  0.15796
      22     H     0.41683  0.41683  0.00000  0.16634
      23     H     0.42126  0.42126  0.00000  0.15747

   Total alpha = 36.00000, Total beta = 36.00000, Total charge =  0.00000
