                              Psi4 1.0.54 Driver

  ==> Input File <==

--------------------------------------------------------------------------
set {
	reference rhf
	basis cc-pvtz
}

set_num_threads( 4 )
memory 2 gb

molecule MOL {
0 1

O	 1.515005	 0.805872	 0.884887
C	 1.121787	 0.124983	 0.000110
C	 -0.170912	 -0.649867	 -0.000147
O	 1.785271	 -0.046722	 -1.131563
C	 -1.413045	 0.229353	 0.001137
H	 -0.152877	 -1.303435	 -0.866175
H	 -0.152278	 -1.305116	 0.864586
C	 -2.702562	 -0.586401	 0.000228
H	 -1.390744	 0.882001	 -0.864365
H	 -1.390549	 0.879837	 0.868264
C	 -3.953810	 0.284959	 -0.000782
H	 -2.717793	 -1.238567	 -0.869075
H	 -2.719108	 -1.238472	 0.869576
H	 -3.983727	 0.924403	 -0.876454
H	 -4.852989	 -0.320147	 -0.001515
H	 -3.985140	 0.924399	 0.874841
C	 3.020999	 0.625414	 -1.267675
H	 2.883363	 1.694293	 -1.198534
H	 3.397822	 0.361029	 -2.242341
H	 3.713548	 0.309075	 -0.501823

	symmetry c1
}
set optking {
	frozen_dihedral = ("
		1 2 3 6
	")
}

ee,wfn = optimize('scf', return_wfn=True)
oeprop( wfn, 'DIPOLE', 'QUADRUPOLE', 'MULLIKEN_CHARGES')
f=open( 'psi4out.xyz', 'w' )
f.write( "20  " )
f.write( str(ee) + "\n" )
f.write( MOL.save_string_xyz() )
f.close()
--------------------------------------------------------------------------

    Molecular point group: c1
  Charge       = 0
  Multiplicity = 1
  Basis Set: CC-PVTZ
  Basis Set:
  @DF-RHF Final Energy:  -384.08114745735440
    Total Energy =                       -384.0811474573540636
    Molecular point group: c1
  Basis Set: CC-PVTZ
  Basis Set:
  Basis Set: CC-PVTZ
  Basis Set:
  @DF-RHF Final Energy:  -384.08183478093713
    Total Energy =                       -384.0818347809372426
  Basis Set: CC-PVTZ
  Basis Set:
  Basis Set: CC-PVTZ
  Basis Set:
  @DF-RHF Final Energy:  -384.08188658421693
    Total Energy =                       -384.0818865842176137
  Basis Set: CC-PVTZ
  Basis Set:
  Basis Set: CC-PVTZ
  Basis Set:
  @DF-RHF Final Energy:  -384.08183560152969
    Total Energy =                       -384.0818356015296331
  Basis Set: CC-PVTZ
  Basis Set:
  Basis Set: CC-PVTZ
  Basis Set:
  @DF-RHF Final Energy:  -384.08189653255465
    Total Energy =                       -384.0818965325548788
  Basis Set: CC-PVTZ
  Basis Set:
  Charge       = 0
  Multiplicity = 1
  Basis Set: CC-PVTZ
  Basis Set:

    Orbital Energies (a.u.)
    -----------------------

    Doubly Occupied:

       1A    -20.598646     2A    -20.531116     3A    -11.363789
       4A    -11.278511     5A    -11.232103     6A    -11.225425
       7A    -11.221059     8A    -11.211284     9A     -1.472392
      10A     -1.364427    11A     -1.092390    12A     -1.025436
      13A     -0.970006    14A     -0.888785    15A     -0.806338
      16A     -0.774664    17A     -0.697268    18A     -0.683563
      19A     -0.676162    20A     -0.648478    21A     -0.599768
      22A     -0.593313    23A     -0.575215    24A     -0.553721
      25A     -0.535396    26A     -0.523759    27A     -0.506963
      28A     -0.481433    29A     -0.478613    30A     -0.475009
      31A     -0.457505    32A     -0.434952

  @DF-RHF Final Energy:  -384.08189702535168

   => Energetics <=

    Nuclear Repulsion Energy =            382.7796627459973138
    One-Electron Energy =               -1281.7681401186482617
    Two-Electron Energy =                 514.9065803472994958
    DFT Exchange-Correlation Energy =       0.0000000000000000
    Empirical Dispersion Energy =           0.0000000000000000
    PCM Polarization Energy =               0.0000000000000000
    EFP Energy =                            0.0000000000000000
    Total Energy =                       -384.0818970253515090
    Molecular point group: c1
  Basis Set: CC-PVTZ
  Basis Set:

  -Total Gradient:
     Atom            X                  Y                   Z
    ------   -----------------  -----------------  -----------------
       1       -0.000068743793     0.000088202488    -0.000059046644
       2        0.000068566918    -0.000079604295     0.000183226148
       3        0.000046023547    -0.000065257064     0.000000790181
       4        0.000009900142    -0.000020772124    -0.000113128116
       5       -0.000002301507     0.000027115832     0.000013204391
       6       -0.000048105203     0.000056096804    -0.000066845333
       7        0.000003087104     0.000020949846    -0.000012885068
       8        0.000004287739    -0.000013703494     0.000005935135
       9        0.000007326105    -0.000017350011     0.000004689411
      10       -0.000009126784     0.000002211889    -0.000000879370
      11        0.000011332148     0.000008879543    -0.000000782824
      12        0.000006445384     0.000004905386     0.000001214023
      13        0.000001928425     0.000000368237    -0.000000247610
      14        0.000000106525     0.000000510282     0.000001610425
      15        0.000003546631    -0.000002331553    -0.000001769407
      16       -0.000001073190    -0.000000474915     0.000000109314
      17       -0.000019812572    -0.000006743872     0.000065742793
      18        0.000007104442    -0.000003316233    -0.000008915754
      19       -0.000022309516    -0.000007622652     0.000007175668
      20        0.000001817456     0.000007935906    -0.000019197362

  **** Optimization is complete! (in 6 steps) ****
    Final optimized geometry and variables:
    Molecular point group: c1

    Geometry (in Angstrom), charge = 0, multiplicity = 1:

    O            1.527023508056     0.650480874756     1.109635368991
    C            1.181923731887    -0.016513976187     0.193352249711
    C           -0.089585609099    -0.825973957544     0.169129878771
    O            1.871043304516    -0.114858700303    -0.930047967359
    C           -1.324237955168     0.079920991701     0.164910798958
    H           -0.090299330815    -1.476730300231    -0.693838998734
    H           -0.091438429352    -1.439306350223     1.062176972867
    C           -2.627938016019    -0.711575136878     0.192720461591
    H           -1.303739955484     0.709962221326    -0.720159364437
    H           -1.276571917770     0.742114876064     1.021487089573
    C           -3.863053549027     0.182536442010     0.185664211562
    H           -2.662302096324    -1.381435510363    -0.661947050106
    H           -2.644107298263    -1.342601257320     1.076919138351
    H           -3.892471753751     0.802279377428    -0.704213055070
    H           -4.772327871049    -0.406648592518     0.208404868054
    H           -3.873328502799     0.841475722116     1.047118872067
    C            3.073670516310     0.623262556584    -1.017545190860
    H            2.880284602873     1.680299538192    -0.911346599515
    H            3.480095204820     0.414654733464    -1.993826173481
    H            3.767068976469     0.313069501306    -0.250160537129

  Mulliken Charges: (a.u.)
   Center  Symbol    Alpha    Beta     Spin     Total
       1     O     4.20546  4.20546  0.00000 -0.41092
       2     C     2.81068  2.81068  0.00000  0.37864
       3     C     3.07893  3.07893  0.00000 -0.15785
       4     O     4.14571  4.14571  0.00000 -0.29143
       5     C     3.09433  3.09433  0.00000 -0.18865
       6     H     0.44113  0.44113  0.00000  0.11774
       7     H     0.44321  0.44321  0.00000  0.11357
       8     C     3.08863  3.08863  0.00000 -0.17725
       9     H     0.45133  0.45133  0.00000  0.09734
      10     H     0.44035  0.44035  0.00000  0.11930
      11     C     3.14928  3.14928  0.00000 -0.29855
      12     H     0.45399  0.45399  0.00000  0.09202
      13     H     0.45284  0.45284  0.00000  0.09432
      14     H     0.45458  0.45458  0.00000  0.09085
      15     H     0.44773  0.44773  0.00000  0.10453
      16     H     0.45312  0.45312  0.00000  0.09377
      17     C     3.03540  3.03540  0.00000 -0.07081
      18     H     0.45411  0.45411  0.00000  0.09179
      19     H     0.44530  0.44530  0.00000  0.10941
      20     H     0.45389  0.45389  0.00000  0.09221

   Total alpha = 32.00000, Total beta = 32.00000, Total charge = -0.00000

*** Psi4 exiting successfully. Buy a developer a beer!
