  ==> Input File <==

--------------------------------------------------------------------------
set {
	reference rhf
	basis cc-pvtz
}

set_num_threads( 4 )
memory 2 gb

molecule MOL {
0 1

O	 0.122181	 0.278338	 -1.920765
C	 -0.226765	 -0.408295	 -1.022627
C	 -1.586956	 -1.031793	 -0.893070
O	 0.550743	 -0.719877	 0.000412
H	 -1.488845	 -2.108107	 -0.835371
H	 -2.192024	 -0.758445	 -1.742014
H	 -2.054772	 -0.694787	 0.022905
C	 1.863204	 -0.194033	 0.000410
H	 2.031502	 0.409177	 -0.879273
H	 2.524488	 -1.045142	 0.000793
H	 2.031291	 0.409823	 0.879686

	symmetry c1
}
set optking {
	frozen_dihedral = ("
		2 4 8 9
	")
}

ee = optimize('scf')
oeprop('DIPOLE', 'QUADRUPOLE', 'MULLIKEN_CHARGES')
f=open( 'psi4out.xyz', 'w' )
f.write( "11  " )
f.write( str(ee) + "\n" )
f.write( MOL.save_string_xyz() )
f.close()
--------------------------------------------------------------------------

    Molecular point group: c1
  Charge       = 0
  Multiplicity = 1
  Basis Set: CC-PVTZ
  Basis Set:
  @DF-RHF Final Energy:  -266.93620793034393
    Total Energy =                       -266.9362079303441533
    Molecular point group: c1
  Basis Set: CC-PVTZ
  Basis Set:
  Basis Set: CC-PVTZ
  Basis Set:
  @DF-RHF Final Energy:  -266.93664796186846
    Total Energy =                       -266.9366479618685730
  Basis Set: CC-PVTZ
  Basis Set:
  Basis Set: CC-PVTZ
  Basis Set:
  @DF-RHF Final Energy:  -266.93705825226641
    Total Energy =                       -266.9370582522667519
  Basis Set: CC-PVTZ
  Basis Set:
  Basis Set: CC-PVTZ
  Basis Set:
  @DF-RHF Final Energy:  -266.93698322437166
    Total Energy =                       -266.9369832243716587
  Basis Set: CC-PVTZ
  Basis Set:
  Basis Set: CC-PVTZ
  Basis Set:
  @DF-RHF Final Energy:  -266.93717687140338
    Total Energy =                       -266.9371768714034374
  Basis Set: CC-PVTZ
  Basis Set:
  Charge       = 0
  Multiplicity = 1
  Basis Set: CC-PVTZ
  Basis Set:

    Orbital Energies (a.u.)
    -----------------------

    Doubly Occupied:

       1A    -20.597606     2A    -20.534546     3A    -11.370254
       4A    -11.278382     5A    -11.232601     6A     -1.471543
       7A     -1.368264     8A     -1.036996     9A     -0.954082
      10A     -0.778991    11A     -0.699496    12A     -0.682062
      13A     -0.680965    14A     -0.598119    15A     -0.592649
      16A     -0.561529    17A     -0.531095    18A     -0.520372
      19A     -0.458153    20A     -0.446273

  @DF-RHF Final Energy:  -266.93717861072656

   => Energetics <=

    Nuclear Repulsion Energy =            183.2267639458164012
    One-Electron Energy =                -727.5399323250470616
    Two-Electron Energy =                 277.3759897685042688
    DFT Exchange-Correlation Energy =       0.0000000000000000
    Empirical Dispersion Energy =           0.0000000000000000
    PCM Polarization Energy =               0.0000000000000000
    EFP Energy =                            0.0000000000000000
    Total Energy =                       -266.9371786107263915
    Molecular point group: c1
  Basis Set: CC-PVTZ
  Basis Set:

  -Total Gradient:
     Atom            X                  Y                   Z
    ------   -----------------  -----------------  -----------------
       1        0.000040366278    -0.000008373247     0.000034240688
       2        0.000012269028     0.000029416277     0.000005339869
       3       -0.000007787758    -0.000023856187    -0.000001776575
       4        0.000002895006     0.000081886534     0.000047945716
       5        0.000000100397     0.000007829955    -0.000002544475
       6       -0.000003256115    -0.000002707461    -0.000002933280
       7        0.000001663608     0.000004462958     0.000001372153
       8       -0.000028836890    -0.000146070576    -0.000047726834
       9       -0.000020334396     0.000034824075    -0.000013865558
      10        0.000066832832     0.000022955619     0.000004197216
      11       -0.000063911988    -0.000000367946    -0.000024248923

  **** Optimization is complete! (in 6 steps) ****
    Final optimized geometry and variables:
    Molecular point group: c1

    Geometry (in Angstrom), charge = 0, multiplicity = 1:

    O           -0.076688675173     0.692332495758    -1.182413663634
    C           -0.394931295681     0.009292153618    -0.270846884259
    C           -1.747480214855    -0.624616568417    -0.109764267681
    O            0.397166504306    -0.297478657403     0.744222074278
    H           -1.638856542555    -1.699647247928    -0.048110827235
    H           -2.372202879180    -0.360911321520    -0.947444744999
    H           -2.198477783316    -0.286329943851     0.814090558958
    C            1.720045691680     0.204922632912     0.778167468532
    H            1.923208543330     0.813075261905    -0.085986345275
    H            2.397129388225    -0.636095069500     0.809012153962
    H            1.832021007096     0.789875076232     1.679222761677

  Mulliken Charges: (a.u.)
   Center  Symbol    Alpha    Beta     Spin     Total
       1     O     4.19708  4.19708  0.00000 -0.39416
       2     C     2.79775  2.79775  0.00000  0.40451
       3     C     3.13941  3.13941  0.00000 -0.27883
       4     O     4.15015  4.15015  0.00000 -0.30031
       5     H     0.44570  0.44570  0.00000  0.10860
       6     H     0.43801  0.43801  0.00000  0.12398
       7     H     0.44571  0.44571  0.00000  0.10858
       8     C     3.03751  3.03751  0.00000 -0.07502
       9     H     0.44281  0.44281  0.00000  0.11438
      10     H     0.45293  0.45293  0.00000  0.09414
      11     H     0.45293  0.45293  0.00000  0.09413

   Total alpha = 20.00000, Total beta = 20.00000, Total charge = -0.00000
