  ==> Input File <==

--------------------------------------------------------------------------
set {
	reference rhf
	basis 6-31G*
}

set_num_threads( 1 )
memory 2 gb

molecule MOL {
0 1

H	 1.620708	 3.236772	 2.758933
N	 0.785475	 2.686623	 2.701775
C	 0.685415	 2.033730	 1.404376
H	 0.015796	 3.313904	 2.839408
C	 -0.535347	 1.120984	 1.355483
H	 1.583239	 1.439449	 1.264373
H	 0.644004	 2.739400	 0.570881
C	 -0.679275	 0.379305	 0.025956
H	 -0.466480	 0.411932	 2.175444
H	 -1.431048	 1.714776	 1.535667
C	 -1.903357	 -0.536963	 -0.023547
H	 0.216849	 -0.212009	 -0.156134
H	 -0.739101	 1.099563	 -0.788597
C	 -3.225172	 0.228290	 0.028445
H	 -1.867824	 -1.134999	 -0.931459
H	 -1.860449	 -1.239604	 0.805977
H	 -3.313397	 0.915643	 -0.808262
H	 -4.073500	 -0.448134	 -0.008893
H	 -3.306061	 0.809945	 0.942516

	symmetry c1
}
set optking {
	frozen_dihedral = ("
		6 3 5 9,
		12 8 5 9,
		1 2 3 6
	")
}

ee = energy('scf')
oeprop('DIPOLE', 'QUADRUPOLE', 'MULLIKEN_CHARGES')
f=open( 'psi4out.xyz', 'w' )
f.write( "19  " )
f.write( str(ee) + "\n" )
f.write( MOL.save_string_xyz() )
f.close()
--------------------------------------------------------------------------

    Molecular point group: c1

    Geometry (in Angstrom), charge = 0, multiplicity = 1:

       Center              X                  Y                   Z               Mass
    ------------   -----------------  -----------------  -----------------  -----------------
           H          2.424022850819     2.214202272141     1.822114592797     1.007825032070
           N          1.588789850819     1.664053272141     1.764956592797    14.003074004780
           C          1.488729850819     1.011160272141     0.467557592797    12.000000000000
           H          0.819110850819     2.291334272141     1.902589592797     1.007825032070
           C          0.267967850819     0.098414272141     0.418664592797    12.000000000000
           H          2.386553850819     0.416879272141     0.327554592797     1.007825032070
           H          1.447318850819     1.716830272141    -0.365937407203     1.007825032070
           C          0.124039850819    -0.643264727859    -0.910862407203    12.000000000000
           H          0.336834850819    -0.610637727859     1.238625592797     1.007825032070
           H         -0.627733149181     0.692206272141     0.598848592797     1.007825032070
           C         -1.100042149181    -1.559532727859    -0.960365407203    12.000000000000
           H          1.020163850819    -1.234578727859    -1.092952407203     1.007825032070
           H          0.064213850819     0.076993272141    -1.725415407203     1.007825032070
           C         -2.421857149181    -0.794279727859    -0.908373407203    12.000000000000
           H         -1.064509149181    -2.157568727859    -1.868277407203     1.007825032070
           H         -1.057134149181    -2.262173727859    -0.130841407203     1.007825032070
           H         -2.510082149181    -0.106926727859    -1.745080407203     1.007825032070
           H         -3.270185149181    -1.470703727859    -0.945711407203     1.007825032070
           H         -2.502746149181    -0.212624727859     0.005697592797     1.007825032070

  Charge       = 0
  Multiplicity = 1
  Basis Set: 6-31G*
  Basis Set:

    Orbital Energies (a.u.)
    -----------------------

    Doubly Occupied:

       1A    -15.532407     2A    -11.239634     3A    -11.213885
       4A    -11.212619     5A    -11.208825     6A    -11.206931
       7A     -1.176522     8A     -1.074506     9A     -0.994361
      10A     -0.903286    11A     -0.822787    12A     -0.777849
      13A     -0.664347    14A     -0.633930    15A     -0.615394
      16A     -0.604721    17A     -0.563815    18A     -0.552140
      19A     -0.521163    20A     -0.499970    21A     -0.488355
      22A     -0.461954    23A     -0.454123    24A     -0.451242
      25A     -0.380901

  @DF-RHF Final Energy:  -251.34961362418906

   => Energetics <=

    Nuclear Repulsion Energy =            249.6291474071436767
    One-Electron Energy =                -833.4463011460059079
    Two-Electron Energy =                 332.4675401146733407
    DFT Exchange-Correlation Energy =       0.0000000000000000
    Empirical Dispersion Energy =           0.0000000000000000
    PCM Polarization Energy =               0.0000000000000000
    EFP Energy =                            0.0000000000000000
    Total Energy =                       -251.3496136241888621

  Mulliken Charges: (a.u.)
   Center  Symbol    Alpha    Beta     Spin     Total
       1     H     0.33251  0.33251  0.00000  0.33498
       2     N     3.92188  3.92188  0.00000 -0.84376
       3     C     3.05965  3.05965  0.00000 -0.11930
       4     H     0.33540  0.33540  0.00000  0.32921
       5     C     3.15390  3.15390  0.00000 -0.30780
       6     H     0.42099  0.42099  0.00000  0.15802
       7     H     0.43481  0.43481  0.00000  0.13039
       8     C     3.15672  3.15672  0.00000 -0.31344
       9     H     0.41328  0.41328  0.00000  0.17344
      10     H     0.42591  0.42591  0.00000  0.14818
      11     C     3.15208  3.15208  0.00000 -0.30416
      12     H     0.42154  0.42154  0.00000  0.15691
      13     H     0.42502  0.42502  0.00000  0.14997
      14     C     3.24204  3.24204  0.00000 -0.48407
      15     H     0.42094  0.42094  0.00000  0.15811
      16     H     0.42202  0.42202  0.00000  0.15595
      17     H     0.42269  0.42269  0.00000  0.15462
      18     H     0.41898  0.41898  0.00000  0.16204
      19     H     0.41965  0.41965  0.00000  0.16071

   Total alpha = 25.00000, Total beta = 25.00000, Total charge = -0.00000
