  ==> Input File <==

--------------------------------------------------------------------------
set {
	reference rhf
	basis 6-31G*
}

set_num_threads( 4 )
memory 2 gb

molecule MOL {
0 1

H	 -1.988595	 1.669378	 -1.305470
C	 -0.978421	 1.279402	 -1.351194
C	 -0.603454	 0.661669	 0.000000
H	 -0.309057	 2.092313	 -1.605298
H	 -0.932484	 0.540325	 -2.141824
C	 0.763625	 0.112519	 0.000000
H	 -0.665025	 1.400899	 0.790138
H	 -1.284502	 -0.141255	 0.257013
N	 1.813038	 -0.320305	 0.000000

	symmetry c1
}
set optking {
	frozen_dihedral = ("
		7 3 6 9
	")
}

ee = optimize('scf')
oeprop('DIPOLE', 'QUADRUPOLE', 'MULLIKEN_CHARGES')
f=open( 'psi4out.xyz', 'w' )
f.write( "9  " )
f.write( str(ee) + "\n" )
f.write( MOL.save_string_xyz() )
f.close()
--------------------------------------------------------------------------

    Molecular point group: c1
  Charge       = 0
  Multiplicity = 1
  Basis Set: 6-31G*
  Basis Set:
  @DF-RHF Final Energy:  -170.96242050764448
    Total Energy =                       -170.9624205076445662
    Molecular point group: c1
  Basis Set: 6-31G*
  Basis Set:
  Basis Set: 6-31G*
  Basis Set:
  @DF-RHF Final Energy:  -170.42658564493453
    Total Energy =                       -170.4265856449346472
  Basis Set: 6-31G*
  Basis Set:
  Basis Set: 6-31G*
  Basis Set:
  @DF-RHF Final Energy:  -170.43786665139771
    Total Energy =                       -170.4378666513977976
  Basis Set: 6-31G*
  Basis Set:
  Basis Set: 6-31G*
  Basis Set:
  @DF-RHF Final Energy:  -170.44412068016402
    Total Energy =                       -170.4441206801640476
  Basis Set: 6-31G*
  Basis Set:
  @DF-RHF Final Energy:  -170.44774627311170
    Total Energy =                       -170.4477462731117328
  @DF-RHF Final Energy:  -170.45292267472175
    Total Energy =                       -170.4529226747217763
  @DF-RHF Final Energy:  -170.46711320133045
    Total Energy =                       -170.4671132013304771
  @DF-RHF Final Energy:  -170.49645796098901
    Total Energy =                       -170.4964579609889768
  @DF-RHF Final Energy:  -170.73347898030286
    Total Energy =                       -170.7334789803027775
  @DF-RHF Final Energy:  -170.88499473792160
    Total Energy =                       -170.8849947379216587
  @DF-RHF Final Energy:  -170.74254221266614
    Total Energy =                       -170.7425422126660806
  @DF-RHF Final Energy:  -170.92939381467875
    Total Energy =                       -170.9293938146787468
  @DF-RHF Final Energy:  -170.75038479153596
    Total Energy =                       -170.7503847915359643
  @DF-RHF Final Energy:  -170.90546791333895
    Total Energy =                       -170.9054679133389527
  @DF-RHF Final Energy:  -170.72309041242383
    Total Energy =                       -170.7230904124237441
  @DF-RHF Final Energy:  -170.90422522448699
    Total Energy =                       -170.9042252244869928
  @DF-RHF Final Energy:  -170.91305645177465
    Total Energy =                       -170.9130564517745370
  @DF-RHF Final Energy:  -170.93596890809602
    Total Energy =                       -170.9359689080959868
  @DF-RHF Final Energy:  -170.95528220739905
    Total Energy =                       -170.9552822073990512
  @DF-RHF Final Energy:  -170.95968477156674
    Total Energy =                       -170.9596847715667423
  @DF-RHF Final Energy:  -170.93248167468670
    Total Energy =                       -170.9324816746866702
  @DF-RHF Final Energy:  -170.93497732174365
    Total Energy =                       -170.9349773217437019
  @DF-RHF Final Energy:  -170.94421602079535
    Total Energy =                       -170.9442160207953521
  @DF-RHF Final Energy:  -170.95926251638704
    Total Energy =                       -170.9592625163870707
  @DF-RHF Final Energy:  -170.96210709891940
    Total Energy =                       -170.9621070989194322
  @DF-RHF Final Energy:  -170.96131634356962
    Total Energy =                       -170.9613163435697061
  @DF-RHF Final Energy:  -170.96232888337431
    Total Energy =                       -170.9623288833743118
  @DF-RHF Final Energy:  -170.96232591976073
    Total Energy =                       -170.9623259197607013
  @DF-RHF Final Energy:  -170.93710744808271
    Total Energy =                       -170.9371074480826849
  @DF-RHF Final Energy:  -170.93796249157742
    Total Energy =                       -170.9379624915774230
  @DF-RHF Final Energy:  -170.95871130633702
    Total Energy =                       -170.9587113063371078
  @DF-RHF Final Energy:  -170.95848628901211
    Total Energy =                       -170.9584862890120576
  @DF-RHF Final Energy:  -170.96226908055678
    Total Energy =                       -170.9622690805568368
  @DF-RHF Final Energy:  -170.96242779602841
    Total Energy =                       -170.9624277960283507
  @DF-RHF Final Energy:  -170.96239849236139
    Total Energy =                       -170.9623984923614728
  @DF-RHF Final Energy:  -170.96241180549868
    Total Energy =                       -170.9624118054986184
  Basis Set: 6-31G*
  Basis Set:
  @DF-RHF Final Energy:  -170.96241986151881
    Total Energy =                       -170.9624198615188391
  Basis Set: 6-31G*
  Basis Set:
  Basis Set: 6-31G*
  Basis Set:
  @DF-RHF Final Energy:  -170.96243230455670
    Total Energy =                       -170.9624323045567280
  Basis Set: 6-31G*
  Basis Set:
  Basis Set: 6-31G*
  Basis Set:
  @DF-RHF Final Energy:  -170.96241595058729
    Total Energy =                       -170.9624159505872854
  Basis Set: 6-31G*
  Basis Set:
  Charge       = 0
  Multiplicity = 1
  Basis Set: 6-31G*
  Basis Set:

    Orbital Energies (a.u.)
    -----------------------

    Doubly Occupied:

       1A    -15.567145     2A    -11.283722     3A    -11.269492
       4A    -11.245854     5A     -1.224409     6A     -1.082256
       7A     -0.911696     8A     -0.699413     9A     -0.659409
      10A     -0.587712    11A     -0.560807    12A     -0.543873
      13A     -0.536571    14A     -0.458506    15A     -0.458427

  @DF-RHF Final Energy:  -170.96242709546055

   => Energetics <=

    Nuclear Repulsion Energy =            103.3927608168578871
    One-Electron Energy =                -434.5317873773807378
    Two-Electron Energy =                 160.1765994650623384
    DFT Exchange-Correlation Energy =       0.0000000000000000
    Empirical Dispersion Energy =           0.0000000000000000
    PCM Polarization Energy =               0.0000000000000000
    EFP Energy =                            0.0000000000000000
    Total Energy =                       -170.9624270954604981
    Molecular point group: c1
  Basis Set: 6-31G*
  Basis Set:

  -Total Gradient:
     Atom            X                  Y                   Z
    ------   -----------------  -----------------  -----------------
       1       -0.000014006397     0.000000143669     0.000023820449
       2        0.000108153892    -0.000018746139    -0.000006696467
       3        0.000067029647     0.000459310673     0.000315278023
       4       -0.000017600550    -0.000009604307    -0.000002094219
       5        0.000022265819    -0.000006013946     0.000017863306
       6       -0.000831700734    -0.000531152531    -0.000695169834
       7       -0.000209986543     0.000069750485     0.000023908668
       8        0.000063310018    -0.000039906703     0.000035929113
       9        0.000812534849     0.000076218798     0.000287160962

    Molecular point group: c1

    Geometry (in Angstrom), charge = 0, multiplicity = 1:

    H           -2.195786500348     1.205038991054    -0.885156501982
    C           -1.190365189703     0.806577436466    -0.956675708571
    C           -0.784589256046     0.189019601533     0.385625804369
    H           -0.521575546889     1.613412545963    -1.230817258379
    H           -1.171849179896     0.065249463211    -1.746422557845
    C            0.581402121898    -0.361433908468     0.354842879486
    H           -0.825258847863     0.929111685211     1.176337937028
    H           -1.461186800791    -0.612214064649     0.659478536477
    N            1.638683725250    -0.773801592301     0.331136019990

  Mulliken Charges: (a.u.)
   Center  Symbol    Alpha    Beta     Spin     Total
       1     H     0.40906  0.40906  0.00000  0.18187
       2     C     3.24300  3.24300  0.00000 -0.48600
       3     C     3.18193  3.18193  0.00000 -0.36385
       4     H     0.40535  0.40535  0.00000  0.18929
       5     H     0.40542  0.40542  0.00000  0.18917
       6     C     2.84847  2.84847  0.00000  0.30305
       7     H     0.38841  0.38841  0.00000  0.22318
       8     H     0.38865  0.38865  0.00000  0.22270
       9     N     3.72971  3.72971  0.00000 -0.45941

   Total alpha = 15.00000, Total beta = 15.00000, Total charge =  0.00000
