  ==> Input File <==

--------------------------------------------------------------------------
set {
	reference rhf
	basis cc-pvtz
}

set_num_threads( 4 )
memory 2 gb

molecule MOL {
0 1

O	 -0.694481	 1.313155	 -0.204815
C	 -0.862519	 0.151932	 -0.046791
C	 -2.171428	 -0.477048	 0.339095
O	 0.085519	 -0.757083	 -0.192238
H	 -2.467997	 -1.191667	 -0.417688
H	 -2.923379	 0.287970	 0.444097
H	 -2.053854	 -1.015120	 1.270901
C	 1.392036	 -0.330828	 -0.560749
C	 2.338134	 -0.339095	 0.621930
H	 1.333611	 0.650457	 -1.005137
H	 1.709074	 -1.038734	 -1.311820
H	 3.335898	 -0.074158	 0.290677
H	 2.027431	 0.376818	 1.370471
H	 2.379109	 -1.323523	 1.072280

	symmetry c1
}
set optking {
	frozen_dihedral = ("
		10 8 4 2
	")
}

ee = optimize('scf')
oeprop('DIPOLE', 'QUADRUPOLE', 'MULLIKEN_CHARGES')
f=open( 'psi4out.xyz', 'w' )
f.write( "14  " )
f.write( str(ee) + "\n" )
f.write( MOL.save_string_xyz() )
f.close()
--------------------------------------------------------------------------

    Molecular point group: c1
  Charge       = 0
  Multiplicity = 1
  Basis Set: CC-PVTZ
  Basis Set:
  @DF-RHF Final Energy:  -305.99043456387028
    Total Energy =                       -305.9904345638701670
    Molecular point group: c1
  Basis Set: CC-PVTZ
  Basis Set:
  Basis Set: CC-PVTZ
  Basis Set:
  @DF-RHF Final Energy:  -305.99050584582022
    Total Energy =                       -305.9905058458203371
  Basis Set: CC-PVTZ
  Basis Set:
  Basis Set: CC-PVTZ
  Basis Set:
  @DF-RHF Final Energy:  -305.99034897270440
    Total Energy =                       -305.9903489727046235
  Basis Set: CC-PVTZ
  Basis Set:
  Basis Set: CC-PVTZ
  Basis Set:
  @DF-RHF Final Energy:  -305.99062115697211
    Total Energy =                       -305.9906211569722245
  Basis Set: CC-PVTZ
  Basis Set:
  Basis Set: CC-PVTZ
  Basis Set:
  @DF-RHF Final Energy:  -305.99062950907125
    Total Energy =                       -305.9906295090710273
  Basis Set: CC-PVTZ
  Basis Set:
  Charge       = 0
  Multiplicity = 1
  Basis Set: CC-PVTZ
  Basis Set:

    Orbital Energies (a.u.)
    -----------------------

    Doubly Occupied:

       1A    -20.593954     2A    -20.532814     3A    -11.368408
       4A    -11.282167     5A    -11.231408     6A    -11.218998
       7A     -1.469630     8A     -1.366031     9A     -1.057003
      10A     -0.999867    11A     -0.881112    12A     -0.771643
      13A     -0.700857    14A     -0.685750    15A     -0.660212
      16A     -0.613305    17A     -0.584890    18A     -0.570139
      19A     -0.561965    20A     -0.529379    21A     -0.520583
      22A     -0.495626    23A     -0.452533    24A     -0.443261

  @DF-RHF Final Energy:  -305.99062978236958

   => Energetics <=

    Nuclear Repulsion Energy =            247.8439691405159806
    One-Electron Energy =                -908.4861264169430797
    Two-Electron Energy =                 354.6515274940575182
    DFT Exchange-Correlation Energy =       0.0000000000000000
    Empirical Dispersion Energy =           0.0000000000000000
    PCM Polarization Energy =               0.0000000000000000
    EFP Energy =                            0.0000000000000000
    Total Energy =                       -305.9906297823695240
    Molecular point group: c1
  Basis Set: CC-PVTZ
  Basis Set:

  -Total Gradient:
     Atom            X                  Y                   Z
    ------   -----------------  -----------------  -----------------
       1       -0.000042087730     0.000028140630     0.000006386302
       2       -0.000257181581    -0.000127143070    -0.001043113777
       3       -0.000002741533     0.000006557063    -0.000046869880
       4        0.000413891875     0.000240814935     0.001782058927
       5        0.000006288876    -0.000003345516     0.000012611637
       6       -0.000003430478     0.000002197588     0.000006341770
       7        0.000007641289     0.000012044531     0.000010228770
       8       -0.000376022080    -0.000675321919    -0.001848120786
       9        0.000054570801     0.000004102863    -0.000026081178
      10        0.000194461462     0.000516729069     0.001124949007
      11       -0.000020454484    -0.000005350968     0.000018000666
      12        0.000032967885     0.000001691514     0.000021344923
      13       -0.000005968945    -0.000003392854    -0.000012793332
      14       -0.000001935354     0.000002276133    -0.000004943049

  **** Optimization is complete! (in 6 steps) ****
    Final optimized geometry and variables:
    Molecular point group: c1

    Geometry (in Angstrom), charge = 0, multiplicity = 1:

    O           -0.717185932883     1.392856602358    -0.170753248237
    C           -0.881746413315     0.228625047089    -0.035180928266
    C           -2.189794442750    -0.409113052571     0.339223104533
    O            0.066299591253    -0.679674408491    -0.191163447222
    H           -2.486627732796    -1.108048667026    -0.431945061060
    H           -2.942154646028     0.352962821335     0.461024933082
    H           -2.070507697743    -0.966420788928     1.259374946340
    C            1.372817991048    -0.270204081282    -0.578791086436
    C            2.302858081829    -0.265687974687     0.616296889276
    H            1.322330253348     0.707321455608    -1.028312729443
    H            1.694032121634    -0.989499329385    -1.317823400442
    H            3.307388132481    -0.009421687781     0.299129697220
    H            1.981586847864     0.464638293339     1.348319867136
    H            2.330656771103    -1.240436393289     1.087359066071

  Mulliken Charges: (a.u.)
   Center  Symbol    Alpha    Beta     Spin     Total
       1     O     4.19892  4.19892  0.00000 -0.39785
       2     C     2.80069  2.80069  0.00000  0.39863
       3     C     3.13961  3.13961  0.00000 -0.27921
       4     O     4.15832  4.15832  0.00000 -0.31664
       5     H     0.44585  0.44585  0.00000  0.10831
       6     H     0.43829  0.43829  0.00000  0.12342
       7     H     0.44597  0.44597  0.00000  0.10807
       8     C     2.98621  2.98621  0.00000  0.02758
       9     C     3.14208  3.14208  0.00000 -0.28416
      10     H     0.44502  0.44502  0.00000  0.10996
      11     H     0.44709  0.44709  0.00000  0.10583
      12     H     0.45255  0.45255  0.00000  0.09490
      13     H     0.44747  0.44747  0.00000  0.10506
      14     H     0.45194  0.45194  0.00000  0.09611

   Total alpha = 24.00000, Total beta = 24.00000, Total charge = -0.00000
