                              Psi4 1.0.54 Driver

  ==> Input File <==

--------------------------------------------------------------------------
set {
	reference rhf
	basis cc-pvtz
}

set_num_threads( 4 )
memory 2 gb

molecule MOL {
0 1

H	 1.333865	 1.703308	 -2.997354
O	 2.181500	 1.335243	 -3.164305
C	 2.777113	 0.922771	 -1.962480
C	 2.147740	 -0.330438	 -1.372527
H	 3.815000	 0.729839	 -2.198168
H	 2.757208	 1.729789	 -1.232566
C	 0.700587	 -0.151643	 -0.919065
H	 2.204410	 -1.125407	 -2.110070
H	 2.754228	 -0.641812	 -0.525404
C	 0.113298	 -1.420414	 -0.302504
H	 0.094439	 0.152567	 -1.765849
H	 0.648561	 0.655851	 -0.190688
C	 -1.311023	 -1.277304	 0.237018
H	 0.139426	 -2.220108	 -1.038734
H	 0.758335	 -1.738757	 0.511778
C	 -2.041121	 -0.006551	 -0.194127
H	 -1.888548	 -2.136293	 -0.093331
H	 -1.289731	 -1.328757	 1.323321
C	 -3.489218	 0.042606	 0.286507
H	 -2.022185	 0.066287	 -1.279394
H	 -1.518764	 0.869305	 0.178730
C	 -4.219984	 1.311773	 -0.139038
H	 -4.022855	 -0.824300	 -0.093339
H	 -3.510372	 -0.038577	 1.370031
H	 -4.244251	 1.405725	 -1.219696
H	 -5.244345	 1.313233	 0.215630
H	 -3.732090	 2.196311	 0.257073

	symmetry c1
}
set optking {
	frozen_dihedral = ("
		14 10 13 16
	")
}

ee,wfn = optimize('scf', return_wfn=True)
oeprop( wfn, 'DIPOLE', 'QUADRUPOLE', 'MULLIKEN_CHARGES')
f=open( 'psi4out.xyz', 'w' )
f.write( "27  " )
f.write( str(ee) + "\n" )
f.write( MOL.save_string_xyz() )
f.close()
--------------------------------------------------------------------------

    Molecular point group: c1
  Charge       = 0
  Multiplicity = 1
  Basis Set: CC-PVTZ
  Basis Set:
  @DF-RHF Final Energy:  -388.41838964910272
    Total Energy =                       -388.4183896491024370
    Molecular point group: c1
  Basis Set: CC-PVTZ
  Basis Set:
  Basis Set: CC-PVTZ
  Basis Set:
  @DF-RHF Final Energy:  -388.41846230964887
    Total Energy =                       -388.4184623096491578
  Basis Set: CC-PVTZ
  Basis Set:
  Basis Set: CC-PVTZ
  Basis Set:
  @DF-RHF Final Energy:  -388.42021363015380
    Total Energy =                       -388.4202136301536257
  Basis Set: CC-PVTZ
  Basis Set:
  Basis Set: CC-PVTZ
  Basis Set:
  @DF-RHF Final Energy:  -388.42030259325020
    Total Energy =                       -388.4203025932504261
  Basis Set: CC-PVTZ
  Basis Set:
  Basis Set: CC-PVTZ
  Basis Set:
  @DF-RHF Final Energy:  -388.42030377178907
    Total Energy =                       -388.4203037717892357
  Basis Set: CC-PVTZ
  Basis Set:
  Basis Set: CC-PVTZ
  Basis Set:
  @DF-RHF Final Energy:  -388.42031024219210
    Total Energy =                       -388.4203102421915901
  Basis Set: CC-PVTZ
  Basis Set:
  Basis Set: CC-PVTZ
  Basis Set:
  @DF-RHF Final Energy:  -388.42031162546601
    Total Energy =                       -388.4203116254657289
  Basis Set: CC-PVTZ
  Basis Set:
  Charge       = 0
  Multiplicity = 1
  Basis Set: CC-PVTZ
  Basis Set:

    Orbital Energies (a.u.)
    -----------------------

    Doubly Occupied:

       1A    -20.545193     2A    -11.264875     3A    -11.217038
       4A    -11.214844     5A    -11.213999     6A    -11.213543
       7A    -11.213070     8A    -11.212407     9A    -11.207692
      10A     -1.363101    11A     -1.094172    12A     -1.062626
      13A     -1.010202    14A     -0.949363    15A     -0.890915
      16A     -0.820965    17A     -0.807467    18A     -0.769383
      19A     -0.696090    20A     -0.658606    21A     -0.633983
      22A     -0.614867    23A     -0.604063    24A     -0.585918
      25A     -0.576307    26A     -0.554109    27A     -0.540237
      28A     -0.532093    29A     -0.507341    30A     -0.497967
      31A     -0.488606    32A     -0.474831    33A     -0.467805
      34A     -0.456516    35A     -0.445875    36A     -0.443165
      37A     -0.426359

  @DF-RHF Final Energy:  -388.42031171101445

   => Energetics <=

    Nuclear Repulsion Energy =            461.9673170386504921
    One-Electron Energy =               -1442.2240605848173800
    Two-Electron Energy =                 591.8364318351525526
    DFT Exchange-Correlation Energy =       0.0000000000000000
    Empirical Dispersion Energy =           0.0000000000000000
    PCM Polarization Energy =               0.0000000000000000
    EFP Energy =                            0.0000000000000000
    Total Energy =                       -388.4203117110143921
    Molecular point group: c1
  Basis Set: CC-PVTZ
  Basis Set:

  -Total Gradient:
     Atom            X                  Y                   Z
    ------   -----------------  -----------------  -----------------
       1        0.000004477214     0.000002072041    -0.000004790468
       2       -0.000007139716     0.000008759017    -0.000001395853
       3        0.000008840230    -0.000004959617    -0.000000507688
       4       -0.000005775245    -0.000007854942    -0.000007647711
       5        0.000002648178     0.000001294897     0.000004812491
       6       -0.000002866906     0.000001378429    -0.000004249332
       7        0.000008854512     0.000003031069     0.000015563808
       8        0.000002944373    -0.000002692862    -0.000000407163
       9       -0.000004199161     0.000002045663     0.000001042079
      10       -0.000652539887     0.004264798502    -0.002852573452
      11       -0.000004691909    -0.000006975553     0.000006052503
      12        0.000003967878    -0.000001963151    -0.000000595909
      13       -0.001388164643    -0.003112180053    -0.003162962700
      14        0.000936673775    -0.002841777367     0.003306080775
      15        0.000002800711     0.000004599733    -0.000002729424
      16        0.001102062333     0.001691126434     0.002704646994
      17       -0.000004684680    -0.000002046190     0.000002802044
      18       -0.000001811216     0.000004681789    -0.000004290462
      19        0.000005346151     0.000005819141     0.000009824984
      20        0.000003187945    -0.000003253328     0.000000838411
      21       -0.000006676051    -0.000001507384    -0.000000468647
      22       -0.000004298967    -0.000003963235    -0.000005235591
      23        0.000000422268     0.000003534685    -0.000001994066
      24        0.000000394418    -0.000002076147     0.000000228826
      25       -0.000001029241     0.000002356028    -0.000001060456
      26        0.000000868849     0.000000201763    -0.000002211353
      27        0.000000388790    -0.000004449365     0.000001227361

  **** Optimization is complete! (in 8 steps) ****
    Final optimized geometry and variables:
    Molecular point group: c1

    Geometry (in Angstrom), charge = 0, multiplicity = 1:

    H            1.826687767151     1.669115597227    -2.083484356207
    O            2.651626849033     1.255996971377    -2.257945995316
    C            3.219340423753     0.781887673159    -1.065458689201
    C            2.513203563285    -0.442250460963    -0.502038575353
    H            4.243548711612     0.530258997027    -1.305551980407
    H            3.248711944114     1.572989609789    -0.318675223144
    C            1.077685298279    -0.183823777310    -0.049471536726
    H            2.524489305060    -1.224570510934    -1.254862943413
    H            3.096675851291    -0.806183021944     0.340263312534
    C            0.430070207522    -1.430828669790     0.549868615094
    H            0.491391961277     0.162648349676    -0.893587326018
    H            1.076434273782     0.619266997822     0.683545589502
    C           -1.025300444103    -1.307454853944     1.067078991026
    H            0.487505519311    -2.244487964916    -0.166574527550
    H            1.051114836494    -1.759119909886     1.378272270097
    C           -1.825799438319    -0.081651642504     0.626140928451
    H           -1.572597344597    -2.200644972241     0.785095533168
    H           -1.006731311876    -1.306929303771     2.152962722691
    C           -3.242226034081    -0.076011924347     1.195799860253
    H           -1.884611057100    -0.042638510592    -0.458615530466
    H           -1.318217457401     0.825380041596     0.938193706642
    C           -4.053750561977     1.143787078134     0.772178852795
    H           -3.759317002470    -0.978548603004     0.881906303675
    H           -3.192909199865    -0.116097142741     2.280590525207
    H           -4.151593807875     1.193579180748    -0.307254592673
    H           -5.052348102157     1.116950857438     1.192987700301
    H           -3.580981629372     2.062872137279     1.102544523562

  Mulliken Charges: (a.u.)
   Center  Symbol    Alpha    Beta     Spin     Total
       1     H     0.39230  0.39230  0.00000  0.21539
       2     O     4.20561  4.20561  0.00000 -0.41122
       3     C     2.97998  2.97998  0.00000  0.04004
       4     C     3.08936  3.08936  0.00000 -0.17871
       5     H     0.44860  0.44860  0.00000  0.10280
       6     H     0.46988  0.46988  0.00000  0.06024
       7     C     3.10604  3.10604  0.00000 -0.21208
       8     H     0.45092  0.45092  0.00000  0.09815
       9     H     0.45545  0.45545  0.00000  0.08910
      10     C     3.09678  3.09678  0.00000 -0.19357
      11     H     0.45348  0.45348  0.00000  0.09305
      12     H     0.45205  0.45205  0.00000  0.09591
      13     C     3.09585  3.09585  0.00000 -0.19171
      14     H     0.44997  0.44997  0.00000  0.10007
      15     H     0.45134  0.45134  0.00000  0.09733
      16     C     3.09122  3.09122  0.00000 -0.18245
      17     H     0.44948  0.44948  0.00000  0.10105
      18     H     0.45302  0.45302  0.00000  0.09396
      19     C     3.08457  3.08457  0.00000 -0.16914
      20     H     0.45396  0.45396  0.00000  0.09208
      21     H     0.45258  0.45258  0.00000  0.09484
      22     C     3.15004  3.15004  0.00000 -0.30008
      23     H     0.45378  0.45378  0.00000  0.09244
      24     H     0.45460  0.45460  0.00000  0.09079
      25     H     0.45524  0.45524  0.00000  0.08953
      26     H     0.44806  0.44806  0.00000  0.10388
      27     H     0.45584  0.45584  0.00000  0.08832

   Total alpha = 37.00000, Total beta = 37.00000, Total charge = -0.00000

*** Psi4 exiting successfully. Buy a developer a beer!
