                              Psi4 1.0.54 Driver

  ==> Input File <==

--------------------------------------------------------------------------
set {
	reference rhf
	basis cc-pvtz
}

set_num_threads( 4 )
memory 2 gb

molecule MOL {
0 1

O	 -0.694481	 1.313155	 -0.204815
C	 -0.862519	 0.151932	 -0.046791
C	 -2.171428	 -0.477048	 0.339095
O	 0.085519	 -0.757083	 -0.192238
H	 -2.467997	 -1.191667	 -0.417688
H	 -2.923379	 0.287970	 0.444097
H	 -2.053854	 -1.015120	 1.270901
C	 0.282663	 -1.712514	 0.843507
C	 -0.648945	 -2.897629	 0.696855
H	 0.152320	 -1.231490	 1.800295
H	 1.313067	 -2.018338	 0.741083
H	 -0.424659	 -3.632684	 1.461605
H	 -1.680817	 -2.594377	 0.809374
H	 -0.523437	 -3.365377	 -0.272192

	symmetry c1
}
set optking {
	frozen_dihedral = ("
		8 4 2 1
	")
}

ee,wfn = optimize('scf', return_wfn=True)
oeprop( wfn, 'DIPOLE', 'QUADRUPOLE', 'MULLIKEN_CHARGES')
f=open( 'psi4out.xyz', 'w' )
f.write( "14  " )
f.write( str(ee) + "\n" )
f.write( MOL.save_string_xyz() )
f.close()
--------------------------------------------------------------------------

    Molecular point group: c1
  Charge       = 0
  Multiplicity = 1
  Basis Set: CC-PVTZ
  Basis Set:
  @DF-RHF Final Energy:  -305.95608738572298
    Total Energy =                       -305.9560873857229808
    Molecular point group: c1
  Basis Set: CC-PVTZ
  Basis Set:
  Basis Set: CC-PVTZ
  Basis Set:
  @DF-RHF Final Energy:  -305.96783069120539
    Total Energy =                       -305.9678306912054495
  Basis Set: CC-PVTZ
  Basis Set:
  Basis Set: CC-PVTZ
  Basis Set:
  @DF-RHF Final Energy:  -305.96705153824144
    Total Energy =                       -305.9670515382416056
  Basis Set: CC-PVTZ
  Basis Set:
  Basis Set: CC-PVTZ
  Basis Set:
  @DF-RHF Final Energy:  -305.97031276647169
    Total Energy =                       -305.9703127664718068
  Basis Set: CC-PVTZ
  Basis Set:
  @DF-RHF Final Energy:  -305.97007034585619
    Total Energy =                       -305.9700703458561293
  @DF-RHF Final Energy:  -305.97151460185444
    Total Energy =                       -305.9715146018544374
  @DF-RHF Final Energy:  -305.97170802917333
    Total Energy =                       -305.9717080291733282
  @DF-RHF Final Energy:  -305.97177488352821
    Total Energy =                       -305.9717748835283828
  Basis Set: CC-PVTZ
  Basis Set:
  @DF-RHF Final Energy:  -305.97180852197846
    Total Energy =                       -305.9718085219784598
  Basis Set: CC-PVTZ
  Basis Set:
  Basis Set: CC-PVTZ
  Basis Set:
  @DF-RHF Final Energy:  -305.97181782971461
    Total Energy =                       -305.9718178297143822
  Basis Set: CC-PVTZ
  Basis Set:
  Basis Set: CC-PVTZ
  Basis Set:
  @DF-RHF Final Energy:  -305.97181937654955
    Total Energy =                       -305.9718193765497745
  Basis Set: CC-PVTZ
  Basis Set:
  Charge       = 0
  Multiplicity = 1
  Basis Set: CC-PVTZ
  Basis Set:

    Orbital Energies (a.u.)
    -----------------------

    Doubly Occupied:

       1A    -20.582604     2A    -20.536665     3A    -11.370016
       4A    -11.298076     5A    -11.239001     6A    -11.228717
       7A     -1.461511     8A     -1.368821     9A     -1.049910
      10A     -1.016126    11A     -0.889490    12A     -0.779930
      13A     -0.700074    14A     -0.690163    15A     -0.656368
      16A     -0.622272    17A     -0.594038    18A     -0.583503
      19A     -0.562847    20A     -0.544819    21A     -0.525112
      22A     -0.489457    23A     -0.453427    24A     -0.439740

  @DF-RHF Final Energy:  -305.97181959680495

   => Energetics <=

    Nuclear Repulsion Energy =            247.0187991725215113
    One-Electron Energy =                -906.6158670540573894
    Two-Electron Energy =                 353.6252482847309011
    DFT Exchange-Correlation Energy =       0.0000000000000000
    Empirical Dispersion Energy =           0.0000000000000000
    PCM Polarization Energy =               0.0000000000000000
    EFP Energy =                            0.0000000000000000
    Total Energy =                       -305.9718195968049486
    Molecular point group: c1
  Basis Set: CC-PVTZ
  Basis Set:

  -Total Gradient:
     Atom            X                  Y                   Z
    ------   -----------------  -----------------  -----------------
       1        0.000307549543     0.000501740267     0.002624701832
       2        0.000432669770    -0.000019503192    -0.003233388066
       3       -0.000007120390     0.000024037688     0.000042785246
       4       -0.002235901976    -0.001799949713    -0.000511369164
       5        0.000008499162     0.000007683244    -0.000008115317
       6        0.000000431805    -0.000007010838    -0.000003271134
       7       -0.000006191739    -0.000022637392    -0.000002061426
       8        0.001514427851     0.001282903927     0.001114167653
       9        0.000005657479     0.000003169583     0.000005386790
      10        0.000006962500     0.000004864274    -0.000022412210
      11       -0.000006949283     0.000007596225     0.000000799455
      12        0.000000376017     0.000003926509    -0.000002884062
      13       -0.000015499496     0.000006384685    -0.000009803128
      14       -0.000004911243     0.000006794739     0.000005463530

  **** Optimization is complete! (in 12 steps) ****
    Final optimized geometry and variables:
    Molecular point group: c1

    Geometry (in Angstrom), charge = 0, multiplicity = 1:

    O            0.227962539508     2.010987495910    -0.559643696707
    C           -0.171056138170     0.929427153326    -0.323265356499
    C           -1.638377875507     0.606021157395    -0.188342374373
    O            0.678163311729    -0.101729789182    -0.238589075859
    H           -1.928784375530    -0.032011472859    -1.014520392010
    H           -2.205431805512     1.521670176116    -0.221238004197
    H           -1.857352287794     0.076331218069     0.728276482543
    C            0.667928812982    -0.996354921987     0.860610805655
    C            0.254622599089    -2.388472008310     0.432148719798
    H            0.026607318860    -0.623144225787     1.648460513134
    H            1.677884595279    -1.003501394119     1.244627748249
    H            0.337559427209    -3.072920012814     1.268828135226
    H           -0.768539743911    -2.406591441586     0.077505642586
    H            0.897141252817    -2.740903772384    -0.364447355701

  Mulliken Charges: (a.u.)
   Center  Symbol    Alpha    Beta     Spin     Total
       1     O     4.17170  4.17170  0.00000 -0.34340
       2     C     2.81197  2.81197  0.00000  0.37606
       3     C     3.16033  3.16033  0.00000 -0.32066
       4     O     4.15242  4.15242  0.00000 -0.30484
       5     H     0.44267  0.44267  0.00000  0.11466
       6     H     0.42893  0.42893  0.00000  0.14213
       7     H     0.45091  0.45091  0.00000  0.09818
       8     C     2.99702  2.99702  0.00000  0.00597
       9     C     3.13515  3.13515  0.00000 -0.27030
      10     H     0.45798  0.45798  0.00000  0.08403
      11     H     0.43849  0.43849  0.00000  0.12302
      12     H     0.45228  0.45228  0.00000  0.09543
      13     H     0.45429  0.45429  0.00000  0.09142
      14     H     0.44585  0.44585  0.00000  0.10829

   Total alpha = 24.00000, Total beta = 24.00000, Total charge = -0.00000

*** Psi4 exiting successfully. Buy a developer a beer!
