  ==> Input File <==

--------------------------------------------------------------------------
set {
	reference rhf
	basis cc-pvtz
}

set_num_threads( 4 )
memory 2 gb

molecule MOL {
0 1

H	 -1.303528	 0.354660	 -2.311941
C	 -1.072154	 -0.512550	 -1.697696
O	 -1.401606	 -0.295183	 -0.366624
H	 -1.653306	 -1.352516	 -2.049277
H	 -0.015301	 -0.745129	 -1.815398
C	 -0.718530	 0.758693	 0.228682
C	 0.718529	 0.758687	 -0.228709
H	 -1.176498	 1.708665	 -0.046615
H	 -0.748705	 0.673525	 1.312779
O	 1.401606	 -0.295166	 0.366636
H	 0.748705	 0.673477	 -1.312803
H	 1.176496	 1.708671	 0.046552
C	 2.714315	 -0.441627	 -0.061017
H	 2.765292	 -0.641548	 -1.128869
H	 3.305661	 0.447341	 0.150952
H	 3.143725	 -1.278506	 0.470147

	symmetry c1
}
set optking {
	frozen_dihedral = ("
		2 3 6 7
	")
}

ee = optimize('scf')
oeprop('DIPOLE', 'QUADRUPOLE', 'MULLIKEN_CHARGES')
f=open( 'psi4out.xyz', 'w' )
f.write( "16  " )
f.write( str(ee) + "\n" )
f.write( MOL.save_string_xyz() )
f.close()
--------------------------------------------------------------------------

    Molecular point group: c1
  Charge       = 0
  Multiplicity = 1
  Basis Set: CC-PVTZ
  Basis Set:
  @DF-RHF Final Energy:  -307.08107373266392
    Total Energy =                       -307.0810737326639810
    Molecular point group: c1
  Basis Set: CC-PVTZ
  Basis Set:
  Basis Set: CC-PVTZ
  Basis Set:
  @DF-RHF Final Energy:  -307.08919122830633
    Total Energy =                       -307.0891912283063903
  Basis Set: CC-PVTZ
  Basis Set:
  Basis Set: CC-PVTZ
  Basis Set:
  @DF-RHF Final Energy:  -307.09203506222974
    Total Energy =                       -307.0920350622297974
  Basis Set: CC-PVTZ
  Basis Set:
  Basis Set: CC-PVTZ
  Basis Set:
  @DF-RHF Final Energy:  -307.09267666815333
    Total Energy =                       -307.0926766681537288
  Basis Set: CC-PVTZ
  Basis Set:
  Basis Set: CC-PVTZ
  Basis Set:
  @DF-RHF Final Energy:  -307.09285201910632
    Total Energy =                       -307.0928520191065445
  Basis Set: CC-PVTZ
  Basis Set:
  Basis Set: CC-PVTZ
  Basis Set:
  @DF-RHF Final Energy:  -307.09288334891181
    Total Energy =                       -307.0928833489120962
  Basis Set: CC-PVTZ
  Basis Set:
  Charge       = 0
  Multiplicity = 1
  Basis Set: CC-PVTZ
  Basis Set:

    Orbital Energies (a.u.)
    -----------------------

    Doubly Occupied:

       1A    -20.554941     2A    -20.543939     3A    -11.272754
       4A    -11.267620     5A    -11.267609     6A    -11.258436
       7A     -1.394105     8A     -1.371576     9A     -1.029957
      10A     -0.950463    11A     -0.900961    12A     -0.811410
      13A     -0.694478    14A     -0.683613    15A     -0.660719
      16A     -0.639329    17A     -0.630196    18A     -0.596687
      19A     -0.559627    20A     -0.534302    21A     -0.519286
      22A     -0.494028    23A     -0.451309    24A     -0.425614
      25A     -0.412125

  @DF-RHF Final Energy:  -307.09288697564574

   => Energetics <=

    Nuclear Repulsion Energy =            264.3942107951236835
    One-Electron Energy =                -943.1240227723295675
    Two-Electron Energy =                 371.6369250015600301
    DFT Exchange-Correlation Energy =       0.0000000000000000
    Empirical Dispersion Energy =           0.0000000000000000
    PCM Polarization Energy =               0.0000000000000000
    EFP Energy =                            0.0000000000000000
    Total Energy =                       -307.0928869756457971
    Molecular point group: c1
  Basis Set: CC-PVTZ
  Basis Set:

  -Total Gradient:
     Atom            X                  Y                   Z
    ------   -----------------  -----------------  -----------------
       1       -0.000008200891     0.000014073614     0.000008104579
       2        0.002108783569    -0.002045061000     0.000908120622
       3       -0.003408043448     0.003693222713    -0.002506773383
       4        0.000008187789     0.000007396759     0.000029611924
       5       -0.000005443868    -0.000021873202    -0.000034798820
       6        0.001900424805    -0.003223982380     0.003797004347
       7       -0.000618285568     0.001608842726    -0.002218410240
       8       -0.000013440917     0.000011941191    -0.000027018211
       9        0.000022180167     0.000022037807    -0.000008759486
      10        0.000070706753    -0.000029271053     0.000016238425
      11       -0.000025226200    -0.000004617006     0.000024194107
      12       -0.000008700463    -0.000013352370     0.000013269048
      13       -0.000020254112    -0.000019874304     0.000002877594
      14        0.000004033039     0.000005211999    -0.000002694447
      15       -0.000023908792     0.000002616559     0.000000739391
      16        0.000017188133    -0.000007312053    -0.000001705452

  **** Optimization is complete! (in 7 steps) ****
    Final optimized geometry and variables:
    Molecular point group: c1

    Geometry (in Angstrom), charge = 0, multiplicity = 1:

    H           -1.580754495000     0.242301954480    -2.038528447324
    C           -1.502703264342    -0.606592545649    -1.361038875051
    O           -1.733303776624    -0.240634815987    -0.039790460755
    H           -2.266553826972    -1.322822308174    -1.627086307841
    H           -0.532489849332    -1.072183235835    -1.490283105200
    C           -0.968657057065     0.791851058629     0.500812848224
    C            0.499178383008     0.822348277196     0.127825170537
    H           -1.390258129020     1.754476089551     0.208060540000
    H           -1.058574017740     0.701615889937     1.574261306400
    O            1.131774641835    -0.337349707431     0.560485622409
    H            0.630424238734     0.949048201727    -0.944574294378
    H            0.935984965724     1.698238131113     0.607400459134
    C            2.494346696040    -0.382799023707     0.293106811794
    H            2.693704647237    -0.327241944964    -0.775114942457
    H            3.023572263154     0.431423773250     0.783550388235
    H            2.874321777351    -1.321301766992     0.669103258386

  Mulliken Charges: (a.u.)
   Center  Symbol    Alpha    Beta     Spin     Total
       1     H     0.47516  0.47516  0.00000  0.04967
       2     C     3.03536  3.03536  0.00000 -0.07072
       3     O     4.17509  4.17509  0.00000 -0.35017
       4     H     0.44299  0.44299  0.00000  0.11403
       5     H     0.46519  0.46519  0.00000  0.06963
       6     C     2.96671  2.96671  0.00000  0.06659
       7     C     2.99596  2.99596  0.00000  0.00808
       8     H     0.47248  0.47248  0.00000  0.05504
       9     H     0.45329  0.45329  0.00000  0.09342
      10     O     4.17246  4.17246  0.00000 -0.34492
      11     H     0.46634  0.46634  0.00000  0.06732
      12     H     0.45791  0.45791  0.00000  0.08418
      13     C     3.03619  3.03619  0.00000 -0.07238
      14     H     0.47162  0.47162  0.00000  0.05676
      15     H     0.46851  0.46851  0.00000  0.06297
      16     H     0.44474  0.44474  0.00000  0.11051

   Total alpha = 25.00000, Total beta = 25.00000, Total charge =  0.00000
