                              Psi4 1.0.54 Driver

  ==> Input File <==

--------------------------------------------------------------------------
set {
	reference rhf
	basis cc-pvtz
}

set_num_threads( 4 )
memory 2 gb

molecule MOL {
0 1

O	 0.623971	 1.347241	 -0.000777
C	 0.485107	 0.171416	 -0.000134
C	 1.606966	 -0.836201	 0.000174
O	 -0.695554	 -0.422406	 0.000602
C	 2.988788	 -0.202529	 -0.000115
H	 1.465110	 -1.474645	 -0.864821
H	 1.465209	 -1.474077	 0.865596
H	 3.131767	 0.419673	 -0.873407
H	 3.750876	 -0.972315	 0.000098
H	 3.131883	 0.420264	 0.872742
C	 -1.288165	 -0.721079	 -1.255541
C	 -2.616268	 -1.391209	 -0.991806
H	 -0.623573	 -1.363837	 -1.815475
H	 -1.410294	 0.195535	 -1.815208
H	 -2.481542	 -2.307036	 -0.430128
H	 -3.096666	 -1.633463	 -1.932424
H	 -3.272775	 -0.738784	 -0.429925

	symmetry c1
}
set optking {
	frozen_dihedral = ("
		11 4 2 3
	")
}

ee,wfn = optimize('scf', return_wfn=True)
oeprop( wfn, 'DIPOLE', 'QUADRUPOLE', 'MULLIKEN_CHARGES')
f=open( 'psi4out.xyz', 'w' )
f.write( "17  " )
f.write( str(ee) + "\n" )
f.write( MOL.save_string_xyz() )
f.close()
--------------------------------------------------------------------------

    Molecular point group: c1
  Charge       = 0
  Multiplicity = 1
  Basis Set: CC-PVTZ
  Basis Set:
  @DF-RHF Final Energy:  -345.02039604723996
    Total Energy =                       -345.0203960472397853
    Molecular point group: c1
  Basis Set: CC-PVTZ
  Basis Set:
  Basis Set: CC-PVTZ
  Basis Set:
  @DF-RHF Final Energy:  -345.02147014092549
    Total Energy =                       -345.0214701409250893
  Basis Set: CC-PVTZ
  Basis Set:
  Basis Set: CC-PVTZ
  Basis Set:
  @DF-RHF Final Energy:  -345.02132762552282
    Total Energy =                       -345.0213276255229289
  Basis Set: CC-PVTZ
  Basis Set:
  Basis Set: CC-PVTZ
  Basis Set:
  @DF-RHF Final Energy:  -345.02169381870954
    Total Energy =                       -345.0216938187098776
  Basis Set: CC-PVTZ
  Basis Set:
  Basis Set: CC-PVTZ
  Basis Set:
  @DF-RHF Final Energy:  -345.02171723535315
    Total Energy =                       -345.0217172353536057
  Basis Set: CC-PVTZ
  Basis Set:
  Basis Set: CC-PVTZ
  Basis Set:
  @DF-RHF Final Energy:  -345.02171861546361
    Total Energy =                       -345.0217186154640103
  Basis Set: CC-PVTZ
  Basis Set:
  Charge       = 0
  Multiplicity = 1
  Basis Set: CC-PVTZ
  Basis Set:

    Orbital Energies (a.u.)
    -----------------------

    Doubly Occupied:

       1A    -20.574796     2A    -20.544580     3A    -11.366641
       4A    -11.293122     5A    -11.240639     6A    -11.222545
       7A    -11.217176     8A     -1.460181     9A     -1.368705
      10A     -1.066166    11A     -1.037654    12A     -0.905447
      13A     -0.864585    14A     -0.770992    15A     -0.703333
      16A     -0.686564    17A     -0.658465    18A     -0.638482
      19A     -0.604804    20A     -0.564773    21A     -0.556867
      22A     -0.530716    23A     -0.527653    24A     -0.521832
      25A     -0.507411    26A     -0.490957    27A     -0.453302
      28A     -0.437356

  @DF-RHF Final Energy:  -345.02171872657453

   => Energetics <=

    Nuclear Repulsion Energy =            314.9397277438067135
    One-Electron Energy =               -1094.2914052938906480
    Two-Electron Energy =                 434.3299588235095712
    DFT Exchange-Correlation Energy =       0.0000000000000000
    Empirical Dispersion Energy =           0.0000000000000000
    PCM Polarization Energy =               0.0000000000000000
    EFP Energy =                            0.0000000000000000
    Total Energy =                       -345.0217187265743064
    Molecular point group: c1
  Basis Set: CC-PVTZ
  Basis Set:

  -Total Gradient:
     Atom            X                  Y                   Z
    ------   -----------------  -----------------  -----------------
       1       -0.000003019740    -0.000036143113    -0.000011018309
       2        0.000582864210    -0.001095771227     0.003124201684
       3       -0.000034678180     0.000070188629    -0.002161835146
       4       -0.001572171452     0.003202694639    -0.000853708296
       5        0.000003511108    -0.000008287875    -0.000004965777
       6       -0.000001750918    -0.000000165528    -0.000007748936
       7       -0.000000073377    -0.000003760582    -0.000003063079
       8        0.000000837792     0.000003253357    -0.000006102026
       9       -0.000005406557     0.000001826409     0.000001473988
      10        0.000002824508     0.000003742683     0.000008577621
      11        0.001023514183    -0.002128003897    -0.000092895112
      12        0.000001385446    -0.000005913270     0.000002312627
      13       -0.000000723106    -0.000005254388     0.000012582188
      14       -0.000004119064     0.000005156431    -0.000007642144
      15       -0.000002258300    -0.000004854106     0.000002995163
      16        0.000003952355    -0.000000344115    -0.000001080493
      17        0.000005311091     0.000001635955    -0.000002083953

  **** Optimization is complete! (in 7 steps) ****
    Final optimized geometry and variables:
    Molecular point group: c1

    Geometry (in Angstrom), charge = 0, multiplicity = 1:

    O            0.482948232685     1.596626075286     0.384503419833
    C            0.361729229170     0.427659280568     0.333440949026
    C            1.505595130661    -0.553467996087     0.284265728643
    O           -0.854523692926    -0.156169697954     0.341439309294
    C            2.877392764697     0.101300112285     0.270568577161
    H            1.362588813734    -1.180919736151    -0.589390361092
    H            1.389953856784    -1.212612317796     1.138465759780
    H            2.993905136476     0.743530357808    -0.592394575171
    H            3.652355887401    -0.654934351413     0.241295465433
    H            3.025291580025     0.708794138917     1.153115334972
    C           -1.467760957704    -0.404484665107    -0.911271573731
    C           -2.825556094629    -1.016490512337    -0.659471812790
    H           -0.849220709294    -1.078011405317    -1.495753013604
    H           -1.559810982495     0.530094676804    -1.452077438212
    H           -2.729713978761    -1.947243596888    -0.114995026845
    H           -3.320433957543    -1.216963841669    -1.602565066745
    H           -3.442486774069    -0.341694204388    -0.080907867292

  Mulliken Charges: (a.u.)
   Center  Symbol    Alpha    Beta     Spin     Total
       1     O     4.17017  4.17017  0.00000 -0.34033
       2     C     2.79662  2.79662  0.00000  0.40675
       3     C     3.10674  3.10674  0.00000 -0.21349
       4     O     4.17166  4.17166  0.00000 -0.34332
       5     C     3.13871  3.13871  0.00000 -0.27743
       6     H     0.44578  0.44578  0.00000  0.10844
       7     H     0.43979  0.43979  0.00000  0.12042
       8     H     0.44915  0.44915  0.00000  0.10170
       9     H     0.45070  0.45070  0.00000  0.09860
      10     H     0.44580  0.44580  0.00000  0.10840
      11     C     2.97667  2.97667  0.00000  0.04666
      12     C     3.13437  3.13437  0.00000 -0.26874
      13     H     0.46559  0.46559  0.00000  0.06882
      14     H     0.45516  0.45516  0.00000  0.08967
      15     H     0.45052  0.45052  0.00000  0.09896
      16     H     0.45679  0.45679  0.00000  0.08643
      17     H     0.44578  0.44578  0.00000  0.10845

   Total alpha = 28.00000, Total beta = 28.00000, Total charge = -0.00000

*** Psi4 exiting successfully. Buy a developer a beer!
