  ==> Input File <==

--------------------------------------------------------------------------
set {
	reference rhf
	basis 6-31G*
}

set_num_threads( 1 )
memory 2 gb

molecule MOL {
0 1

H	 2.455057	 2.360125	 -0.114620
O	 3.224602	 1.978920	 -0.511551
C	 3.536764	 0.767612	 0.128248
C	 2.570528	 -0.360481	 -0.216021
H	 4.534165	 0.508373	 -0.202901
H	 3.580782	 0.907153	 1.207771
C	 1.134383	 -0.114680	 0.252956
H	 2.582592	 -0.508287	 -1.292764
H	 2.946044	 -1.277811	 0.234379
C	 0.201336	 -1.288001	 -0.059389
H	 0.754011	 0.786952	 -0.218999
H	 1.130713	 0.068267	 1.327599
C	 -1.230409	 -1.129500	 0.465325
H	 0.174503	 -1.447305	 -1.135841
H	 0.627106	 -2.192511	 0.369892
C	 -2.037799	 -0.007733	 -0.193645
H	 -1.755999	 -2.070016	 0.313665
H	 -1.202909	 -0.969563	 1.542126
C	 -3.489788	 0.042957	 0.286558
H	 -2.022347	 -0.141454	 -1.274381
H	 -1.569898	 0.954280	 0.001039
C	 -4.216917	 1.317354	 -0.141063
H	 -4.025645	 -0.823308	 -0.095450
H	 -3.513059	 -0.038752	 1.371301
H	 -4.239342	 1.411634	 -1.223113
H	 -5.243387	 1.322503	 0.212445
H	 -3.726170	 2.201406	 0.256408

	symmetry c1
}
set optking {
	frozen_dihedral = ("
		14 10 7 4,
		14 10 13 16,
		10 7 4 8,
		8 4 3 2,
		10 13 16 20,
		4 3 2 1
	")
}

ee = energy('scf')
oeprop('DIPOLE', 'QUADRUPOLE', 'MULLIKEN_CHARGES')
f=open( 'psi4out.xyz', 'w' )
f.write( "27  " )
f.write( str(ee) + "\n" )
f.write( MOL.save_string_xyz() )
f.close()
--------------------------------------------------------------------------

    Molecular point group: c1

    Geometry (in Angstrom), charge = 0, multiplicity = 1:

       Center              X                  Y                   Z               Mass
    ------------   -----------------  -----------------  -----------------  -----------------
           H          2.450338803998     2.179983069915    -0.109870914874     1.007825032070
           O          3.219883803998     1.798778069915    -0.506801914874    15.994914619560
           C          3.532045803998     0.587470069915     0.132997085126    12.000000000000
           C          2.565809803998    -0.540622930085    -0.211271914874    12.000000000000
           H          4.529446803998     0.328231069915    -0.198151914874     1.007825032070
           H          3.576063803998     0.727011069915     1.212520085126     1.007825032070
           C          1.129664803998    -0.294821930085     0.257705085126    12.000000000000
           H          2.577873803998    -0.688428930085    -1.288014914874     1.007825032070
           H          2.941325803998    -1.457952930085     0.239128085126     1.007825032070
           C          0.196617803998    -1.468142930085    -0.054639914874    12.000000000000
           H          0.749292803998     0.606810069915    -0.214249914874     1.007825032070
           H          1.125994803998    -0.111874930085     1.332348085126     1.007825032070
           C         -1.235127196002    -1.309641930085     0.470074085126    12.000000000000
           H          0.169784803998    -1.627446930085    -1.131091914874     1.007825032070
           H          0.622387803998    -2.372652930085     0.374641085126     1.007825032070
           C         -2.042517196002    -0.187874930085    -0.188895914874    12.000000000000
           H         -1.760717196002    -2.250157930085     0.318414085126     1.007825032070
           H         -1.207627196002    -1.149704930085     1.546875085126     1.007825032070
           C         -3.494506196002    -0.137184930085     0.291307085126    12.000000000000
           H         -2.027065196002    -0.321595930085    -1.269631914874     1.007825032070
           H         -1.574616196002     0.774138069915     0.005788085126     1.007825032070
           C         -4.221635196002     1.137212069915    -0.136313914874    12.000000000000
           H         -4.030363196002    -1.003449930085    -0.090700914874     1.007825032070
           H         -3.517777196002    -0.218893930085     1.376050085126     1.007825032070
           H         -4.244060196002     1.231492069915    -1.218363914874     1.007825032070
           H         -5.248105196002     1.142361069915     0.217194085126     1.007825032070
           H         -3.730888196002     2.021264069915     0.261157085126     1.007825032070

  Charge       = 0
  Multiplicity = 1
  Basis Set: 6-31G*
  Basis Set:

    Orbital Energies (a.u.)
    -----------------------

    Doubly Occupied:

       1A    -20.552292     2A    -11.267056     3A    -11.219815
       4A    -11.217277     5A    -11.216026     6A    -11.215790
       7A    -11.215233     8A    -11.214231     9A    -11.209538
      10A     -1.359037    11A     -1.095270    12A     -1.061595
      13A     -1.011573    14A     -0.948527    15A     -0.888090
      16A     -0.820065    17A     -0.801755    18A     -0.778235
      19A     -0.693707    20A     -0.651770    21A     -0.637255
      22A     -0.614602    23A     -0.601864    24A     -0.583024
      25A     -0.580458    26A     -0.551556    27A     -0.541420
      28A     -0.532141    29A     -0.504005    30A     -0.494627
      31A     -0.486275    32A     -0.473496    33A     -0.469619
      34A     -0.461143    35A     -0.451826    36A     -0.441534
      37A     -0.422957

  @DF-RHF Final Energy:  -388.28123872914517

   => Energetics <=

    Nuclear Repulsion Energy =            459.9745665007828279
    One-Electron Energy =               -1437.9422377857226820
    Two-Electron Energy =                 589.6864325557962729
    DFT Exchange-Correlation Energy =       0.0000000000000000
    Empirical Dispersion Energy =           0.0000000000000000
    PCM Polarization Energy =               0.0000000000000000
    EFP Energy =                            0.0000000000000000
    Total Energy =                       -388.2812387291435243

  Mulliken Charges: (a.u.)
   Center  Symbol    Alpha    Beta     Spin     Total
       1     H     0.27990  0.27990  0.00000  0.44020
       2     O     4.37094  4.37094  0.00000 -0.74188
       3     C     2.99736  2.99736  0.00000  0.00528
       4     C     3.16094  3.16094  0.00000 -0.32187
       5     H     0.41444  0.41444  0.00000  0.17113
       6     H     0.43205  0.43205  0.00000  0.13589
       7     C     3.16330  3.16330  0.00000 -0.32660
       8     H     0.41496  0.41496  0.00000  0.17009
       9     H     0.42432  0.42432  0.00000  0.15135
      10     C     3.15216  3.15216  0.00000 -0.30431
      11     H     0.42281  0.42281  0.00000  0.15439
      12     H     0.42548  0.42548  0.00000  0.14904
      13     C     3.15392  3.15392  0.00000 -0.30783
      14     H     0.42163  0.42163  0.00000  0.15675
      15     H     0.42151  0.42151  0.00000  0.15699
      16     C     3.15254  3.15254  0.00000 -0.30507
      17     H     0.42118  0.42118  0.00000  0.15763
      18     H     0.42417  0.42417  0.00000  0.15166
      19     C     3.15147  3.15147  0.00000 -0.30295
      20     H     0.42296  0.42296  0.00000  0.15408
      21     H     0.42404  0.42404  0.00000  0.15191
      22     C     3.23935  3.23935  0.00000 -0.47871
      23     H     0.42222  0.42222  0.00000  0.15557
      24     H     0.42328  0.42328  0.00000  0.15344
      25     H     0.42144  0.42144  0.00000  0.15712
      26     H     0.41931  0.41931  0.00000  0.16139
      27     H     0.42234  0.42234  0.00000  0.15532

   Total alpha = 37.00000, Total beta = 37.00000, Total charge =  0.00000
