                              Psi4 1.0.54 Driver

  ==> Input File <==

--------------------------------------------------------------------------
set {
	reference rhf
	basis cc-pvtz
}

set_num_threads( 4 )
memory 2 gb

molecule MOL {
0 1

H	 -2.497099	 1.070874	 1.365689
C	 -1.845530	 1.658130	 2.008706
O	 -0.510129	 1.333146	 1.812159
H	 -1.970277	 2.703782	 1.768001
H	 -2.148070	 1.498960	 3.042156
C	 -0.194356	 0.009390	 2.094287
C	 1.249132	 -0.256024	 1.747525
H	 -0.346606	 -0.197345	 3.153556
H	 -0.828851	 -0.667247	 1.525948
O	 1.401606	 -0.295166	 0.366636
H	 1.870427	 0.524455	 2.181434
H	 1.548584	 -1.207267	 2.187339
C	 2.714315	 -0.441627	 -0.061017
H	 2.765292	 -0.641548	 -1.128869
H	 3.305661	 0.447341	 0.150952
H	 3.143725	 -1.278506	 0.470147

	symmetry c1
}
set optking {
	frozen_dihedral = ("
		7 10 13 14
	")
}

ee,wfn = optimize('scf', return_wfn=True)
oeprop( wfn, 'DIPOLE', 'QUADRUPOLE', 'MULLIKEN_CHARGES')
f=open( 'psi4out.xyz', 'w' )
f.write( "16  " )
f.write( str(ee) + "\n" )
f.write( MOL.save_string_xyz() )
f.close()
--------------------------------------------------------------------------

    Molecular point group: c1
  Charge       = 0
  Multiplicity = 1
  Basis Set: CC-PVTZ
  Basis Set:
  @DF-RHF Final Energy:  -307.09669150087888
    Total Energy =                       -307.0966915008789329
    Molecular point group: c1
  Basis Set: CC-PVTZ
  Basis Set:
  Basis Set: CC-PVTZ
  Basis Set:
  @DF-RHF Final Energy:  -307.09750519248894
    Total Energy =                       -307.0975051924889954
  Basis Set: CC-PVTZ
  Basis Set:
  Basis Set: CC-PVTZ
  Basis Set:
  @DF-RHF Final Energy:  -307.09773628244977
    Total Energy =                       -307.0977362824499437
  Basis Set: CC-PVTZ
  Basis Set:
  Charge       = 0
  Multiplicity = 1
  Basis Set: CC-PVTZ
  Basis Set:

    Orbital Energies (a.u.)
    -----------------------

    Doubly Occupied:

       1A    -20.547850     2A    -20.547609     3A    -11.267572
       4A    -11.266890     5A    -11.261623     6A    -11.261575
       7A     -1.391709     8A     -1.374502     9A     -1.032088
      10A     -0.937200    11A     -0.892228    12A     -0.824441
      13A     -0.686478    14A     -0.682821    15A     -0.659443
      16A     -0.637833    17A     -0.632569    18A     -0.598336
      19A     -0.550588    20A     -0.537109    21A     -0.509464
      22A     -0.479866    23A     -0.464810    24A     -0.423069
      25A     -0.413689

  @DF-RHF Final Energy:  -307.09773712308760

   => Energetics <=

    Nuclear Repulsion Energy =            258.9119777008033338
    One-Electron Energy =                -932.2566943449414794
    Two-Electron Energy =                 366.2469795210506049
    DFT Exchange-Correlation Energy =       0.0000000000000000
    Empirical Dispersion Energy =           0.0000000000000000
    PCM Polarization Energy =               0.0000000000000000
    EFP Energy =                            0.0000000000000000
    Total Energy =                       -307.0977371230874837
    Molecular point group: c1
  Basis Set: CC-PVTZ
  Basis Set:

  -Total Gradient:
     Atom            X                  Y                   Z
    ------   -----------------  -----------------  -----------------
       1       -0.000000183870    -0.000000495226    -0.000001784308
       2        0.000002416550    -0.000006030082     0.000005487557
       3        0.000008701247     0.000019736307     0.000021515250
       4        0.000005684644    -0.000002954537     0.000000365743
       5       -0.000004514874     0.000002582266     0.000002101454
       6       -0.000019001663    -0.000022542472    -0.000166090903
       7        0.000024018634    -0.001021406277     0.000098474048
       8        0.000066792884    -0.000001401584    -0.000032344652
       9       -0.000041202867    -0.000029679618     0.000005133783
      10        0.000104360443     0.001170479038     0.000020468585
      11        0.000025951163     0.000007566719     0.000000716030
      12       -0.000011298031    -0.000005379809    -0.000030417728
      13       -0.000021814889     0.001166394695    -0.000211626092
      14       -0.000096105944    -0.001293207951     0.000261509899
      15       -0.000013522582     0.000016214786     0.000009783880
      16       -0.000030280847     0.000000123748     0.000016707453

  **** Optimization is complete! (in 4 steps) ****
    Final optimized geometry and variables:
    Molecular point group: c1

    Geometry (in Angstrom), charge = 0, multiplicity = 1:

    H           -2.972989747218     0.697645193698     0.075495314847
    C           -2.320728199807     1.295925525374     0.707533729243
    O           -0.984037560254     0.985552963893     0.496580085301
    H           -2.460614192374     2.338740780115     0.462922238328
    H           -2.608928381033     1.138763028591     1.745388382719
    C           -0.649352894446    -0.332896573414     0.781640860959
    C            0.792874298205    -0.583292549758     0.419346974019
    H           -0.786247059619    -0.535755184191     1.843743500559
    H           -1.282521135185    -1.020068039955     0.224522579643
    O            0.928004388214    -0.631593141555    -0.963103518571
    H            1.409497303493     0.207790534785     0.840896763700
    H            1.109470176366    -1.527890441484     0.860889592339
    C            2.237448675165    -0.759188443139    -1.407466644815
    H            2.209191267240    -0.963873965437    -2.467880802432
    H            2.807987410989     0.149933947738    -1.233774990215
    H            2.747151725667    -1.584814651559    -0.914112232268

  Mulliken Charges: (a.u.)
   Center  Symbol    Alpha    Beta     Spin     Total
       1     H     0.47016  0.47016  0.00000  0.05967
       2     C     3.03199  3.03199  0.00000 -0.06397
       3     O     4.17055  4.17055  0.00000 -0.34110
       4     H     0.44634  0.44634  0.00000  0.10731
       5     H     0.47367  0.47367  0.00000  0.05265
       6     C     2.96067  2.96067  0.00000  0.07866
       7     C     2.96046  2.96046  0.00000  0.07908
       8     H     0.47609  0.47609  0.00000  0.04781
       9     H     0.47077  0.47077  0.00000  0.05845
      10     O     4.17082  4.17082  0.00000 -0.34163
      11     H     0.47132  0.47132  0.00000  0.05737
      12     H     0.47540  0.47540  0.00000  0.04919
      13     C     3.03170  3.03170  0.00000 -0.06340
      14     H     0.44715  0.44715  0.00000  0.10570
      15     H     0.46767  0.46767  0.00000  0.06465
      16     H     0.47522  0.47522  0.00000  0.04955

   Total alpha = 25.00000, Total beta = 25.00000, Total charge = -0.00000

*** Psi4 exiting successfully. Buy a developer a beer!
