                              Psi4 1.0.54 Driver

  ==> Input File <==

--------------------------------------------------------------------------
set {
	reference rhf
	basis cc-pvtz
}

set_num_threads( 4 )
memory 2 gb

molecule MOL {
0 1

H	 -0.293828	 3.968221	 -1.119290
O	 -0.566329	 3.184708	 -0.678944
C	 0.497941	 2.270729	 -0.615789
C	 0.027642	 1.012027	 0.090274
H	 1.330724	 2.697600	 -0.062596
H	 0.857323	 2.037634	 -1.614274
C	 -1.138737	 0.285728	 -0.581921
H	 -0.261157	 1.282909	 1.100583
H	 0.877841	 0.339681	 0.175874
C	 -1.933983	 -0.631436	 0.343653
H	 -0.763151	 -0.285569	 -1.422081
H	 -1.808359	 1.035291	 -0.992333
H	 -2.789188	 -1.049673	 -0.174718
H	 -1.335629	 -1.461368	 0.700418
H	 -2.305435	 -0.092167	 1.209725

	symmetry c1
}
set optking {
	frozen_dihedral = ("
		8 4 7 11
	")
}

ee,wfn = optimize('scf', return_wfn=True)
oeprop( wfn, 'DIPOLE', 'QUADRUPOLE', 'MULLIKEN_CHARGES')
f=open( 'psi4out.xyz', 'w' )
f.write( "15  " )
f.write( str(ee) + "\n" )
f.write( MOL.save_string_xyz() )
f.close()
--------------------------------------------------------------------------

    Molecular point group: c1
  Charge       = 0
  Multiplicity = 1
  Basis Set: CC-PVTZ
  Basis Set:
  @DF-RHF Final Energy:  -232.23714834680118
    Total Energy =                       -232.2371483468010638
    Molecular point group: c1
  Basis Set: CC-PVTZ
  Basis Set:
  Basis Set: CC-PVTZ
  Basis Set:
  @DF-RHF Final Energy:  -232.23783756291996
    Total Energy =                       -232.2378375629198786
  Basis Set: CC-PVTZ
  Basis Set:
  Basis Set: CC-PVTZ
  Basis Set:
  @DF-RHF Final Energy:  -232.23799223911595
    Total Energy =                       -232.2379922391159539
  Basis Set: CC-PVTZ
  Basis Set:
  Basis Set: CC-PVTZ
  Basis Set:
  @DF-RHF Final Energy:  -232.23799964355359
    Total Energy =                       -232.2379996435536782
  Basis Set: CC-PVTZ
  Basis Set:
  Basis Set: CC-PVTZ
  Basis Set:
  @DF-RHF Final Energy:  -232.23800122629433
    Total Energy =                       -232.2380012262942728
  Basis Set: CC-PVTZ
  Basis Set:
  Charge       = 0
  Multiplicity = 1
  Basis Set: CC-PVTZ
  Basis Set:

    Orbital Energies (a.u.)
    -----------------------

    Doubly Occupied:

       1A    -20.546562     2A    -11.266358     3A    -11.210521
       4A    -11.207430     5A    -11.202524     6A     -1.364451
       7A     -1.065763     8A     -0.975005     9A     -0.856795
      10A     -0.787635    11A     -0.708879    12A     -0.636458
      13A     -0.614442    14A     -0.595190    15A     -0.547679
      16A     -0.524930    17A     -0.517104    18A     -0.476727
      19A     -0.464847    20A     -0.458752    21A     -0.432852

  @DF-RHF Final Energy:  -232.23800136261860

   => Energetics <=

    Nuclear Repulsion Energy =            188.9748770025476574
    One-Electron Energy =                -689.5039500292427874
    Two-Electron Energy =                 268.2910716640765258
    DFT Exchange-Correlation Energy =       0.0000000000000000
    Empirical Dispersion Energy =           0.0000000000000000
    PCM Polarization Energy =               0.0000000000000000
    EFP Energy =                            0.0000000000000000
    Total Energy =                       -232.2380013626186042
    Molecular point group: c1
  Basis Set: CC-PVTZ
  Basis Set:

  -Total Gradient:
     Atom            X                  Y                   Z
    ------   -----------------  -----------------  -----------------
       1       -0.000000665671     0.000001401581     0.000007260646
       2       -0.000001807736     0.000002699868    -0.000008023189
       3        0.000005637107    -0.000000083232    -0.000002451710
       4       -0.001279459302     0.002898923743    -0.000888174047
       5        0.000005208365     0.000003749029    -0.000000947773
       6        0.000003767370     0.000001051865    -0.000011402428
       7       -0.000254949809     0.002359816801    -0.002086816720
       8        0.001098859897    -0.002781262714     0.001092671546
       9       -0.000004430270    -0.000004671557    -0.000006793840
      10       -0.000011486549    -0.000010212402     0.000003996942
      11        0.000423632734    -0.002477387733     0.001894774268
      12        0.000010895493    -0.000002250459     0.000001722466
      13        0.000004321110     0.000006425863     0.000004467627
      14        0.000003624727    -0.000001027506    -0.000002633575
      15       -0.000003147466     0.000002826857     0.000002349786

  **** Optimization is complete! (in 6 steps) ****
    Final optimized geometry and variables:
    Molecular point group: c1

    Geometry (in Angstrom), charge = 0, multiplicity = 1:

    H            0.355884312285     2.697497130613    -0.828711101452
    O            0.085336745192     1.942406109620    -0.340293787665
    C            1.101897376255     0.973760416635    -0.344575623824
    C            0.615581395108    -0.256561586250     0.394577612401
    H            1.993891813160     1.361717420879     0.140486897769
    H            1.370676795213     0.709623977381    -1.365715931608
    C           -0.539386484302    -0.984366798549    -0.295129831158
    H            0.329907748535     0.023344604294     1.403799604170
    H            1.456067585515    -0.937833348063     0.502022743641
    C           -1.270447908020    -1.941775091496     0.641952061459
    H           -0.148424154430    -1.557191972772    -1.131674244946
    H           -1.239711220589    -0.261387415068    -0.693645872937
    H           -2.055512588631    -2.477531407421     0.120607883149
    H           -0.591071952085    -2.677646028174     1.060824949225
    H           -1.726401855786    -1.406480907315     1.467796436614

  Mulliken Charges: (a.u.)
   Center  Symbol    Alpha    Beta     Spin     Total
       1     H     0.39540  0.39540  0.00000  0.20921
       2     O     4.19879  4.19879  0.00000 -0.39757
       3     C     2.97269  2.97269  0.00000  0.05462
       4     C     3.08829  3.08829  0.00000 -0.17657
       5     H     0.46480  0.46480  0.00000  0.07041
       6     H     0.47365  0.47365  0.00000  0.05270
       7     C     3.08413  3.08413  0.00000 -0.16827
       8     H     0.45358  0.45358  0.00000  0.09284
       9     H     0.45427  0.45427  0.00000  0.09145
      10     C     3.14933  3.14933  0.00000 -0.29866
      11     H     0.45817  0.45817  0.00000  0.08365
      12     H     0.44633  0.44633  0.00000  0.10734
      13     H     0.44968  0.44968  0.00000  0.10063
      14     H     0.45722  0.45722  0.00000  0.08557
      15     H     0.45367  0.45367  0.00000  0.09266

   Total alpha = 21.00000, Total beta = 21.00000, Total charge =  0.00000

*** Psi4 exiting successfully. Buy a developer a beer!
