  ==> Input File <==

--------------------------------------------------------------------------
set {
	reference rhf
	basis 6-31G*
}

set_num_threads( 4 )
memory 2 gb

molecule MOL {
0 1

H	 2.057977	 -1.467519	 -0.019329
O	 1.380667	 -0.887924	 -0.337150
C	 1.135793	 0.118896	 0.612333
C	 0.031547	 1.023609	 0.088541
H	 2.034069	 0.710272	 0.780449
H	 0.853005	 -0.317990	 1.567457
C	 -1.134819	 0.293262	 -0.585751
H	 0.474374	 1.714721	 -0.623187
H	 -0.338529	 1.620940	 0.920081
C	 -1.917817	 -0.639439	 0.339494
H	 -0.758119	 -0.268455	 -1.433105
H	 -1.813832	 1.041889	 -0.986690
H	 -2.777680	 -1.057197	 -0.174994
H	 -1.310268	 -1.471279	 0.680599
H	 -2.283753	 -0.111424	 1.216626

	symmetry c1
}
set optking {
	frozen_dihedral = ("
		2 3 4 8
	")
}

ee = optimize('scf')
oeprop('DIPOLE', 'QUADRUPOLE', 'MULLIKEN_CHARGES')
f=open( 'psi4out.xyz', 'w' )
f.write( "15  " )
f.write( str(ee) + "\n" )
f.write( MOL.save_string_xyz() )
f.close()
--------------------------------------------------------------------------

    Molecular point group: c1
  Charge       = 0
  Multiplicity = 1
  Basis Set: 6-31G*
  Basis Set:
  @DF-RHF Final Energy:  -232.14237546226533
    Total Energy =                       -232.1423754622651927
    Molecular point group: c1
  Basis Set: 6-31G*
  Basis Set:
  Basis Set: 6-31G*
  Basis Set:
  @DF-RHF Final Energy:  -232.14261411763431
    Total Energy =                       -232.1426141176344800
  Basis Set: 6-31G*
  Basis Set:
  Basis Set: 6-31G*
  Basis Set:
  @DF-RHF Final Energy:  -232.14273151314143
    Total Energy =                       -232.1427315131414275
  Basis Set: 6-31G*
  Basis Set:
  Basis Set: 6-31G*
  Basis Set:
  @DF-RHF Final Energy:  -232.14273463817923
    Total Energy =                       -232.1427346381792631
  Basis Set: 6-31G*
  Basis Set:
  Charge       = 0
  Multiplicity = 1
  Basis Set: 6-31G*
  Basis Set:

    Orbital Energies (a.u.)
    -----------------------

    Doubly Occupied:

       1A    -20.553996     2A    -11.268163     3A    -11.212711
       4A    -11.207262     5A    -11.201508     6A     -1.360524
       7A     -1.062193     8A     -0.968640     9A     -0.867357
      10A     -0.773058    11A     -0.703320    12A     -0.649748
      13A     -0.606948    14A     -0.570008    15A     -0.563867
      16A     -0.528318    17A     -0.508105    18A     -0.474633
      19A     -0.462938    20A     -0.451584    21A     -0.430352

  @DF-RHF Final Energy:  -232.14273546189037

   => Energetics <=

    Nuclear Repulsion Energy =            193.0374153581394694
    One-Electron Energy =                -697.5098362600150494
    Two-Electron Energy =                 272.3296854399849849
    DFT Exchange-Correlation Energy =       0.0000000000000000
    Empirical Dispersion Energy =           0.0000000000000000
    PCM Polarization Energy =               0.0000000000000000
    EFP Energy =                            0.0000000000000000
    Total Energy =                       -232.1427354618905952
    Molecular point group: c1
  Basis Set: 6-31G*
  Basis Set:

  -Total Gradient:
     Atom            X                  Y                   Z
    ------   -----------------  -----------------  -----------------
       1        0.000020710706    -0.000040088039    -0.000023635096
       2       -0.002111706071    -0.001770782859     0.001413128270
       3        0.002907726334     0.003014815133    -0.001077270514
       4       -0.001491350767    -0.003780730387    -0.003263428232
       5        0.000036178536    -0.000071637419    -0.000048490417
       6        0.000053106080     0.000014155584    -0.000002899668
       7        0.000015987799     0.000053602946    -0.000031716976
       8        0.000696216566     0.002581872227     0.003018412029
       9       -0.000051052233     0.000046192815     0.000013052472
      10       -0.000033770555     0.000005771912     0.000021387564
      11        0.000022145183     0.000034830471    -0.000003653787
      12       -0.000027220041    -0.000032124541    -0.000022961183
      13       -0.000004086242    -0.000010970279     0.000019199945
      14       -0.000044493899    -0.000025087012    -0.000016262775
      15        0.000011608605    -0.000019820551     0.000005138368

  **** Optimization is complete! (in 5 steps) ****
    Final optimized geometry and variables:
    Molecular point group: c1

    Geometry (in Angstrom), charge = 0, multiplicity = 1:

    H            2.147655314645    -1.400567181696    -0.018279593991
    O            1.457668323048    -0.843501574638    -0.349114599722
    C            1.179932975036     0.167986276667     0.586314693460
    C            0.091101482132     1.083074746511     0.035715978183
    H            2.072118289403     0.752850824890     0.799891514462
    H            0.852420676831    -0.276323819070     1.524120776674
    C           -1.091719473134     0.365285048434    -0.619205839903
    H            0.537340922079     1.783671614468    -0.664818189241
    H           -0.268818436928     1.691058604876     0.865036023558
    C           -1.844916633161    -0.577833097992     0.319512572529
    H           -0.739801415873    -0.188971362829    -1.481205177582
    H           -1.778989783597     1.121043397722    -0.991882833826
    H           -2.715130541941    -0.998790024044    -0.174734631960
    H           -1.217414848440    -1.404263688176     0.635123088613
    H           -2.191600775346    -0.058122325305     1.209434816122

  Mulliken Charges: (a.u.)
   Center  Symbol    Alpha    Beta     Spin     Total
       1     H     0.28045  0.28045  0.00000  0.43910
       2     O     4.37010  4.37010  0.00000 -0.74020
       3     C     2.99786  2.99786  0.00000  0.00428
       4     C     3.16403  3.16403  0.00000 -0.32806
       5     H     0.42847  0.42847  0.00000  0.14306
       6     H     0.43087  0.43087  0.00000  0.13826
       7     C     3.14972  3.14972  0.00000 -0.29945
       8     H     0.41687  0.41687  0.00000  0.16625
       9     H     0.42463  0.42463  0.00000  0.15074
      10     C     3.24375  3.24375  0.00000 -0.48750
      11     H     0.40722  0.40722  0.00000  0.18556
      12     H     0.42408  0.42408  0.00000  0.15184
      13     H     0.42003  0.42003  0.00000  0.15993
      14     H     0.41564  0.41564  0.00000  0.16871
      15     H     0.42627  0.42627  0.00000  0.14747

   Total alpha = 21.00000, Total beta = 21.00000, Total charge = -0.00000
