  ==> Input File <==

--------------------------------------------------------------------------
set {
	reference rhf
	basis 6-31G*
}

set_num_threads( 4 )
memory 2 gb

molecule MOL {
0 1

O	 -2.439739	 -0.935931	 -0.423848
C	 -1.921153	 0.064240	 -0.045697
C	 -2.624470	 1.379923	 0.150949
O	 -0.632575	 0.154573	 0.251549
H	 -2.168117	 2.136577	 -0.476876
H	 -3.669540	 1.273223	 -0.098610
H	 -2.519365	 1.700893	 1.180846
C	 0.160891	 -1.019931	 0.106212
C	 1.589627	 -0.672828	 0.480843
H	 0.089836	 -1.367806	 -0.916050
H	 -0.238459	 -1.792301	 0.749618
C	 2.060006	 -1.307614	 1.790877
H	 1.653495	 0.410738	 0.556589
H	 2.247588	 -0.969051	 -0.331929
C	 3.492454	 -0.915834	 2.150881
H	 1.390369	 -1.008463	 2.594739
H	 1.986940	 -2.387410	 1.713023
H	 3.802568	 -1.378914	 3.082234
H	 3.589081	 0.159889	 2.268189
H	 4.189868	 -1.227657	 1.378574

	symmetry c1
}
set optking {
	frozen_dihedral = ("
		12 9 8 10
	")
}

ee = optimize('scf')
oeprop('DIPOLE', 'QUADRUPOLE', 'MULLIKEN_CHARGES')
f=open( 'psi4out.xyz', 'w' )
f.write( "20  " )
f.write( str(ee) + "\n" )
f.write( MOL.save_string_xyz() )
f.close()
--------------------------------------------------------------------------

    Molecular point group: c1
  Charge       = 0
  Multiplicity = 1
  Basis Set: 6-31G*
  Basis Set:
  @DF-RHF Final Energy:  -383.93999654296289
    Total Energy =                       -383.9399965429628310
    Molecular point group: c1
  Basis Set: 6-31G*
  Basis Set:
  Basis Set: 6-31G*
  Basis Set:
  @DF-RHF Final Energy:  -383.94021053683332
    Total Energy =                       -383.9402105368334333
  Basis Set: 6-31G*
  Basis Set:
  Basis Set: 6-31G*
  Basis Set:
  @DF-RHF Final Energy:  -383.94010048149227
    Total Energy =                       -383.9401004814924363
  Basis Set: 6-31G*
  Basis Set:
  Basis Set: 6-31G*
  Basis Set:
  @DF-RHF Final Energy:  -383.94033451987787
    Total Energy =                       -383.9403345198780926
  Basis Set: 6-31G*
  Basis Set:
  Basis Set: 6-31G*
  Basis Set:
  @DF-RHF Final Energy:  -383.94033388776552
    Total Energy =                       -383.9403338877651777
  Basis Set: 6-31G*
  Basis Set:
  Basis Set: 6-31G*
  Basis Set:
  @DF-RHF Final Energy:  -383.94033753126365
    Total Energy =                       -383.9403375312637081
  Basis Set: 6-31G*
  Basis Set:
  Charge       = 0
  Multiplicity = 1
  Basis Set: 6-31G*
  Basis Set:

    Orbital Energies (a.u.)
    -----------------------

    Doubly Occupied:

       1A    -20.601484     2A    -20.543598     3A    -11.373818
       4A    -11.281890     5A    -11.232991     6A    -11.224604
       7A    -11.223977     8A    -11.214651     9A     -1.467420
      10A     -1.361545    11A     -1.085124    12A     -1.028912
      13A     -0.979592    14A     -0.881725    15A     -0.807754
      16A     -0.780979    17A     -0.689126    18A     -0.680552
      19A     -0.667428    20A     -0.632552    21A     -0.601144
      22A     -0.592529    23A     -0.570860    24A     -0.554347
      25A     -0.544578    26A     -0.524200    27A     -0.513097
      28A     -0.481676    29A     -0.479621    30A     -0.474974
      31A     -0.446542    32A     -0.437172

  @DF-RHF Final Energy:  -383.94033747497900

   => Energetics <=

    Nuclear Repulsion Energy =            380.7707217356855267
    One-Electron Energy =               -1277.4611928450556206
    Two-Electron Energy =                 512.7501336343912044
    DFT Exchange-Correlation Energy =       0.0000000000000000
    Empirical Dispersion Energy =           0.0000000000000000
    PCM Polarization Energy =               0.0000000000000000
    EFP Energy =                            0.0000000000000000
    Total Energy =                       -383.9403374749788327
    Molecular point group: c1
  Basis Set: 6-31G*
  Basis Set:

  -Total Gradient:
     Atom            X                  Y                   Z
    ------   -----------------  -----------------  -----------------
       1       -0.000004508756     0.000003459148    -0.000033643800
       2        0.000011746720    -0.000009404320     0.000060366469
       3       -0.000004510979     0.000004430926    -0.000013874668
       4        0.000022208117     0.000010421566    -0.000027066811
       5       -0.000003824120     0.000007466287    -0.000001182031
       6       -0.000000593457     0.000001922669    -0.000001412411
       7        0.000005319233    -0.000008525479    -0.000003039761
       8       -0.000245662348     0.002502617688    -0.001371091959
       9       -0.000742727341     0.001528913824     0.001515173513
      10        0.000354693188    -0.002487098905     0.000830455662
      11        0.000029240491    -0.000005488927    -0.000022850893
      12        0.000596602842    -0.001492645130    -0.000911089544
      13       -0.000027448683    -0.000029766638    -0.000009166986
      14        0.000013967519    -0.000001120655    -0.000004597888
      15        0.000006700386    -0.000017747892    -0.000002859110
      16        0.000011487826     0.000006945399     0.000007118467
      17       -0.000025898922    -0.000010419552    -0.000005922931
      18        0.000003699017    -0.000005797447    -0.000004992799
      19       -0.000004688966    -0.000002777761     0.000003383502
      20        0.000004198231     0.000004615198    -0.000003706019

  **** Optimization is complete! (in 7 steps) ****
    Final optimized geometry and variables:
    Molecular point group: c1

    Geometry (in Angstrom), charge = 0, multiplicity = 1:

    O           -2.394905176106    -0.548095138569    -0.950881214189
    C           -1.876259492912     0.460838294902    -0.595984711926
    C           -2.587421264498     1.771985582566    -0.395897682603
    O           -0.583094156899     0.565803897038    -0.326691806869
    H           -2.152590146347     2.526446676323    -1.041326507210
    H           -3.636782940570     1.652944550136    -0.620715374827
    H           -2.462098688612     2.104089555138     0.628219273626
    C            0.216006531650    -0.604908133288    -0.474704151568
    C            1.657328135215    -0.260111219788    -0.089467138078
    H            0.137958273810    -0.962498834079    -1.491754856054
    H           -0.190861023680    -1.378994941070     0.162433320385
    C            2.103268516512    -0.891673658440     1.231607097638
    H            1.751107953220     0.819142160888    -0.038310024935
    H            2.326868823123    -0.590220662588    -0.879340039817
    C            3.538219056071    -0.526760189250     1.606453875652
    H            1.428653266906    -0.577731042937     2.025081429857
    H            2.011493461597    -1.973199647228     1.160866838557
    H            3.829716968699    -0.992983085243     2.542161663152
    H            3.651737777855     0.547324240429     1.721770686436
    H            4.238387853318    -0.852535138706     0.842283384177

  Mulliken Charges: (a.u.)
   Center  Symbol    Alpha    Beta     Spin     Total
       1     O     4.28376  4.28376  0.00000 -0.56751
       2     C     2.61983  2.61983  0.00000  0.76035
       3     C     3.28151  3.28151  0.00000 -0.56301
       4     O     4.30908  4.30908  0.00000 -0.61816
       5     H     0.40063  0.40063  0.00000  0.19874
       6     H     0.39699  0.39699  0.00000  0.20601
       7     H     0.40081  0.40081  0.00000  0.19837
       8     C     3.00374  3.00374  0.00000 -0.00747
       9     C     3.16868  3.16868  0.00000 -0.33736
      10     H     0.40829  0.40829  0.00000  0.18343
      11     H     0.40819  0.40819  0.00000  0.18363
      12     C     3.15780  3.15780  0.00000 -0.31559
      13     H     0.40563  0.40563  0.00000  0.18875
      14     H     0.41726  0.41726  0.00000  0.16548
      15     C     3.24086  3.24086  0.00000 -0.48171
      16     H     0.41828  0.41828  0.00000  0.16345
      17     H     0.42079  0.42079  0.00000  0.15841
      18     H     0.41712  0.41712  0.00000  0.16576
      19     H     0.41994  0.41994  0.00000  0.16012
      20     H     0.42084  0.42084  0.00000  0.15833

   Total alpha = 32.00000, Total beta = 32.00000, Total charge =  0.00000
