                              Psi4 1.0.54 Driver

  ==> Input File <==

--------------------------------------------------------------------------
set {
	reference rhf
	basis cc-pvtz
}

set_num_threads( 4 )
memory 2 gb

molecule MOL {
0 1

H	 2.101330	 -0.693998	 0.936822
C	 1.955678	 -0.254241	 -0.058695
C	 0.690519	 0.540760	 -0.226458
O	 2.763084	 -0.426179	 -0.904961
C	 -0.554654	 -0.292621	 0.086567
H	 0.661095	 0.929618	 -1.235794
H	 0.742441	 1.383702	 0.459568
C	 -1.846385	 0.513195	 -0.016346
H	 -0.600270	 -1.136369	 -0.596036
H	 -0.470592	 -0.709737	 1.086877
C	 -3.089953	 -0.365049	 -0.098564
H	 -1.798267	 1.154820	 -0.891143
H	 -1.925398	 1.173265	 0.842889
H	 -3.055079	 -1.012299	 -0.968245
H	 -3.988403	 0.236438	 -0.170014
H	 -3.183055	 -0.995885	 0.779079

	symmetry c1
}
set optking {
	frozen_dihedral = ("
		9 5 8 12
	")
}

ee,wfn = optimize('scf', return_wfn=True)
oeprop( wfn, 'DIPOLE', 'QUADRUPOLE', 'MULLIKEN_CHARGES')
f=open( 'psi4out.xyz', 'w' )
f.write( "16  " )
f.write( str(ee) + "\n" )
f.write( MOL.save_string_xyz() )
f.close()
--------------------------------------------------------------------------

    Molecular point group: c1
  Charge       = 0
  Multiplicity = 1
  Basis Set: CC-PVTZ
  Basis Set:
  @DF-RHF Final Energy:  -270.11829437030002
    Total Energy =                       -270.1182943703004753
    Molecular point group: c1
  Basis Set: CC-PVTZ
  Basis Set:
  Basis Set: CC-PVTZ
  Basis Set:
  @DF-RHF Final Energy:  -270.11837390397312
    Total Energy =                       -270.1183739039730654
  Basis Set: CC-PVTZ
  Basis Set:
  Basis Set: CC-PVTZ
  Basis Set:
  @DF-RHF Final Energy:  -270.11830624656812
    Total Energy =                       -270.1183062465682951
  Basis Set: CC-PVTZ
  Basis Set:
  Basis Set: CC-PVTZ
  Basis Set:
  @DF-RHF Final Energy:  -270.11843328033382
    Total Energy =                       -270.1184332803339316
  Basis Set: CC-PVTZ
  Basis Set:
  Basis Set: CC-PVTZ
  Basis Set:
  @DF-RHF Final Energy:  -270.11843511282996
    Total Energy =                       -270.1184351128300136
  Basis Set: CC-PVTZ
  Basis Set:
  Charge       = 0
  Multiplicity = 1
  Basis Set: CC-PVTZ
  Basis Set:

    Orbital Energies (a.u.)
    -----------------------

    Doubly Occupied:

       1A    -20.552196     2A    -11.321416     3A    -11.234747
       4A    -11.234130     5A    -11.227456     6A    -11.216876
       7A     -1.406946     8A     -1.097625     9A     -1.020301
      10A     -0.906980    11A     -0.813095    12A     -0.794441
      13A     -0.679510    14A     -0.650546    15A     -0.632743
      16A     -0.603338    17A     -0.584724    18A     -0.553757
      19A     -0.527232    20A     -0.512880    21A     -0.488860
      22A     -0.482739    23A     -0.478405    24A     -0.411702

  @DF-RHF Final Energy:  -270.11844268166038

   => Energetics <=

    Nuclear Repulsion Energy =            229.3410267340939299
    One-Electron Energy =                -820.0536476910485817
    Two-Electron Energy =                 320.5941782752943254
    DFT Exchange-Correlation Energy =       0.0000000000000000
    Empirical Dispersion Energy =           0.0000000000000000
    PCM Polarization Energy =               0.0000000000000000
    EFP Energy =                            0.0000000000000000
    Total Energy =                       -270.1184426816603263
    Molecular point group: c1
  Basis Set: CC-PVTZ
  Basis Set:

  -Total Gradient:
     Atom            X                  Y                   Z
    ------   -----------------  -----------------  -----------------
       1        0.000004851851    -0.000007919412     0.000004081447
       2       -0.000050430640     0.000023976687     0.000042722447
       3        0.000032065578    -0.000014368393     0.000020805553
       4        0.000060469447    -0.000020010525    -0.000053780566
       5        0.001733575597     0.002553601602    -0.002207770056
       6       -0.000004401683    -0.000002402848    -0.000019459382
       7       -0.000001173137     0.000025916534     0.000014436556
       8       -0.001753962987    -0.003024046955    -0.001542094933
       9       -0.001180074844    -0.001664178281     0.002080635896
      10        0.000021563099     0.000004961905     0.000019218478
      11       -0.000011884676     0.000016789410     0.000013119078
      12        0.001200027504     0.002110569485     0.001601302295
      13       -0.000014178264    -0.000005630829     0.000028703132
      14        0.000016185108    -0.000002398737    -0.000026062212
      15       -0.000059570794     0.000020662298    -0.000001758266
      16        0.000006938847    -0.000015521942     0.000025900532

  **** Optimization is complete! (in 6 steps) ****
    Final optimized geometry and variables:
    Molecular point group: c1

    Geometry (in Angstrom), charge = 0, multiplicity = 1:

    H            2.096125416655    -0.626463775697     1.173305310802
    C            1.973154839047    -0.192642732152     0.172182346485
    C            0.708101039574     0.594056190917    -0.031955972304
    O            2.802582303171    -0.363826623215    -0.652698014111
    C           -0.539645640742    -0.244354271936     0.250146458026
    H            0.702992729499     0.980162763993    -1.042646679735
    H            0.736120364185     1.439221497866     0.653137392016
    C           -1.834592137358     0.562820513312     0.166208014076
    H           -0.585422345763    -1.084249905027    -0.437094924857
    H           -0.463376644777    -0.683140017769     1.242251607362
    C           -3.083968929685    -0.308061220550     0.124193161128
    H           -1.801146606386     1.214069627934    -0.702213772581
    H           -1.887339605433     1.227522360126     1.024440685759
    H           -3.089344124517    -0.941679978123    -0.755980494739
    H           -3.982178546828     0.297710058913     0.102383244187
    H           -3.140767785910    -0.952412184595     0.995349288465

  Mulliken Charges: (a.u.)
   Center  Symbol    Alpha    Beta     Spin     Total
       1     H     0.46527  0.46527  0.00000  0.06945
       2     C     2.90881  2.90881  0.00000  0.18238
       3     C     3.07703  3.07703  0.00000 -0.15406
       4     O     4.16399  4.16399  0.00000 -0.32797
       5     C     3.10273  3.10273  0.00000 -0.20546
       6     H     0.44229  0.44229  0.00000  0.11541
       7     H     0.44996  0.44996  0.00000  0.10008
       8     C     3.08489  3.08489  0.00000 -0.16977
       9     H     0.44639  0.44639  0.00000  0.10723
      10     H     0.45157  0.45157  0.00000  0.09686
      11     C     3.14836  3.14836  0.00000 -0.29673
      12     H     0.45179  0.45179  0.00000  0.09641
      13     H     0.45285  0.45285  0.00000  0.09430
      14     H     0.45297  0.45297  0.00000  0.09406
      15     H     0.44687  0.44687  0.00000  0.10626
      16     H     0.45422  0.45422  0.00000  0.09156

   Total alpha = 24.00000, Total beta = 24.00000, Total charge = -0.00000

*** Psi4 exiting successfully. Buy a developer a beer!
