  ==> Input File <==

--------------------------------------------------------------------------
set {
	reference rhf
	basis 6-31G*
}

set_num_threads( 1 )
memory 2 gb

molecule MOL {
0 1

H	 -1.099663	 2.169466	 2.639289
O	 -0.819978	 2.715821	 1.918414
C	 -0.459388	 1.910613	 0.828183
C	 0.881752	 1.237348	 1.059971
H	 -1.214543	 1.158364	 0.617896
H	 -0.393032	 2.559947	 -0.033450
O	 1.171513	 0.459272	 -0.058250
H	 0.839619	 0.617690	 1.957874
H	 1.647207	 1.993953	 1.221865
C	 2.397842	 -0.198080	 -0.002151
H	 2.508049	 -0.905315	 -0.822092
H	 3.173794	 0.550865	 -0.078850
H	 2.517602	 -0.735921	 0.936026

	symmetry c1
}
set optking {
	frozen_dihedral = ("
		8 4 3 5,
		1 2 3 5,
		10 7 4 8
	")
}

ee = energy('scf')
oeprop('DIPOLE', 'QUADRUPOLE', 'MULLIKEN_CHARGES')
f=open( 'psi4out.xyz', 'w' )
f.write( "13  " )
f.write( str(ee) + "\n" )
f.write( MOL.save_string_xyz() )
f.close()
--------------------------------------------------------------------------

    Molecular point group: c1

    Geometry (in Angstrom), charge = 0, multiplicity = 1:

       Center              X                  Y                   Z               Mass
    ------------   -----------------  -----------------  -----------------  -----------------
           H         -1.724320408250     0.938066304932     1.865163299196     1.007825032070
           O         -1.444635408250     1.484421304932     1.144288299196    15.994914619560
           C         -1.084045408250     0.679213304932     0.054057299196    12.000000000000
           C          0.257094591750     0.005948304932     0.285845299196    12.000000000000
           H         -1.839200408250    -0.073035695068    -0.156229700804     1.007825032070
           H         -1.017689408250     1.328547304932    -0.807575700804     1.007825032070
           O          0.546855591750    -0.772127695068    -0.832375700804    15.994914619560
           H          0.214961591750    -0.613709695068     1.183748299196     1.007825032070
           H          1.022549591750     0.762553304932     0.447739299196     1.007825032070
           C          1.773184591750    -1.429479695068    -0.776276700804    12.000000000000
           H          1.883391591750    -2.136714695068    -1.596217700804     1.007825032070
           H          2.549136591750    -0.680534695068    -0.852975700804     1.007825032070
           H          1.892944591750    -1.967320695068     0.161900299196     1.007825032070

  Charge       = 0
  Multiplicity = 1
  Basis Set: 6-31G*
  Basis Set:

    Orbital Energies (a.u.)
    -----------------------

    Doubly Occupied:

       1A    -20.561168     2A    -20.560315     3A    -11.271443
       4A    -11.270545     5A    -11.269149     6A     -1.388543
       7A     -1.365319     8A     -1.018257     9A     -0.913315
      10A     -0.842265    11A     -0.709840    12A     -0.674178
      13A     -0.659056    14A     -0.639504    15A     -0.595631
      16A     -0.568916    17A     -0.547700    18A     -0.488773
      19A     -0.480882    20A     -0.438784    21A     -0.420971

  @DF-RHF Final Energy:  -267.94929216133909

   => Energetics <=

    Nuclear Repulsion Energy =            190.2897856480535665
    One-Electron Energy =                -743.1090690441794777
    Two-Electron Energy =                 284.8699912347861982
    DFT Exchange-Correlation Energy =       0.0000000000000000
    Empirical Dispersion Energy =           0.0000000000000000
    PCM Polarization Energy =               0.0000000000000000
    EFP Energy =                            0.0000000000000000
    Total Energy =                       -267.9492921613397129

  Mulliken Charges: (a.u.)
   Center  Symbol    Alpha    Beta     Spin     Total
       1     H     0.28125  0.28125  0.00000  0.43751
       2     O     4.37082  4.37082  0.00000 -0.74164
       3     C     3.00464  3.00464  0.00000 -0.00929
       4     C     2.99648  2.99648  0.00000  0.00704
       5     H     0.42212  0.42212  0.00000  0.15576
       6     H     0.40836  0.40836  0.00000  0.18328
       7     O     4.30839  4.30839  0.00000 -0.61678
       8     H     0.43715  0.43715  0.00000  0.12571
       9     H     0.42371  0.42371  0.00000  0.15258
      10     C     3.07983  3.07983  0.00000 -0.15966
      11     H     0.41112  0.41112  0.00000  0.17775
      12     H     0.42620  0.42620  0.00000  0.14761
      13     H     0.42994  0.42994  0.00000  0.14013

   Total alpha = 21.00000, Total beta = 21.00000, Total charge = -0.00000
