  ==> Input File <==

--------------------------------------------------------------------------
set {
	reference rhf
	basis cc-pvtz
}

set_num_threads( 4 )
memory 2 gb

molecule MOL {
0 1

O	 -1.510770	 1.240811	 -0.054933
C	 -1.081510	 0.147522	 0.122720
C	 0.327029	 -0.064006	 0.641890
C	 -1.903028	 -1.084121	 -0.174656
C	 1.349460	 -0.017068	 -0.500215
H	 0.399029	 -1.014606	 1.159950
H	 0.538021	 0.726928	 1.350471
C	 0.690222	 -0.064190	 -1.873871
H	 1.948392	 0.885464	 -0.419262
H	 2.030228	 -0.852951	 -0.389842
H	 1.434071	 -0.041205	 -2.661393
H	 0.025657	 0.780565	 -2.020480
H	 0.106545	 -0.970046	 -1.994765
H	 -1.341891	 -1.779207	 -0.789259
H	 -2.820449	 -0.808163	 -0.671328
H	 -2.133314	 -1.593056	 0.755831

	symmetry c1
}
set optking {
	frozen_dihedral = ("
		9 5 3 2
	")
}

ee = optimize('scf')
oeprop('DIPOLE', 'QUADRUPOLE', 'MULLIKEN_CHARGES')
f=open( 'psi4out.xyz', 'w' )
f.write( "16  " )
f.write( str(ee) + "\n" )
f.write( MOL.save_string_xyz() )
f.close()
--------------------------------------------------------------------------

    Molecular point group: c1
  Charge       = 0
  Multiplicity = 1
  Basis Set: CC-PVTZ
  Basis Set:
  @DF-RHF Final Energy:  -270.11624954545789
    Total Energy =                       -270.1162495454577765
    Molecular point group: c1
  Basis Set: CC-PVTZ
  Basis Set:
  Basis Set: CC-PVTZ
  Basis Set:
  @DF-RHF Final Energy:  -270.11992287359948
    Total Energy =                       -270.1199228735997053
  Basis Set: CC-PVTZ
  Basis Set:
  Basis Set: CC-PVTZ
  Basis Set:
  @DF-RHF Final Energy:  -270.11913487397305
    Total Energy =                       -270.1191348739730529
  Basis Set: CC-PVTZ
  Basis Set:
  Basis Set: CC-PVTZ
  Basis Set:
  @DF-RHF Final Energy:  -270.12073122637366
    Total Energy =                       -270.1207312263736640
  Basis Set: CC-PVTZ
  Basis Set:
  @DF-RHF Final Energy:  -270.12080245986533
    Total Energy =                       -270.1208024598652173
  @DF-RHF Final Energy:  -270.12081608000960
    Total Energy =                       -270.1208160800093765
  Basis Set: CC-PVTZ
  Basis Set:
  @DF-RHF Final Energy:  -270.12082718673605
    Total Energy =                       -270.1208271867358235
  Basis Set: CC-PVTZ
  Basis Set:
  Basis Set: CC-PVTZ
  Basis Set:
  @DF-RHF Final Energy:  -270.12084037358130
    Total Energy =                       -270.1208403735811316
  Basis Set: CC-PVTZ
  Basis Set:
  Basis Set: CC-PVTZ
  Basis Set:
  @DF-RHF Final Energy:  -270.12084727199135
    Total Energy =                       -270.1208472719913516
  Basis Set: CC-PVTZ
  Basis Set:
  Charge       = 0
  Multiplicity = 1
  Basis Set: CC-PVTZ
  Basis Set:

    Orbital Energies (a.u.)
    -----------------------

    Doubly Occupied:

       1A    -20.536537     2A    -11.320245     3A    -11.230455
       4A    -11.228792     5A    -11.227068     6A    -11.212992
       7A     -1.397248     8A     -1.076594     9A     -1.012480
      10A     -0.951414    11A     -0.833978    12A     -0.725623
      13A     -0.657272    14A     -0.643231    15A     -0.622314
      16A     -0.611272    17A     -0.578026    18A     -0.557438
      19A     -0.545138    20A     -0.508975    21A     -0.502565
      22A     -0.475315    23A     -0.473235    24A     -0.399745

  @DF-RHF Final Energy:  -270.12084824722376

   => Energetics <=

    Nuclear Repulsion Energy =            243.1305262540996921
    One-Electron Energy =                -847.8468528354610498
    Two-Electron Energy =                 334.5954783341377379
    DFT Exchange-Correlation Energy =       0.0000000000000000
    Empirical Dispersion Energy =           0.0000000000000000
    PCM Polarization Energy =               0.0000000000000000
    EFP Energy =                            0.0000000000000000
    Total Energy =                       -270.1208482472236483
    Molecular point group: c1
  Basis Set: CC-PVTZ
  Basis Set:

  -Total Gradient:
     Atom            X                  Y                   Z
    ------   -----------------  -----------------  -----------------
       1        0.000007000803    -0.000004819995     0.000003547195
       2       -0.000231844908    -0.002364498114    -0.000525136864
       3        0.000794792661     0.002952470733     0.001107405588
       4       -0.000037376730     0.000040892363     0.000096618714
       5       -0.002657977745     0.001094018571    -0.002401036057
       6       -0.000005041926     0.000001222909    -0.000005378215
       7        0.000004093682     0.000003263762    -0.000011160571
       8       -0.000009338657    -0.000016491002    -0.000005173479
       9        0.002096565763    -0.001686191460     0.001813491546
      10       -0.000001734041    -0.000001136734    -0.000008128692
      11        0.000008393112     0.000002336220     0.000007239982
      12       -0.000005307904     0.000006296065     0.000002022628
      13       -0.000001773720    -0.000000165971     0.000003736401
      14        0.000024549801     0.000000064015    -0.000032153960
      15        0.000004824912    -0.000008210485    -0.000014498238
      16        0.000010174896    -0.000019050874    -0.000031395979

  **** Optimization is complete! (in 10 steps) ****
    Final optimized geometry and variables:
    Molecular point group: c1

    Geometry (in Angstrom), charge = 0, multiplicity = 1:

    O           -1.173823587254     1.179761074448     0.212063773940
    C           -0.767808217217     0.090550447698     0.457839618186
    C            0.662198202936    -0.128692677349     0.921193426159
    C           -1.655405717891    -1.125258639438     0.343554928321
    C            1.737761292898     0.001671761466    -0.194328009864
    H            0.735945955669    -1.107562423627     1.379017149494
    H            0.852769566214     0.604584518324     1.693376052385
    C            1.241615940886    -0.011250486715    -1.637892738755
    H            2.312430208175     0.902230123643    -0.019706885477
    H            2.440843906271    -0.813456020001    -0.065686008052
    H            2.084789780251     0.046649798208    -2.315824655015
    H            0.588267164778     0.825355385771    -1.844487201201
    H            0.703094726555    -0.924272579759    -1.870175978445
    H           -1.181931253363    -1.886015328919    -0.266767388583
    H           -2.609461257139    -0.850393371725    -0.079361891161
    H           -1.804138319400    -1.554317405666     1.329389504124

  Mulliken Charges: (a.u.)
   Center  Symbol    Alpha    Beta     Spin     Total
       1     O     4.18110  4.18110  0.00000 -0.36219
       2     C     2.84951  2.84951  0.00000  0.30098
       3     C     3.11056  3.11056  0.00000 -0.22113
       4     C     3.15412  3.15412  0.00000 -0.30824
       5     C     3.08179  3.08179  0.00000 -0.16358
       6     H     0.44824  0.44824  0.00000  0.10352
       7     H     0.43802  0.43802  0.00000  0.12395
       8     C     3.16124  3.16124  0.00000 -0.32249
       9     H     0.44685  0.44685  0.00000  0.10630
      10     H     0.45054  0.45054  0.00000  0.09891
      11     H     0.44567  0.44567  0.00000  0.10866
      12     H     0.44009  0.44009  0.00000  0.11981
      13     H     0.45610  0.45610  0.00000  0.08780
      14     H     0.45140  0.45140  0.00000  0.09721
      15     H     0.43667  0.43667  0.00000  0.12665
      16     H     0.44808  0.44808  0.00000  0.10383

   Total alpha = 24.00000, Total beta = 24.00000, Total charge = -0.00000
