  ==> Input File <==

--------------------------------------------------------------------------
set {
	reference rhf
	basis cc-pvtz
}

set_num_threads( 4 )
memory 2 gb

molecule MOL {
0 1

H	 -2.816458	 -0.841657	 -0.064679
N	 -1.878861	 -0.711874	 0.250184
C	 -1.341419	 0.551458	 -0.220231
H	 -1.333674	 -1.468530	 -0.105118
C	 0.082190	 0.731516	 0.254705
H	 -1.357065	 0.652078	 -1.304747
H	 -1.939897	 1.357530	 0.189797
O	 0.881195	 -0.248324	 -0.336237
H	 0.440901	 1.722476	 -0.020063
H	 0.119896	 0.643586	 1.338114
C	 0.338702	 -0.822123	 -1.478899
H	 1.037353	 -1.561259	 -1.843522
H	 -0.608925	 -1.312475	 -1.266176
H	 0.174965	 -0.080495	 -2.257193

	symmetry c1
}
set optking {
	frozen_dihedral = ("
		11 8 5 3
	")
}

ee = optimize('scf')
oeprop('DIPOLE', 'QUADRUPOLE', 'MULLIKEN_CHARGES')
f=open( 'psi4out.xyz', 'w' )
f.write( "14  " )
f.write( str(ee) + "\n" )
f.write( MOL.save_string_xyz() )
f.close()
--------------------------------------------------------------------------

    Molecular point group: c1
  Charge       = 0
  Multiplicity = 1
  Basis Set: CC-PVTZ
  Basis Set:
  @DF-RHF Final Energy:  -248.18686436203572
    Total Energy =                       -248.1868643620359194
    Molecular point group: c1
  Basis Set: CC-PVTZ
  Basis Set:
  Basis Set: CC-PVTZ
  Basis Set:
  @DF-RHF Final Energy:  -248.20591221264007
    Total Energy =                       -248.2059122126401007
  Basis Set: CC-PVTZ
  Basis Set:
  Basis Set: CC-PVTZ
  Basis Set:
  @DF-RHF Final Energy:  -248.21220477309157
    Total Energy =                       -248.2122047730915710
  Basis Set: CC-PVTZ
  Basis Set:
  Basis Set: CC-PVTZ
  Basis Set:
  @DF-RHF Final Energy:  -248.21324065941002
    Total Energy =                       -248.2132406594099052
  Basis Set: CC-PVTZ
  Basis Set:
  @DF-RHF Final Energy:  -248.21353507309740
    Total Energy =                       -248.2135350730976597
  Basis Set: CC-PVTZ
  Basis Set:
  @DF-RHF Final Energy:  -248.21362355983288
    Total Energy =                       -248.2136235598326266
  Basis Set: CC-PVTZ
  Basis Set:
  Basis Set: CC-PVTZ
  Basis Set:
  @DF-RHF Final Energy:  -248.21363394855837
    Total Energy =                       -248.2136339485585381
  Basis Set: CC-PVTZ
  Basis Set:
  Basis Set: CC-PVTZ
  Basis Set:
  @DF-RHF Final Energy:  -248.21363581583157
    Total Energy =                       -248.2136358158317080
  Basis Set: CC-PVTZ
  Basis Set:
  Charge       = 0
  Multiplicity = 1
  Basis Set: CC-PVTZ
  Basis Set:

    Orbital Energies (a.u.)
    -----------------------

    Doubly Occupied:

       1A    -20.544910     2A    -15.533634     3A    -11.265313
       4A    -11.264862     5A    -11.247956     6A     -1.374276
       7A     -1.183637     8A     -1.002502     9A     -0.925476
      10A     -0.805808    11A     -0.688464    12A     -0.677414
      13A     -0.648461    14A     -0.615796    15A     -0.606085
      16A     -0.547599    17A     -0.539966    18A     -0.523257
      19A     -0.453728    20A     -0.411450    21A     -0.392012

  @DF-RHF Final Energy:  -248.21363603965656

   => Energetics <=

    Nuclear Repulsion Energy =            196.9555978368077547
    One-Electron Energy =                -727.8332542477702418
    Two-Electron Energy =                 282.6640203713057531
    DFT Exchange-Correlation Energy =       0.0000000000000000
    Empirical Dispersion Energy =           0.0000000000000000
    PCM Polarization Energy =               0.0000000000000000
    EFP Energy =                            0.0000000000000000
    Total Energy =                       -248.2136360396567056
    Molecular point group: c1
  Basis Set: CC-PVTZ
  Basis Set:

  -Total Gradient:
     Atom            X                  Y                   Z
    ------   -----------------  -----------------  -----------------
       1        0.000012805182     0.000012999525     0.000011056861
       2       -0.000034171787    -0.000031600064     0.000013883434
       3        0.000695703619     0.003212457626    -0.003444736699
       4       -0.000003883023     0.000005841353    -0.000007701665
       5       -0.002093785197    -0.006831730020     0.006525026267
       6        0.000008499746    -0.000006810525     0.000010049717
       7       -0.000001445839    -0.000016409590    -0.000006530112
       8        0.003526362270     0.007771531528    -0.005807006119
       9       -0.000007761861     0.000013318520     0.000019317619
      10       -0.000005919918    -0.000007924266    -0.000004808202
      11       -0.002087771231    -0.004115237577     0.002707931727
      12       -0.000004182984    -0.000001434642    -0.000015017395
      13       -0.000005887536    -0.000003704296    -0.000001137175
      14        0.000001438565    -0.000001297571    -0.000000328260

  **** Optimization is complete! (in 9 steps) ****
    Final optimized geometry and variables:
    Molecular point group: c1

    Geometry (in Angstrom), charge = 0, multiplicity = 1:

    H           -2.640535811079    -0.532358988595     0.502703337341
    N           -1.680809069845    -0.476051216181     0.768730403941
    C           -1.030704115228     0.678598422324     0.170040481382
    H           -1.242998470875    -1.331131050118     0.502762687825
    C            0.439654835286     0.763956598937     0.542716848717
    H           -1.147627612590     0.735644248591    -0.909871028999
    H           -1.499296625545     1.566861096436     0.577913982725
    O            1.329413829545    -0.119219368572    -0.095311923365
    H            0.770913181504     1.778024136541     0.330607669734
    H            0.543900303690     0.594839972821     1.605576252721
    C            0.987305770145    -0.734089057416    -1.292566363074
    H            1.824206560892    -1.359080814872    -1.569322668955
    H            0.107785033889    -1.363986839240    -1.211333755556
    H            0.820483040366    -0.017874383422    -2.093689756262

  Mulliken Charges: (a.u.)
   Center  Symbol    Alpha    Beta     Spin     Total
       1     H     0.42910  0.42910  0.00000  0.14179
       2     N     3.69001  3.69001  0.00000 -0.38002
       3     C     3.06020  3.06020  0.00000 -0.12040
       4     H     0.42442  0.42442  0.00000  0.15116
       5     C     2.96689  2.96689  0.00000  0.06622
       6     H     0.45659  0.45659  0.00000  0.08682
       7     H     0.44577  0.44577  0.00000  0.10846
       8     O     4.18166  4.18166  0.00000 -0.36331
       9     H     0.46634  0.46634  0.00000  0.06732
      10     H     0.45576  0.45576  0.00000  0.08847
      11     C     3.03478  3.03478  0.00000 -0.06956
      12     H     0.44075  0.44075  0.00000  0.11850
      13     H     0.47761  0.47761  0.00000  0.04477
      14     H     0.47011  0.47011  0.00000  0.05978

   Total alpha = 21.00000, Total beta = 21.00000, Total charge =  0.00000
