  ==> Input File <==

--------------------------------------------------------------------------
set {
	reference rhf
	basis 6-31G*
}

set_num_threads( 1 )
memory 2 gb

molecule MOL {
0 1

O	 1.097365	 0.401464	 0.982751
C	 1.705091	 0.115954	 0.001797
C	 1.444441	 0.658826	 -1.382117
O	 2.721346	 -0.737485	 -0.000216
C	 0.284826	 1.648762	 -1.436546
H	 2.367285	 1.113788	 -1.731521
H	 1.267938	 -0.190734	 -2.036193
C	 0.043681	 2.183121	 -2.849122
H	 0.486270	 2.473022	 -0.759638
H	 -0.614420	 1.166934	 -1.065727
C	 -1.115682	 3.178328	 -2.921910
H	 0.950117	 2.661921	 -3.216709
H	 -0.155394	 1.351647	 -3.523587
C	 -1.356925	 3.710964	 -4.333771
H	 -0.917147	 4.010841	 -2.250608
H	 -2.022066	 2.701236	 -2.555865
H	 -0.478695	 4.224531	 -4.714791
H	 -2.184470	 4.413290	 -4.352727
H	 -1.591962	 2.904388	 -5.022613
C	 4.024888	 -0.184556	 -0.001949
H	 4.179030	 0.422472	 -0.882452
H	 4.701782	 -1.024608	 -0.003642
H	 4.181981	 0.421185	 0.878906

	symmetry c1
}
set optking {
	frozen_dihedral = ("
		15 11 8 12,
		9 5 8 12,
		1 2 3 6,
		9 5 3 6
	")
}

ee = energy('scf')
oeprop('DIPOLE', 'QUADRUPOLE', 'MULLIKEN_CHARGES')
f=open( 'psi4out.xyz', 'w' )
f.write( "23  " )
f.write( str(ee) + "\n" )
f.write( MOL.save_string_xyz() )
f.close()
--------------------------------------------------------------------------

    Molecular point group: c1

    Geometry (in Angstrom), charge = 0, multiplicity = 1:

       Center              X                  Y                   Z               Mass
    ------------   -----------------  -----------------  -----------------  -----------------
           O          0.085110919757    -0.807001486887     2.295973644162    15.994914619560
           C          0.692836919757    -1.092511486887     1.315019644162    12.000000000000
           C          0.432186919757    -0.549639486887    -0.068894355838    12.000000000000
           O          1.709091919757    -1.945950486887     1.313006644162    15.994914619560
           C         -0.727428080243     0.440296513113    -0.123323355838    12.000000000000
           H          1.355030919757    -0.094677486887    -0.418298355838     1.007825032070
           H          0.255683919757    -1.399199486887    -0.722970355838     1.007825032070
           C         -0.968573080243     0.974655513113    -1.535899355838    12.000000000000
           H         -0.525984080243     1.264556513113     0.553584644162     1.007825032070
           H         -1.626674080243    -0.041531486887     0.247495644162     1.007825032070
           C         -2.127936080243     1.969862513113    -1.608687355838    12.000000000000
           H         -0.062137080243     1.453455513113    -1.903486355838     1.007825032070
           H         -1.167648080243     0.143181513113    -2.210364355838     1.007825032070
           C         -2.369179080243     2.502498513113    -3.020548355838    12.000000000000
           H         -1.929401080243     2.802375513113    -0.937385355838     1.007825032070
           H         -3.034320080243     1.492770513113    -1.242642355838     1.007825032070
           H         -1.490949080243     3.016065513113    -3.401568355838     1.007825032070
           H         -3.196724080243     3.204824513113    -3.039504355838     1.007825032070
           H         -2.604216080243     1.695922513113    -3.709390355838     1.007825032070
           C          3.012633919757    -1.393021486887     1.311273644162    12.000000000000
           H          3.166775919757    -0.785993486887     0.430770644162     1.007825032070
           H          3.689527919757    -2.233073486887     1.309580644162     1.007825032070
           H          3.169726919757    -0.787280486887     2.192128644162     1.007825032070

  Charge       = 0
  Multiplicity = 1
  Basis Set: 6-31G*
  Basis Set:

    Orbital Energies (a.u.)
    -----------------------

    Doubly Occupied:

       1A    -20.588218     2A    -20.554935     3A    -11.373803
       4A    -11.296488     5A    -11.237557     6A    -11.220701
       7A    -11.219535     8A    -11.217794     9A    -11.210920
      10A     -1.464081    11A     -1.368099    12A     -1.094121
      13A     -1.041289    14A     -0.986678    15A     -0.946042
      16A     -0.851229    17A     -0.797130    18A     -0.768356
      19A     -0.695526    20A     -0.682335    21A     -0.677851
      22A     -0.650823    23A     -0.620995    24A     -0.605480
      25A     -0.579627    26A     -0.567887    27A     -0.557946
      28A     -0.539787    29A     -0.509992    30A     -0.494000
      31A     -0.484466    32A     -0.481230    33A     -0.470210
      34A     -0.467225    35A     -0.451134    36A     -0.429887

  @DF-RHF Final Energy:  -422.95319909871029

   => Energetics <=

    Nuclear Repulsion Energy =            454.8111299438579067
    One-Electron Energy =               -1477.1220959098109233
    Two-Electron Energy =                 599.3577668672417076
    DFT Exchange-Correlation Energy =       0.0000000000000000
    Empirical Dispersion Energy =           0.0000000000000000
    PCM Polarization Energy =               0.0000000000000000
    EFP Energy =                            0.0000000000000000
    Total Energy =                       -422.9531990987113659

  Mulliken Charges: (a.u.)
   Center  Symbol    Alpha    Beta     Spin     Total
       1     O     4.25782  4.25782  0.00000 -0.51564
       2     C     2.61390  2.61390  0.00000  0.77220
       3     C     3.21577  3.21577  0.00000 -0.43155
       4     O     4.30904  4.30904  0.00000 -0.61808
       5     C     3.15250  3.15250  0.00000 -0.30501
       6     H     0.40829  0.40829  0.00000  0.18341
       7     H     0.39858  0.39858  0.00000  0.20285
       8     C     3.15297  3.15297  0.00000 -0.30595
       9     H     0.41287  0.41287  0.00000  0.17427
      10     H     0.41015  0.41015  0.00000  0.17970
      11     C     3.15161  3.15161  0.00000 -0.30321
      12     H     0.42551  0.42551  0.00000  0.14898
      13     H     0.42379  0.42379  0.00000  0.15241
      14     C     3.23959  3.23959  0.00000 -0.47917
      15     H     0.42150  0.42150  0.00000  0.15700
      16     H     0.42078  0.42078  0.00000  0.15844
      17     H     0.42221  0.42221  0.00000  0.15559
      18     H     0.41820  0.41820  0.00000  0.16360
      19     H     0.42167  0.42167  0.00000  0.15666
      20     C     3.09405  3.09405  0.00000 -0.18811
      21     H     0.42056  0.42056  0.00000  0.15888
      22     H     0.39998  0.39998  0.00000  0.20003
      23     H     0.40865  0.40865  0.00000  0.18271

   Total alpha = 36.00000, Total beta = 36.00000, Total charge =  0.00000
