  ==> Input File <==

--------------------------------------------------------------------------
set {
	reference rhf
	basis 6-31G*
}

set_num_threads( 1 )
memory 2 gb

molecule MOL {
0 1

O	 -2.042549	 -1.228399	 -0.269030
C	 -1.653912	 -0.146171	 0.050137
C	 -0.332303	 0.024011	 0.778412
C	 -2.438579	 1.106236	 -0.272369
C	 -0.559208	 0.476044	 2.229637
H	 0.232915	 -0.903732	 0.764153
H	 0.240315	 0.777587	 0.249116
C	 0.749674	 0.689311	 2.991462
H	 -1.163365	 -0.261786	 2.754692
H	 -1.133195	 1.397768	 2.219349
C	 0.527180	 1.147508	 4.432211
H	 1.323648	 -0.234798	 2.989991
H	 1.353171	 1.426008	 2.466451
H	 -0.045390	 0.414584	 4.993494
H	 -0.016587	 2.087031	 4.464739
H	 1.471655	 1.293530	 4.946674
H	 -3.277823	 0.863061	 -0.908988
H	 -1.806773	 1.843019	 -0.759671
H	 -2.802853	 1.554979	 0.648059

	symmetry c1
}
set optking {
	frozen_dihedral = ("
		11 8 5 9,
		9 5 3 2
	")
}

ee = energy('scf')
oeprop('DIPOLE', 'QUADRUPOLE', 'MULLIKEN_CHARGES')
f=open( 'psi4out.xyz', 'w' )
f.write( "19  " )
f.write( str(ee) + "\n" )
f.write( MOL.save_string_xyz() )
f.close()
--------------------------------------------------------------------------

    Molecular point group: c1

    Geometry (in Angstrom), charge = 0, multiplicity = 1:

       Center              X                  Y                   Z               Mass
    ------------   -----------------  -----------------  -----------------  -----------------
           O         -1.215039302292    -1.530657001485    -1.700090078706    15.994914619560
           C         -0.826402302292    -0.448429001485    -1.380923078706    12.000000000000
           C          0.495206697708    -0.278247001485    -0.652648078706    12.000000000000
           C         -1.611069302292     0.803977998515    -1.703429078706    12.000000000000
           C          0.268301697708     0.173785998515     0.798576921294    12.000000000000
           H          1.060424697708    -1.205990001485    -0.666907078706     1.007825032070
           H          1.067824697708     0.475328998515    -1.181944078706     1.007825032070
           C          1.577183697708     0.387052998515     1.560401921294    12.000000000000
           H         -0.335855302292    -0.564044001485     1.323631921294     1.007825032070
           H         -0.305685302292     1.095509998515     0.788288921294     1.007825032070
           C          1.354689697708     0.845249998515     3.001150921294    12.000000000000
           H          2.151157697708    -0.537056001485     1.558930921294     1.007825032070
           H          2.180680697708     1.123749998515     1.035390921294     1.007825032070
           H          0.782119697708     0.112325998515     3.562433921294     1.007825032070
           H          0.810922697708     1.784772998515     3.033678921294     1.007825032070
           H          2.299164697708     0.991271998515     3.515613921294     1.007825032070
           H         -2.450313302292     0.560802998515    -2.340048078706     1.007825032070
           H         -0.979263302292     1.540760998515    -2.190731078706     1.007825032070
           H         -1.975343302292     1.252720998515    -0.783001078706     1.007825032070

  Charge       = 0
  Multiplicity = 1
  Basis Set: 6-31G*
  Basis Set:

    Orbital Energies (a.u.)
    -----------------------

    Doubly Occupied:

       1A    -20.547159     2A    -11.323873     3A    -11.232610
       4A    -11.229487     5A    -11.228713     6A    -11.226511
       7A    -11.216527     8A     -1.392430     9A     -1.094440
      10A     -1.030445    11A     -0.982723    12A     -0.891977
      13A     -0.809182    14A     -0.733761    15A     -0.663935
      16A     -0.646539    17A     -0.624176    18A     -0.614716
      19A     -0.581630    20A     -0.574793    21A     -0.554225
      22A     -0.537424    23A     -0.507467    24A     -0.505688
      25A     -0.485364    26A     -0.477885    27A     -0.468759
      28A     -0.396109

  @DF-RHF Final Energy:  -309.06376873113243

   => Energetics <=

    Nuclear Repulsion Energy =            301.7179101044167737
    One-Electron Energy =               -1016.4062393651009870
    Two-Electron Energy =                 405.6245605295517862
    DFT Exchange-Correlation Energy =       0.0000000000000000
    Empirical Dispersion Energy =           0.0000000000000000
    PCM Polarization Energy =               0.0000000000000000
    EFP Energy =                            0.0000000000000000
    Total Energy =                       -309.0637687311324271

  Mulliken Charges: (a.u.)
   Center  Symbol    Alpha    Beta     Spin     Total
       1     O     4.26053  4.26053  0.00000 -0.52105
       2     C     2.73659  2.73659  0.00000  0.52682
       3     C     3.20009  3.20009  0.00000 -0.40018
       4     C     3.29023  3.29023  0.00000 -0.58046
       5     C     3.16552  3.16552  0.00000 -0.33104
       6     H     0.39935  0.39935  0.00000  0.20131
       7     H     0.41542  0.41542  0.00000  0.16916
       8     C     3.15118  3.15118  0.00000 -0.30235
       9     H     0.41167  0.41167  0.00000  0.17667
      10     H     0.42009  0.42009  0.00000  0.15982
      11     C     3.24032  3.24032  0.00000 -0.48063
      12     H     0.41865  0.41865  0.00000  0.16271
      13     H     0.42166  0.42166  0.00000  0.15668
      14     H     0.41945  0.41945  0.00000  0.16111
      15     H     0.42121  0.42121  0.00000  0.15757
      16     H     0.41697  0.41697  0.00000  0.16605
      17     H     0.39537  0.39537  0.00000  0.20926
      18     H     0.40999  0.40999  0.00000  0.18002
      19     H     0.40573  0.40573  0.00000  0.18854

   Total alpha = 28.00000, Total beta = 28.00000, Total charge = -0.00000
