  ==> Input File <==

--------------------------------------------------------------------------
set {
	reference rhf
	basis 6-31G*
}

set_num_threads( 1 )
memory 2 gb

molecule MOL {
0 1

H	 1.136379	 0.211822	 1.465562
C	 1.135357	 0.094285	 0.374742
C	 0.065331	 0.871482	 -0.349150
O	 1.941633	 -0.601957	 -0.151457
C	 -0.429674	 2.079283	 0.459348
H	 -0.746798	 0.194435	 -0.587830
H	 0.498115	 1.219770	 -1.285929
C	 -1.180143	 1.687636	 1.732860
H	 -1.078720	 2.675107	 -0.174483
H	 0.415510	 2.716173	 0.711688
H	 -2.048815	 1.079501	 1.500250
H	 -1.522626	 2.568711	 2.265523
H	 -0.552756	 1.116090	 2.410437

	symmetry c1
}
set optking {
	frozen_dihedral = ("
		6 3 5 9
	")
}

ee = energy('scf')
oeprop('DIPOLE', 'QUADRUPOLE', 'MULLIKEN_CHARGES')
f=open( 'psi4out.xyz', 'w' )
f.write( "13  " )
f.write( str(ee) + "\n" )
f.write( MOL.save_string_xyz() )
f.close()
--------------------------------------------------------------------------

    Molecular point group: c1

    Geometry (in Angstrom), charge = 0, multiplicity = 1:

       Center              X                  Y                   Z               Mass
    ------------   -----------------  -----------------  -----------------  -----------------
           H          0.828063070259    -0.607492706455     1.041655974348     1.007825032070
           C          0.827041070259    -0.725029706455    -0.049164025652    12.000000000000
           C         -0.242984929741     0.052167293545    -0.773056025652    12.000000000000
           O          1.633317070259    -1.421271706455    -0.575363025652    15.994914619560
           C         -0.737989929741     1.259968293545     0.035441974348    12.000000000000
           H         -1.055113929741    -0.624879706455    -1.011736025652     1.007825032070
           H          0.189799070259     0.400455293545    -1.709835025652     1.007825032070
           C         -1.488458929741     0.868321293545     1.308953974348    12.000000000000
           H         -1.387035929741     1.855792293545    -0.598389025652     1.007825032070
           H          0.107194070259     1.896858293545     0.287781974348     1.007825032070
           H         -2.357130929741     0.260186293545     1.076343974348     1.007825032070
           H         -1.830941929741     1.749396293545     1.841616974348     1.007825032070
           H         -0.861071929741     0.296775293545     1.986530974348     1.007825032070

  Charge       = 0
  Multiplicity = 1
  Basis Set: 6-31G*
  Basis Set:

    Orbital Energies (a.u.)
    -----------------------

    Doubly Occupied:

       1A    -20.561911     2A    -11.326685     3A    -11.237894
       4A    -11.236158     5A    -11.225622     6A     -1.402152
       7A     -1.089043     8A     -0.972985     9A     -0.852153
      10A     -0.788651    11A     -0.667579    12A     -0.651862
      13A     -0.616925    14A     -0.591448    15A     -0.582938
      16A     -0.526144    17A     -0.508808    18A     -0.491651
      19A     -0.486345    20A     -0.408033

  @DF-RHF Final Energy:  -230.98154542103427

   => Energetics <=

    Nuclear Repulsion Energy =            172.7277980737519840
    One-Electron Energy =                -654.9687192579642669
    Two-Electron Energy =                 251.2593757631783546
    DFT Exchange-Correlation Energy =       0.0000000000000000
    Empirical Dispersion Energy =           0.0000000000000000
    PCM Polarization Energy =               0.0000000000000000
    EFP Energy =                            0.0000000000000000
    Total Energy =                       -230.9815454210339567

  Mulliken Charges: (a.u.)
   Center  Symbol    Alpha    Beta     Spin     Total
       1     H     0.43067  0.43067  0.00000  0.13866
       2     C     2.83242  2.83242  0.00000  0.33516
       3     C     3.20773  3.20773  0.00000 -0.41546
       4     O     4.24060  4.24060  0.00000 -0.48121
       5     C     3.16794  3.16794  0.00000 -0.33588
       6     H     0.40057  0.40057  0.00000  0.19887
       7     H     0.39778  0.39778  0.00000  0.20444
       8     C     3.24569  3.24569  0.00000 -0.49138
       9     H     0.41118  0.41118  0.00000  0.17763
      10     H     0.41578  0.41578  0.00000  0.16845
      11     H     0.41770  0.41770  0.00000  0.16460
      12     H     0.41319  0.41319  0.00000  0.17361
      13     H     0.41875  0.41875  0.00000  0.16251

   Total alpha = 20.00000, Total beta = 20.00000, Total charge = -0.00000
