  ==> Input File <==

--------------------------------------------------------------------------
set {
	reference rhf
	basis 6-31G*
}

set_num_threads( 4 )
memory 2 gb

molecule MOL {
0 1

H	 -0.981466	 0.320726	 -1.006044
N	 -0.712432	 0.000013	 -0.096310
C	 0.734192	 -0.000004	 0.040609
H	 -1.077160	 -0.927165	 0.004554
H	 1.139899	 -0.873598	 -0.456463
H	 1.139939	 0.873831	 -0.456100
H	 1.096456	 -0.000300	 1.069655

	symmetry c1
}
set optking {
	frozen_dihedral = ("
		1 2 3 7
	")
}

ee = optimize('scf')
oeprop('DIPOLE', 'QUADRUPOLE', 'MULLIKEN_CHARGES')
f=open( 'psi4out.xyz', 'w' )
f.write( "7  " )
f.write( str(ee) + "\n" )
f.write( MOL.save_string_xyz() )
f.close()
--------------------------------------------------------------------------

    Molecular point group: c1
  Charge       = 0
  Multiplicity = 1
  Basis Set: 6-31G*
  Basis Set:
  @DF-RHF Final Energy:   -95.20691477747604
    Total Energy =                        -95.2069147774760438
    Molecular point group: c1
  Basis Set: 6-31G*
  Basis Set:
  Basis Set: 6-31G*
  Basis Set:
  @DF-RHF Final Energy:   -95.20875547391086
    Total Energy =                        -95.2087554739108555
  Basis Set: 6-31G*
  Basis Set:
  Basis Set: 6-31G*
  Basis Set:
  @DF-RHF Final Energy:   -95.20896345404530
    Total Energy =                        -95.2089634540453744
  Basis Set: 6-31G*
  Basis Set:
  Basis Set: 6-31G*
  Basis Set:
  @DF-RHF Final Energy:   -95.20896687656467
    Total Energy =                        -95.2089668765646309
  Basis Set: 6-31G*
  Basis Set:
  Charge       = 0
  Multiplicity = 1
  Basis Set: 6-31G*
  Basis Set:

    Orbital Energies (a.u.)
    -----------------------

    Doubly Occupied:

       1A    -15.533388     2A    -11.237207     3A     -1.169340
       4A     -0.896611     5A     -0.665357     6A     -0.601960
       7A     -0.558974     8A     -0.516620     9A     -0.381189

  @DF-RHF Final Energy:   -95.20896732337613

   => Energetics <=

    Nuclear Repulsion Energy =             42.3267201319437518
    One-Electron Energy =                -211.9500823409385930
    Two-Electron Energy =                  74.4143948856187762
    DFT Exchange-Correlation Energy =       0.0000000000000000
    Empirical Dispersion Energy =           0.0000000000000000
    PCM Polarization Energy =               0.0000000000000000
    EFP Energy =                            0.0000000000000000
    Total Energy =                        -95.2089673233760720
    Molecular point group: c1
  Basis Set: 6-31G*
  Basis Set:

  -Total Gradient:
     Atom            X                  Y                   Z
    ------   -----------------  -----------------  -----------------
       1       -0.000003745700     0.002416945572     0.000857205076
       2       -0.000013949270    -0.002443161689    -0.001058275197
       3        0.000027999860    -0.002359837681     0.000251463615
       4       -0.000000230287     0.000009325779    -0.000009531004
       5       -0.000029490959     0.000024411459     0.000002836263
       6       -0.000007102506    -0.000004812230     0.000000619855
       7        0.000026518863     0.002357128791    -0.000044318607

  **** Optimization is complete! (in 5 steps) ****
    Final optimized geometry and variables:
    Molecular point group: c1

    Geometry (in Angstrom), charge = 0, multiplicity = 1:

    H           -1.005351659464     0.340968968955    -0.937496652226
    N           -0.716961437493     0.029968317148    -0.031852127660
    C            0.731944283744     0.003611045548     0.076568488406
    H           -1.115321488958    -0.874295031844     0.123779457108
    H            1.210843826142    -0.846715577470    -0.408830634438
    H            1.134275448125     0.906878601303    -0.367922592931
    H            1.022132023032     0.013776642934     1.121347166969

  Mulliken Charges: (a.u.)
   Center  Symbol    Alpha    Beta     Spin     Total
       1     H     0.33266  0.33266  0.00000  0.33469
       2     N     3.92042  3.92042  0.00000 -0.84083
       3     C     3.14627  3.14627  0.00000 -0.29255
       4     H     0.33259  0.33259  0.00000  0.33482
       5     H     0.43229  0.43229  0.00000  0.13543
       6     H     0.41926  0.41926  0.00000  0.16148
       7     H     0.41652  0.41652  0.00000  0.16697

   Total alpha =  9.00000, Total beta =  9.00000, Total charge =  0.00000
