  ==> Input File <==

--------------------------------------------------------------------------
set {
	reference rhf
	basis 6-31G*
}

set_num_threads( 1 )
memory 2 gb

molecule MOL {
0 1

H	 2.635734	 -0.193626	 -0.539295
C	 1.951159	 -0.223429	 0.317018
C	 0.692068	 0.589600	 0.160137
O	 2.225760	 -0.865535	 1.278487
C	 -0.558097	 -0.297372	 0.091132
H	 0.791645	 1.202255	 -0.728243
H	 0.616171	 1.253469	 1.020572
C	 -1.850991	 0.512573	 -0.019058
H	 -0.476753	 -0.965681	 -0.762987
H	 -0.604799	 -0.930658	 0.975228
C	 -3.096943	 -0.368295	 -0.099594
H	 -1.800724	 1.150330	 -0.898172
H	 -1.931651	 1.177355	 0.838044
H	 -3.060452	 -1.020287	 -0.967456
H	 -3.996858	 0.233488	 -0.175704
H	 -3.191959	 -0.995686	 0.782074

	symmetry c1
}
set optking {
	frozen_dihedral = ("
		9 5 8 12,
		6 3 5 9
	")
}

ee = energy('scf')
oeprop('DIPOLE', 'QUADRUPOLE', 'MULLIKEN_CHARGES')
f=open( 'psi4out.xyz', 'w' )
f.write( "16  " )
f.write( str(ee) + "\n" )
f.write( MOL.save_string_xyz() )
f.close()
--------------------------------------------------------------------------

    Molecular point group: c1

    Geometry (in Angstrom), charge = 0, multiplicity = 1:

       Center              X                  Y                   Z               Mass
    ------------   -----------------  -----------------  -----------------  -----------------
           H          2.750272392152    -0.073157011215    -0.834223200764     1.007825032070
           C          2.065697392152    -0.102960011215     0.022089799236    12.000000000000
           C          0.806606392152     0.710068988785    -0.134791200764    12.000000000000
           O          2.340298392152    -0.745066011215     0.983558799236    15.994914619560
           C         -0.443558607848    -0.176903011215    -0.203796200764    12.000000000000
           H          0.906183392152     1.322723988785    -1.023171200764     1.007825032070
           H          0.730709392152     1.373937988785     0.725643799236     1.007825032070
           C         -1.736452607848     0.633041988785    -0.313986200764    12.000000000000
           H         -0.362214607848    -0.845212011215    -1.057915200764     1.007825032070
           H         -0.490260607848    -0.810189011215     0.680299799236     1.007825032070
           C         -2.982404607848    -0.247826011215    -0.394522200764    12.000000000000
           H         -1.686185607848     1.270798988785    -1.193100200764     1.007825032070
           H         -1.817112607848     1.297823988785     0.543115799236     1.007825032070
           H         -2.945913607848    -0.899818011215    -1.262384200764     1.007825032070
           H         -3.882319607848     0.353956988785    -0.470632200764     1.007825032070
           H         -3.077420607848    -0.875217011215     0.487145799236     1.007825032070

  Charge       = 0
  Multiplicity = 1
  Basis Set: 6-31G*
  Basis Set:

    Orbital Energies (a.u.)
    -----------------------

    Doubly Occupied:

       1A    -20.562721     2A    -11.326883     3A    -11.235220
       4A    -11.232163     5A    -11.225959     6A    -11.215714
       7A     -1.402868     8A     -1.092454     9A     -1.016782
      10A     -0.907450    11A     -0.813115    12A     -0.781969
      13A     -0.681660    14A     -0.645922    15A     -0.628683
      16A     -0.601349    17A     -0.578410    18A     -0.549372
      19A     -0.526665    20A     -0.507973    21A     -0.483760
      22A     -0.479765    23A     -0.473496    24A     -0.408011

  @DF-RHF Final Energy:  -270.01819365354299

   => Energetics <=

    Nuclear Repulsion Energy =            230.6536711593231246
    One-Electron Energy =                -822.5868318732403850
    Two-Electron Energy =                 321.9149670603750337
    DFT Exchange-Correlation Energy =       0.0000000000000000
    Empirical Dispersion Energy =           0.0000000000000000
    PCM Polarization Energy =               0.0000000000000000
    EFP Energy =                            0.0000000000000000
    Total Energy =                       -270.0181936535421983

  Mulliken Charges: (a.u.)
   Center  Symbol    Alpha    Beta     Spin     Total
       1     H     0.42927  0.42927  0.00000  0.14146
       2     C     2.84127  2.84127  0.00000  0.31745
       3     C     3.20138  3.20138  0.00000 -0.40277
       4     O     4.23675  4.23675  0.00000 -0.47350
       5     C     3.15862  3.15862  0.00000 -0.31723
       6     H     0.41574  0.41574  0.00000  0.16851
       7     H     0.40096  0.40096  0.00000  0.19807
       8     C     3.15245  3.15245  0.00000 -0.30490
       9     H     0.41902  0.41902  0.00000  0.16196
      10     H     0.40559  0.40559  0.00000  0.18881
      11     C     3.24048  3.24048  0.00000 -0.48096
      12     H     0.42208  0.42208  0.00000  0.15585
      13     H     0.41986  0.41986  0.00000  0.16028
      14     H     0.42050  0.42050  0.00000  0.15900
      15     H     0.41723  0.41723  0.00000  0.16554
      16     H     0.41879  0.41879  0.00000  0.16243

   Total alpha = 24.00000, Total beta = 24.00000, Total charge =  0.00000
