  ==> Input File <==

--------------------------------------------------------------------------
set {
	reference rhf
	basis cc-pvtz
}

set_num_threads( 4 )
memory 2 gb

molecule MOL {
0 1

H	 2.421347	 -1.587156	 -0.933404
N	 1.441837	 -1.404824	 -0.948374
C	 1.187370	 0.015581	 -1.080803
C	 0.800851	 -1.953253	 0.229848
H	 1.660190	 0.377255	 -1.985781
H	 1.586846	 0.588009	 -0.241538
C	 -0.309564	 0.253778	 -1.161575
H	 0.993589	 -3.018241	 0.274597
H	 1.175906	 -1.505217	 1.151920
C	 -0.695578	 -1.712477	 0.147358
H	 -0.690274	 -0.187399	 -2.087325
H	 -0.504520	 1.318924	 -1.201246
N	 -0.976577	 -0.298712	 -0.000000
H	 -1.169645	 -2.069055	 1.054128
H	 -1.102880	 -2.289112	 -0.688218
C	 -2.391156	 -0.021003	 -0.000000
H	 -2.853954	 -0.458728	 -0.875714
H	 -2.853954	 -0.458728	 0.875714
H	 -2.614037	 1.049773	 -0.000000

	symmetry c1
}
set optking {
	frozen_dihedral = ("
		7 13 16 19
	")
}

ee = optimize('scf')
oeprop('DIPOLE', 'QUADRUPOLE', 'MULLIKEN_CHARGES')
f=open( 'psi4out.xyz', 'w' )
f.write( "19  " )
f.write( str(ee) + "\n" )
f.write( MOL.save_string_xyz() )
f.close()
--------------------------------------------------------------------------

    Molecular point group: c1
  Charge       = 0
  Multiplicity = 1
  Basis Set: CC-PVTZ
  Basis Set:
  @DF-RHF Final Energy:  -305.30834163417239
    Total Energy =                       -305.3083416341719953
    Molecular point group: c1
  Basis Set: CC-PVTZ
  Basis Set:
  Basis Set: CC-PVTZ
  Basis Set:
  @DF-RHF Final Energy:  -305.30899319986145
    Total Energy =                       -305.3089931998616748
  Basis Set: CC-PVTZ
  Basis Set:
  Basis Set: CC-PVTZ
  Basis Set:
  @DF-RHF Final Energy:  -305.30907070803960
    Total Energy =                       -305.3090707080397124
  Basis Set: CC-PVTZ
  Basis Set:
  Charge       = 0
  Multiplicity = 1
  Basis Set: CC-PVTZ
  Basis Set:

    Orbital Energies (a.u.)
    -----------------------

    Doubly Occupied:

       1A    -15.536714     2A    -15.531265     3A    -11.237316
       4A    -11.237296     5A    -11.235864     6A    -11.235842
       7A    -11.233217     8A     -1.249547     9A     -1.187922
      10A     -1.024021    11A     -0.965850    12A     -0.861804
      13A     -0.858261    14A     -0.757636    15A     -0.692868
      16A     -0.635315    17A     -0.627592    18A     -0.609679
      19A     -0.605333    20A     -0.581538    21A     -0.543624
      22A     -0.529240    23A     -0.512315    24A     -0.490604
      25A     -0.467812    26A     -0.458359    27A     -0.366105
      28A     -0.348486

  @DF-RHF Final Energy:  -305.30907122848851

   => Energetics <=

    Nuclear Repulsion Energy =            340.3505552450876621
    One-Electron Energy =               -1088.0764004181726250
    Two-Electron Energy =                 442.4167739445969119
    DFT Exchange-Correlation Energy =       0.0000000000000000
    Empirical Dispersion Energy =           0.0000000000000000
    PCM Polarization Energy =               0.0000000000000000
    EFP Energy =                            0.0000000000000000
    Total Energy =                       -305.3090712284880510
    Molecular point group: c1
  Basis Set: CC-PVTZ
  Basis Set:

  -Total Gradient:
     Atom            X                  Y                   Z
    ------   -----------------  -----------------  -----------------
       1        0.000007878724     0.000006232534    -0.000011519569
       2        0.000027811477    -0.000011590616    -0.000023693354
       3       -0.000000938150    -0.000002245523    -0.000024109634
       4       -0.000018776325     0.000088093048     0.000009464171
       5        0.000008401351    -0.000005999604    -0.000000532199
       6       -0.000008557441    -0.000003460181    -0.000001150564
       7       -0.000094871443    -0.000326997105    -0.000168536528
       8       -0.000036805317     0.000016970511    -0.000002586298
       9        0.000012703562    -0.000004149434     0.000018287598
      10       -0.000087600941    -0.000041443877     0.000020029340
      11        0.000012554551    -0.000004743040     0.000009729730
      12        0.000008250393     0.000016218147    -0.000024364580
      13        0.000136821976     0.000474097102     0.000421143292
      14       -0.000012980030    -0.000014720780     0.000010164086
      15        0.000000713881     0.000010284259    -0.000005244736
      16       -0.000025586963    -0.000189480140    -0.000800913568
      17        0.000019071640    -0.000004471632    -0.000004600817
      18        0.000023861319    -0.000004650583     0.000006213053
      19        0.000028047733     0.000002056916     0.000572220577

  **** Optimization is complete! (in 4 steps) ****
    Final optimized geometry and variables:
    Molecular point group: c1

    Geometry (in Angstrom), charge = 0, multiplicity = 1:

    H            2.568907493889    -0.848830171860    -0.525123694269
    N            1.588863536887    -0.669181606706    -0.542225335589
    C            1.330237121445     0.750337994763    -0.674497587391
    C            0.946021215269    -1.220744743128     0.633383451870
    H            1.803396915923     1.114254057791    -1.578497957522
    H            1.726372763567     1.323749155501     0.165767074159
    C           -0.167452163483     0.983645927252    -0.757418997442
    H            1.141293195689    -2.285350332480     0.677691676422
    H            1.317177663517    -0.772817908749     1.557206376396
    C           -0.551016097388    -0.984064981018     0.547518788079
    H           -0.545320832459     0.540282593866    -1.683283753002
    H           -0.366113091146     2.048224168175    -0.798628273933
    N           -0.835057410864     0.429565432417     0.403127625109
    H           -1.026320515478    -1.344356502335     1.452198343745
    H           -0.954210762479    -1.559888079173    -0.290688694959
    C           -2.250432798955     0.703333712422     0.397064484780
    H           -2.763107752603     0.275110302048    -0.468816231100
    H           -2.708052103867     0.297519601329     1.290735239710
    H           -2.420491080816     1.772982315974     0.395118210329

  Mulliken Charges: (a.u.)
   Center  Symbol    Alpha    Beta     Spin     Total
       1     H     0.43995  0.43995  0.00000  0.12009
       2     N     3.64289  3.64289  0.00000 -0.28579
       3     C     3.04065  3.04065  0.00000 -0.08130
       4     C     3.04081  3.04081  0.00000 -0.08161
       5     H     0.45242  0.45242  0.00000  0.09516
       6     H     0.46534  0.46534  0.00000  0.06932
       7     C     3.03468  3.03468  0.00000 -0.06935
       8     H     0.45244  0.45244  0.00000  0.09512
       9     H     0.46535  0.46535  0.00000  0.06930
      10     C     3.03430  3.03430  0.00000 -0.06859
      11     H     0.46819  0.46819  0.00000  0.06362
      12     H     0.45410  0.45410  0.00000  0.09179
      13     N     3.61439  3.61439  0.00000 -0.22878
      14     H     0.45401  0.45401  0.00000  0.09197
      15     H     0.46856  0.46856  0.00000  0.06288
      16     C     3.09694  3.09694  0.00000 -0.19387
      17     H     0.47016  0.47016  0.00000  0.05968
      18     H     0.45267  0.45267  0.00000  0.09467
      19     H     0.45215  0.45215  0.00000  0.09570

   Total alpha = 28.00000, Total beta = 28.00000, Total charge =  0.00000
