  ==> Input File <==

--------------------------------------------------------------------------
set {
	reference rhf
	basis 6-31G*
}

set_num_threads( 1 )
memory 2 gb

molecule MOL {
0 1

O	 1.846825	 1.296220	 0.000415
C	 1.705091	 0.115954	 0.001797
C	 0.381791	 -0.609817	 0.001258
O	 2.721346	 -0.737485	 -0.000216
C	 -0.823008	 0.326187	 0.001381
H	 0.371250	 -1.265087	 -0.865474
H	 0.370908	 -1.265746	 0.867490
C	 -1.231125	 0.746729	 1.414054
H	 -1.656143	 -0.163314	 -0.493052
H	 -0.593393	 1.204742	 -0.593370
C	 -2.438872	 1.685266	 1.432880
H	 -1.456618	 -0.138816	 2.006472
H	 -0.390764	 1.234826	 1.905416
C	 -2.845423	 2.106082	 2.844575
H	 -3.279995	 1.198141	 0.944656
H	 -2.214847	 2.570753	 0.842234
H	 -3.109191	 1.243764	 3.450419
H	 -3.703492	 2.770743	 2.824697
H	 -2.035343	 2.626922	 3.347375
C	 4.024888	 -0.184556	 -0.001949
H	 4.179030	 0.422472	 -0.882452
H	 4.701782	 -1.024608	 -0.003642
H	 4.181981	 0.421185	 0.878906

	symmetry c1
}
set optking {
	frozen_dihedral = ("
		15 11 8 12,
		9 5 8 12,
		1 2 3 6,
		1 2 4 20
	")
}

ee = energy('scf')
oeprop('DIPOLE', 'QUADRUPOLE', 'MULLIKEN_CHARGES')
f=open( 'psi4out.xyz', 'w' )
f.write( "23  " )
f.write( str(ee) + "\n" )
f.write( MOL.save_string_xyz() )
f.close()
--------------------------------------------------------------------------

    Molecular point group: c1

    Geometry (in Angstrom), charge = 0, multiplicity = 1:

       Center              X                  Y                   Z               Mass
    ------------   -----------------  -----------------  -----------------  -----------------
           O          1.434244198241     0.765241277265    -0.635038895702    15.994914619560
           C          1.292510198241    -0.415024722735    -0.633656895702    12.000000000000
           C         -0.030789801759    -1.140795722735    -0.634195895702    12.000000000000
           O          2.308765198241    -1.268463722735    -0.635669895702    15.994914619560
           C         -1.235588801759    -0.204791722735    -0.634072895702    12.000000000000
           H         -0.041330801759    -1.796065722735    -1.500927895702     1.007825032070
           H         -0.041672801759    -1.796724722735     0.232036104298     1.007825032070
           C         -1.643705801759     0.215750277265     0.778600104298    12.000000000000
           H         -2.068723801759    -0.694292722735    -1.128505895702     1.007825032070
           H         -1.005973801759     0.673763277265    -1.228823895702     1.007825032070
           C         -2.851452801759     1.154287277265     0.797426104298    12.000000000000
           H         -1.869198801759    -0.669794722735     1.371018104298     1.007825032070
           H         -0.803344801759     0.703847277265     1.269962104298     1.007825032070
           C         -3.258003801759     1.575103277265     2.209121104298    12.000000000000
           H         -3.692575801759     0.667162277265     0.309202104298     1.007825032070
           H         -2.627427801759     2.039774277265     0.206780104298     1.007825032070
           H         -3.521771801759     0.712785277265     2.814965104298     1.007825032070
           H         -4.116072801759     2.239764277265     2.189243104298     1.007825032070
           H         -2.447923801759     2.095943277265     2.711921104298     1.007825032070
           C          3.612307198241    -0.715534722735    -0.637402895702    12.000000000000
           H          3.766449198241    -0.108506722735    -1.517905895702     1.007825032070
           H          4.289201198241    -1.555586722735    -0.639095895702     1.007825032070
           H          3.769400198241    -0.109793722735     0.243452104298     1.007825032070

  Charge       = 0
  Multiplicity = 1
  Basis Set: 6-31G*
  Basis Set:

    Orbital Energies (a.u.)
    -----------------------

    Doubly Occupied:

       1A    -20.604466     2A    -20.546548     3A    -11.373055
       4A    -11.281365     5A    -11.234917     6A    -11.217795
       7A    -11.213049     8A    -11.212453     9A    -11.206360
      10A     -1.470216    11A     -1.363912    12A     -1.091252
      13A     -1.041372    14A     -0.986102    15A     -0.929773
      16A     -0.843272    17A     -0.793642    18A     -0.766607
      19A     -0.703521    20A     -0.680900    21A     -0.672347
      22A     -0.638247    23A     -0.613782    24A     -0.599030
      25A     -0.568776    26A     -0.556225    27A     -0.551991
      28A     -0.531797    29A     -0.522676    30A     -0.500078
      31A     -0.489731    32A     -0.466730    33A     -0.464395
      34A     -0.455419    35A     -0.449389    36A     -0.438467

  @DF-RHF Final Energy:  -422.97472739868419

   => Energetics <=

    Nuclear Repulsion Energy =            461.0128216467535367
    One-Electron Energy =               -1489.8157172346423067
    Two-Electron Energy =                 605.8281681892045754
    DFT Exchange-Correlation Energy =       0.0000000000000000
    Empirical Dispersion Energy =           0.0000000000000000
    PCM Polarization Energy =               0.0000000000000000
    EFP Energy =                            0.0000000000000000
    Total Energy =                       -422.9747273986841947

  Mulliken Charges: (a.u.)
   Center  Symbol    Alpha    Beta     Spin     Total
       1     O     4.28619  4.28619  0.00000 -0.57237
       2     C     2.60701  2.60701  0.00000  0.78598
       3     C     3.21012  3.21012  0.00000 -0.42023
       4     O     4.30654  4.30654  0.00000 -0.61309
       5     C     3.15796  3.15796  0.00000 -0.31592
       6     H     0.39767  0.39767  0.00000  0.20465
       7     H     0.39953  0.39953  0.00000  0.20094
       8     C     3.15497  3.15497  0.00000 -0.30995
       9     H     0.41914  0.41914  0.00000  0.16173
      10     H     0.40308  0.40308  0.00000  0.19385
      11     C     3.15236  3.15236  0.00000 -0.30472
      12     H     0.42629  0.42629  0.00000  0.14742
      13     H     0.41414  0.41414  0.00000  0.17173
      14     C     3.23961  3.23961  0.00000 -0.47922
      15     H     0.42439  0.42439  0.00000  0.15122
      16     H     0.41951  0.41951  0.00000  0.16099
      17     H     0.42285  0.42285  0.00000  0.15430
      18     H     0.41947  0.41947  0.00000  0.16105
      19     H     0.42039  0.42039  0.00000  0.15923
      20     C     3.09237  3.09237  0.00000 -0.18475
      21     H     0.40898  0.40898  0.00000  0.18204
      22     H     0.40834  0.40834  0.00000  0.18333
      23     H     0.40910  0.40910  0.00000  0.18180

   Total alpha = 36.00000, Total beta = 36.00000, Total charge =  0.00000
