                              Psi4 1.0.54 Driver

  ==> Input File <==

--------------------------------------------------------------------------
set {
	reference rhf
	basis cc-pvtz
}

set_num_threads( 4 )
memory 2 gb

molecule MOL {
0 1

H	 -2.680771	 -0.791747	 1.439802
C	 -2.673383	 -0.966075	 0.366284
O	 -1.395157	 -0.839096	 -0.160551
H	 -3.011000	 -1.974306	 0.175566
H	 -3.369072	 -0.270587	 -0.099761
C	 -0.830035	 0.420165	 0.002348
C	 0.588348	 0.413198	 -0.509987
H	 -1.401655	 1.164803	 -0.551489
H	 -0.829970	 0.709326	 1.051069
O	 1.401606	 -0.295166	 0.366636
H	 0.608342	 -0.035016	 -1.501015
H	 0.936292	 1.442222	 -0.599519
C	 2.714315	 -0.441627	 -0.061017
H	 2.765292	 -0.641548	 -1.128869
H	 3.305661	 0.447341	 0.150952
H	 3.143725	 -1.278506	 0.470147

	symmetry c1
}
set optking {
	frozen_dihedral = ("
		7 10 13 14
	")
}

ee,wfn = optimize('scf', return_wfn=True)
oeprop( wfn, 'DIPOLE', 'QUADRUPOLE', 'MULLIKEN_CHARGES')
f=open( 'psi4out.xyz', 'w' )
f.write( "16  " )
f.write( str(ee) + "\n" )
f.write( MOL.save_string_xyz() )
f.close()
--------------------------------------------------------------------------

    Molecular point group: c1
  Charge       = 0
  Multiplicity = 1
  Basis Set: CC-PVTZ
  Basis Set:
  @DF-RHF Final Energy:  -307.09691002747667
    Total Energy =                       -307.0969100274767811
    Molecular point group: c1
  Basis Set: CC-PVTZ
  Basis Set:
  Basis Set: CC-PVTZ
  Basis Set:
  @DF-RHF Final Energy:  -307.09695824603176
    Total Energy =                       -307.0969582460317611
  Basis Set: CC-PVTZ
  Basis Set:
  Basis Set: CC-PVTZ
  Basis Set:
  @DF-RHF Final Energy:  -307.09697220208011
    Total Energy =                       -307.0969722020802237
  Basis Set: CC-PVTZ
  Basis Set:
  Charge       = 0
  Multiplicity = 1
  Basis Set: CC-PVTZ
  Basis Set:

    Orbital Energies (a.u.)
    -----------------------

    Doubly Occupied:

       1A    -20.547729     2A    -20.546930     3A    -11.267691
       4A    -11.266927     5A    -11.261561     6A    -11.261535
       7A     -1.391212     8A     -1.373874     9A     -1.032061
      10A     -0.937270    11A     -0.892258    12A     -0.824438
      13A     -0.685989    14A     -0.682293    15A     -0.659652
      16A     -0.638142    17A     -0.631216    18A     -0.598865
      19A     -0.551811    20A     -0.535592    21A     -0.510309
      22A     -0.479797    23A     -0.464633    24A     -0.422666
      25A     -0.412633

  @DF-RHF Final Energy:  -307.09697234908424

   => Energetics <=

    Nuclear Repulsion Energy =            258.8407466049901586
    One-Electron Energy =                -932.1212735033693662
    Two-Electron Energy =                 366.1835545492949677
    DFT Exchange-Correlation Energy =       0.0000000000000000
    Empirical Dispersion Energy =           0.0000000000000000
    PCM Polarization Energy =               0.0000000000000000
    EFP Energy =                            0.0000000000000000
    Total Energy =                       -307.0969723490842398
    Molecular point group: c1
  Basis Set: CC-PVTZ
  Basis Set:

  -Total Gradient:
     Atom            X                  Y                   Z
    ------   -----------------  -----------------  -----------------
       1       -0.000000283978    -0.000000397683    -0.000000096649
       2       -0.000001186919     0.000002539256     0.000003105621
       3        0.000000089808    -0.000009561900     0.000007713282
       4        0.000001510078    -0.000000145563    -0.000000489518
       5        0.000001195264     0.000000024215    -0.000000489576
       6       -0.000017194276     0.000022519721    -0.000031199258
       7       -0.000523097992    -0.001675974180    -0.000949498974
       8       -0.000023512768     0.000007848321     0.000003742445
       9        0.000009087338    -0.000011335137    -0.000014578693
      10        0.000812102716     0.003109828658     0.001218101729
      11       -0.000003431826    -0.000001560100     0.000016214977
      12        0.000005085055    -0.000008973675     0.000000383431
      13       -0.000392567524    -0.003909012021     0.000186819876
      14        0.000134427630     0.002477517898    -0.000433921312
      15       -0.000005613578     0.000002921762    -0.000005906986
      16        0.000003390974    -0.000006239571     0.000000099606

  **** Optimization is complete! (in 4 steps) ****
    Final optimized geometry and variables:
    Molecular point group: c1

    Geometry (in Angstrom), charge = 0, multiplicity = 1:

    H           -2.647567344893    -0.482893004399     1.444152471195
    C           -2.645011496194    -0.656168419072     0.370449650424
    O           -1.367897341303    -0.536477117970    -0.160730488633
    H           -2.989481946025    -1.662104645548     0.179884272643
    H           -3.338061196970     0.044062475216    -0.092450841366
    C           -0.794359504770     0.718977531704     0.001857558498
    C            0.622047037905     0.703847162195    -0.516096474580
    H           -1.363325229188     1.467959045408    -0.548958075245
    H           -0.788821423620     1.006657473968     1.050884758368
    O            1.431826664284    -0.017121549028     0.353468914054
    H            0.635233682737     0.259760713096    -1.508483080181
    H            0.974747534737     1.731848113811    -0.602575424279
    C            2.748401507396    -0.172699728290    -0.063671016675
    H            2.810400359525    -0.364901828111    -1.131585781222
    H            3.335827891622     0.719292129962     0.146437391586
    H            3.177090796048    -1.005806736650     0.473989670624

  Mulliken Charges: (a.u.)
   Center  Symbol    Alpha    Beta     Spin     Total
       1     H     0.47020  0.47020  0.00000  0.05959
       2     C     3.03203  3.03203  0.00000 -0.06407
       3     O     4.17031  4.17031  0.00000 -0.34063
       4     H     0.44637  0.44637  0.00000  0.10726
       5     H     0.47371  0.47371  0.00000  0.05258
       6     C     2.96140  2.96140  0.00000  0.07720
       7     C     2.96029  2.96029  0.00000  0.07942
       8     H     0.47618  0.47618  0.00000  0.04763
       9     H     0.47069  0.47069  0.00000  0.05862
      10     O     4.17155  4.17155  0.00000 -0.34311
      11     H     0.46911  0.46911  0.00000  0.06178
      12     H     0.47740  0.47740  0.00000  0.04520
      13     C     3.03060  3.03060  0.00000 -0.06119
      14     H     0.47365  0.47365  0.00000  0.05271
      15     H     0.46926  0.46926  0.00000  0.06148
      16     H     0.44724  0.44724  0.00000  0.10553

   Total alpha = 25.00000, Total beta = 25.00000, Total charge = -0.00000

*** Psi4 exiting successfully. Buy a developer a beer!
