  ==> Input File <==

--------------------------------------------------------------------------
set {
	reference rhf
	basis cc-pvtz
}

set_num_threads( 4 )
memory 2 gb

molecule MOL {
0 1

H	 -0.623216	 2.150425	 -2.004812
C	 0.113205	 2.110536	 -1.190606
C	 0.062554	 0.862911	 -0.350953
O	 0.871123	 3.003959	 -1.034050
C	 -1.339253	 0.577611	 0.196911
H	 0.789559	 0.953874	 0.445718
H	 0.369579	 0.040906	 -0.993694
C	 -1.813142	 -0.849710	 -0.061612
H	 -2.032833	 1.276441	 -0.256032
H	 -1.357249	 0.782269	 1.263793
H	 -1.839268	 -1.063526	 -1.124230
H	 -2.810118	 -1.001930	 0.334000
H	 -1.159274	 -1.579980	 0.402282

	symmetry c1
}
set optking {
	frozen_dihedral = ("
		6 3 5 9
	")
}

ee = optimize('scf')
oeprop('DIPOLE', 'QUADRUPOLE', 'MULLIKEN_CHARGES')
f=open( 'psi4out.xyz', 'w' )
f.write( "13  " )
f.write( str(ee) + "\n" )
f.write( MOL.save_string_xyz() )
f.close()
--------------------------------------------------------------------------

    Molecular point group: c1
  Charge       = 0
  Multiplicity = 1
  Basis Set: CC-PVTZ
  Basis Set:
  @DF-RHF Final Energy:  -231.06650871905157
    Total Energy =                       -231.0665087190515976
    Molecular point group: c1
  Basis Set: CC-PVTZ
  Basis Set:
  Basis Set: CC-PVTZ
  Basis Set:
  @DF-RHF Final Energy:  -231.06664809299829
    Total Energy =                       -231.0666480929982640
  Basis Set: CC-PVTZ
  Basis Set:
  Basis Set: CC-PVTZ
  Basis Set:
  @DF-RHF Final Energy:  -231.06674333941515
    Total Energy =                       -231.0667433394151544
  Basis Set: CC-PVTZ
  Basis Set:
  Basis Set: CC-PVTZ
  Basis Set:
  @DF-RHF Final Energy:  -231.06685482137684
    Total Energy =                       -231.0668548213770350
  Basis Set: CC-PVTZ
  Basis Set:
  Basis Set: CC-PVTZ
  Basis Set:
  @DF-RHF Final Energy:  -231.06688051003644
    Total Energy =                       -231.0668805100365830
  Basis Set: CC-PVTZ
  Basis Set:
  Basis Set: CC-PVTZ
  Basis Set:
  @DF-RHF Final Energy:  -231.06688177082955
    Total Energy =                       -231.0668817708295535
  Basis Set: CC-PVTZ
  Basis Set:
  Charge       = 0
  Multiplicity = 1
  Basis Set: CC-PVTZ
  Basis Set:

    Orbital Energies (a.u.)
    -----------------------

    Doubly Occupied:

       1A    -20.552305     2A    -11.321975     3A    -11.237420
       4A    -11.234742     5A    -11.223091     6A     -1.407555
       7A     -1.086197     8A     -0.977900     9A     -0.843585
      10A     -0.794443    11A     -0.677850    12A     -0.648726
      13A     -0.619762    14A     -0.590879    15A     -0.576536
      16A     -0.528845    17A     -0.512895    18A     -0.490279
      19A     -0.485947    20A     -0.413173

  @DF-RHF Final Energy:  -231.06688222797999

   => Energetics <=

    Nuclear Repulsion Energy =            170.7350513765165374
    One-Electron Energy =                -651.1556570436534912
    Two-Electron Energy =                 249.3537234391571360
    DFT Exchange-Correlation Energy =       0.0000000000000000
    Empirical Dispersion Energy =           0.0000000000000000
    PCM Polarization Energy =               0.0000000000000000
    EFP Energy =                            0.0000000000000000
    Total Energy =                       -231.0668822279798178
    Molecular point group: c1
  Basis Set: CC-PVTZ
  Basis Set:

  -Total Gradient:
     Atom            X                  Y                   Z
    ------   -----------------  -----------------  -----------------
       1       -0.000011214164     0.000005252063     0.000019742629
       2        0.000050284791     0.000003993389    -0.000053070221
       3        0.000602911581    -0.002874190286     0.000356677542
       4        0.000001394102    -0.000010328433     0.000002420881
       5       -0.000609977408    -0.001427058519    -0.002415965614
       6       -0.000449084007     0.002621219176     0.000113973768
       7        0.000021428233     0.000009804442    -0.000001822845
       8       -0.000004178434     0.000006483867     0.000021918026
       9        0.000403112401     0.001694316423     0.001943848430
      10       -0.000002790479    -0.000023055062     0.000007973148
      11        0.000004333781     0.000013317283     0.000009056377
      12       -0.000001633209    -0.000008857693    -0.000002897344
      13       -0.000004587185    -0.000010896646    -0.000001854778

  **** Optimization is complete! (in 7 steps) ****
    Final optimized geometry and variables:
    Molecular point group: c1

    Geometry (in Angstrom), charge = 0, multiplicity = 1:

    H           -0.181386731930     1.048078611128    -1.511663730252
    C            0.549114890670     0.983747981143    -0.694023491143
    C            0.487772007743    -0.284501840285     0.114844451038
    O            1.305780212389     1.871511112541    -0.504615921627
    C           -0.930928657959    -0.563502993888     0.654016951450
    H            1.211893519066    -0.193019372987     0.912069176000
    H            0.804081760052    -1.090170542242    -0.542526263160
    C           -1.400416253735    -1.997196724625     0.436504482363
    H           -1.640256740155     0.126353479511     0.206035018043
    H           -0.947220873686    -0.336694245328     1.713422868102
    H           -1.448951464772    -2.236792363484    -0.620289854021
    H           -2.386081660376    -2.152959591011     0.858532410510
    H           -0.722867557791    -2.703026601974     0.904574961170

  Mulliken Charges: (a.u.)
   Center  Symbol    Alpha    Beta     Spin     Total
       1     H     0.46701  0.46701  0.00000  0.06598
       2     C     2.90303  2.90303  0.00000  0.19394
       3     C     3.08387  3.08387  0.00000 -0.16775
       4     O     4.16393  4.16393  0.00000 -0.32785
       5     C     3.09627  3.09627  0.00000 -0.19253
       6     H     0.44022  0.44022  0.00000  0.11956
       7     H     0.44974  0.44974  0.00000  0.10053
       8     C     3.14644  3.14644  0.00000 -0.29288
       9     H     0.45229  0.45229  0.00000  0.09542
      10     H     0.44408  0.44408  0.00000  0.11185
      11     H     0.45497  0.45497  0.00000  0.09006
      12     H     0.44675  0.44675  0.00000  0.10650
      13     H     0.45141  0.45141  0.00000  0.09718

   Total alpha = 20.00000, Total beta = 20.00000, Total charge = -0.00000
