                              Psi4 1.0.54 Driver

  ==> Input File <==

--------------------------------------------------------------------------
set {
	reference rhf
	basis cc-pvtz
}

set_num_threads( 4 )
memory 2 gb

molecule MOL {
0 1

H	 3.294979	 -0.422341	 -0.030618
C	 2.236783	 -0.243085	 -0.023353
C	 1.434462	 -0.891881	 0.903295
C	 1.682527	 0.631637	 -0.936139
H	 1.872575	 -1.570239	 1.609469
C	 0.076505	 -0.664741	 0.916017
H	 2.305564	 1.131984	 -1.651648
C	 0.318561	 0.858729	 -0.922126
H	 -0.560013	 -1.156548	 1.624273
C	 -0.486398	 0.214248	 0.000000
H	 -0.119458	 1.538226	 -1.629656
C	 -1.946525	 0.470130	 0.000000
O	 -2.779618	 -0.371226	 0.000000
H	 -2.227127	 1.528393	 0.000000

	symmetry c1
}
set optking {
	frozen_dihedral = ("
		8 10 12 14
	")
}

ee,wfn = optimize('scf', return_wfn=True)
oeprop( wfn, 'DIPOLE', 'QUADRUPOLE', 'MULLIKEN_CHARGES')
f=open( 'psi4out.xyz', 'w' )
f.write( "14  " )
f.write( str(ee) + "\n" )
f.write( MOL.save_string_xyz() )
f.close()
--------------------------------------------------------------------------

    Molecular point group: c1
  Charge       = 0
  Multiplicity = 1
  Basis Set: CC-PVTZ
  Basis Set:
  @DF-RHF Final Energy:  -343.54250746057329
    Total Energy =                       -343.5425074605735176
    Molecular point group: c1
  Basis Set: CC-PVTZ
  Basis Set:
  Basis Set: CC-PVTZ
  Basis Set:
  @DF-RHF Final Energy:  -343.54024475649851
    Total Energy =                       -343.5402447564986232
  Basis Set: CC-PVTZ
  Basis Set:
  Basis Set: CC-PVTZ
  Basis Set:
  @DF-RHF Final Energy:  -343.54273120966923
    Total Energy =                       -343.5427312096693981
  Basis Set: CC-PVTZ
  Basis Set:
  Basis Set: CC-PVTZ
  Basis Set:
  @DF-RHF Final Energy:  -343.54330367261423
    Total Energy =                       -343.5433036726141154
  Basis Set: CC-PVTZ
  Basis Set:
  Basis Set: CC-PVTZ
  Basis Set:
  @DF-RHF Final Energy:  -343.54331621600073
    Total Energy =                       -343.5433162160009033
  Basis Set: CC-PVTZ
  Basis Set:
  Charge       = 0
  Multiplicity = 1
  Basis Set: CC-PVTZ
  Basis Set:

    Orbital Energies (a.u.)
    -----------------------

    Doubly Occupied:

       1A    -20.558300     2A    -11.329773     3A    -11.249763
       4A    -11.247933     5A    -11.245758     6A    -11.245261
       7A    -11.242864     8A    -11.241454     9A     -1.413361
      10A     -1.175628    11A     -1.050047    12A     -1.034525
      13A     -0.891294    14A     -0.846416    15A     -0.796471
      16A     -0.725544    17A     -0.681207    18A     -0.657181
      19A     -0.634940    20A     -0.621528    21A     -0.605220
      22A     -0.549586    23A     -0.530592    24A     -0.512653
      25A     -0.507601    26A     -0.426394    27A     -0.353433
      28A     -0.351749

  @DF-RHF Final Energy:  -343.54331827161911

   => Energetics <=

    Nuclear Repulsion Energy =            323.8275554081019436
    One-Electron Energy =               -1107.2887991902080103
    Two-Electron Energy =                 439.9179255104869526
    DFT Exchange-Correlation Energy =       0.0000000000000000
    Empirical Dispersion Energy =           0.0000000000000000
    PCM Polarization Energy =               0.0000000000000000
    EFP Energy =                            0.0000000000000000
    Total Energy =                       -343.5433182716191141
    Molecular point group: c1
  Basis Set: CC-PVTZ
  Basis Set:

  -Total Gradient:
     Atom            X                  Y                   Z
    ------   -----------------  -----------------  -----------------
       1       -0.000004107598    -0.000018285624    -0.000000864932
       2        0.000010724178     0.000076804388    -0.000052563683
       3       -0.000086033983     0.000016956948     0.000077849272
       4        0.000066935681    -0.000058261396     0.000011321429
       5        0.000009873064    -0.000006841995    -0.000005401258
       6        0.000088405006    -0.000115600303    -0.000008144905
       7       -0.000005877595     0.000009867507     0.000002069093
       8       -0.000649345025    -0.004591689212    -0.003544979780
       9        0.000000781131     0.000027215803     0.000005962605
      10        0.000740093718     0.006851313814     0.007415770941
      11        0.000000918521     0.000004707529     0.000005954208
      12       -0.000074115818    -0.002475862463    -0.011003642767
      13        0.000013998668    -0.000033959462     0.000002965728
      14       -0.000112249954     0.000313634462     0.007093704049

  **** Optimization is complete! (in 6 steps) ****
    Final optimized geometry and variables:
    Molecular point group: c1

    Geometry (in Angstrom), charge = 0, multiplicity = 1:

    H            3.287323219377    -0.448476435516    -0.045669845641
    C            2.232178868263    -0.253014985810    -0.031546834464
    C            1.425179068412    -0.888181809695     0.896605439844
    C            1.682272835840     0.627501674458    -0.943016540849
    H            1.854164109451    -1.575852218920     1.599588309909
    C            0.066464948385    -0.649790780332     0.907994161962
    H            2.305501792302     1.109444362847    -1.671174673368
    C            0.325168704721     0.887040822164    -0.914097818161
    H           -0.572201651004    -1.159434663371     1.602390460497
    C           -0.483280959696     0.258213347943     0.016589131456
    H           -0.102901983136     1.578828241824    -1.616207680664
    C           -1.957861884754     0.469220655130    -0.019887705678
    O           -2.751017412590    -0.402454103023     0.078097465102
    H           -2.286156800571     1.512881527258    -0.068207486814

  Mulliken Charges: (a.u.)
   Center  Symbol    Alpha    Beta     Spin     Total
       1     H     0.42024  0.42024  0.00000  0.15951
       2     C     3.07643  3.07643  0.00000 -0.15285
       3     C     3.06636  3.06636  0.00000 -0.13271
       4     C     3.06989  3.06989  0.00000 -0.13978
       5     H     0.42047  0.42047  0.00000  0.15905
       6     C     3.08798  3.08798  0.00000 -0.17596
       7     H     0.42076  0.42076  0.00000  0.15847
       8     C     3.09225  3.09225  0.00000 -0.18449
       9     H     0.41418  0.41418  0.00000  0.17163
      10     C     2.96217  2.96217  0.00000  0.07566
      11     H     0.42376  0.42376  0.00000  0.15248
      12     C     2.92641  2.92641  0.00000  0.14719
      13     O     4.16338  4.16338  0.00000 -0.32677
      14     H     0.45572  0.45572  0.00000  0.08857

   Total alpha = 28.00000, Total beta = 28.00000, Total charge = -0.00000

*** Psi4 exiting successfully. Buy a developer a beer!
