  ==> Input File <==

--------------------------------------------------------------------------
set {
	reference rhf
	basis 6-31G*
}

set_num_threads( 4 )
memory 2 gb

molecule MOL {
0 1

H	 2.529980	 -0.747090	 0.382380
O	 2.064459	 -0.086912	 -0.111827
C	 0.745630	 0.005118	 0.354752
H	 0.739005	 0.037656	 1.444976
C	 -0.064159	 -1.194875	 -0.122754
C	 -0.046302	 1.193543	 -0.190431
H	 0.197384	 -1.376065	 -1.160690
H	 0.162855	 -2.097978	 0.431858
C	 -1.535782	 -0.752177	 0.006642
H	 0.154512	 1.271315	 -1.255561
H	 0.226209	 2.140461	 0.267302
C	 -1.509193	 0.801505	 0.065617
H	 -2.127797	 -1.112194	 -0.826847
H	 -1.986849	 -1.158408	 0.905561
H	 -2.183670	 1.254107	 -0.651985
H	 -1.821727	 1.144320	 1.047089

	symmetry c1
}
set optking {
	frozen_dihedral = ("
		1 2 3 6
	")
}

ee = optimize('scf')
oeprop('DIPOLE', 'QUADRUPOLE', 'MULLIKEN_CHARGES')
f=open( 'psi4out.xyz', 'w' )
f.write( "16  " )
f.write( str(ee) + "\n" )
f.write( MOL.save_string_xyz() )
f.close()
--------------------------------------------------------------------------

    Molecular point group: c1
  Charge       = 0
  Multiplicity = 1
  Basis Set: 6-31G*
  Basis Set:
  @DF-RHF Final Energy:  -270.01262308961952
    Total Energy =                       -270.0126230896196375
    Molecular point group: c1
  Basis Set: 6-31G*
  Basis Set:
  Basis Set: 6-31G*
  Basis Set:
  @DF-RHF Final Energy:  -270.01422310611724
    Total Energy =                       -270.0142231061173561
  Basis Set: 6-31G*
  Basis Set:
  Basis Set: 6-31G*
  Basis Set:
  @DF-RHF Final Energy:  -270.01437605430715
    Total Energy =                       -270.0143760543070925
  Basis Set: 6-31G*
  Basis Set:
  Basis Set: 6-31G*
  Basis Set:
  @DF-RHF Final Energy:  -270.01438263501632
    Total Energy =                       -270.0143826350164318
  Basis Set: 6-31G*
  Basis Set:
  Basis Set: 6-31G*
  Basis Set:
  @DF-RHF Final Energy:  -270.01438498898870
    Total Energy =                       -270.0143849889886951
  Basis Set: 6-31G*
  Basis Set:
  Charge       = 0
  Multiplicity = 1
  Basis Set: 6-31G*
  Basis Set:

    Orbital Energies (a.u.)
    -----------------------

    Doubly Occupied:

       1A    -20.552244     2A    -11.268617     3A    -11.216195
       4A    -11.214808     5A    -11.210462     6A    -11.208020
       7A     -1.361108     8A     -1.112573     9A     -0.965035
      10A     -0.947793    11A     -0.784737    12A     -0.778451
      13A     -0.704071    14A     -0.655371    15A     -0.620294
      16A     -0.583745    17A     -0.563151    18A     -0.522800
      19A     -0.508713    20A     -0.480847    21A     -0.469923
      22A     -0.455737    23A     -0.450156    24A     -0.416497

  @DF-RHF Final Energy:  -270.01438566962054

   => Energetics <=

    Nuclear Repulsion Energy =            255.0843052891055720
    One-Electron Energy =                -872.0946848722127243
    Two-Electron Energy =                 346.9959939134864726
    DFT Exchange-Correlation Energy =       0.0000000000000000
    Empirical Dispersion Energy =           0.0000000000000000
    PCM Polarization Energy =               0.0000000000000000
    EFP Energy =                            0.0000000000000000
    Total Energy =                       -270.0143856696206512
    Molecular point group: c1
  Basis Set: 6-31G*
  Basis Set:

  -Total Gradient:
     Atom            X                  Y                   Z
    ------   -----------------  -----------------  -----------------
       1        0.000171164732     0.000525077358     0.000524495787
       2       -0.000185834021    -0.000555933642    -0.000496430974
       3       -0.000107559118    -0.000247304417    -0.000429250608
       4        0.000005854340    -0.000022769782     0.000005406447
       5        0.000106986570     0.000011964831     0.000005013560
       6        0.000033524169     0.000278170759     0.000377725265
       7       -0.000011504914    -0.000025371624     0.000016213530
       8       -0.000008621322     0.000021092879     0.000025502214
       9       -0.000052026315     0.000015901232     0.000014684190
      10        0.000007881636    -0.000021554153    -0.000005182828
      11        0.000000778343     0.000005892675    -0.000009580089
      12        0.000043762529     0.000022803107    -0.000009642744
      13        0.000015273833     0.000018368239    -0.000030579205
      14       -0.000027154564    -0.000023990153    -0.000023941934
      15       -0.000017454777     0.000007414945     0.000026175566
      16        0.000024928871    -0.000009762253     0.000009391826

  **** Optimization is complete! (in 6 steps) ****
    Final optimized geometry and variables:
    Molecular point group: c1

    Geometry (in Angstrom), charge = 0, multiplicity = 1:

    H            2.575492230407    -0.644826445413     0.347469945652
    O            2.066265596969     0.008015039258    -0.111583325355
    C            0.744246305559    -0.010995910315     0.355876745889
    H            0.735933756357     0.021985425328     1.445927237387
    C           -0.082214182130    -1.204901151010    -0.127171662525
    C           -0.028040249334     1.184802792597    -0.184507315817
    H            0.173239948754    -1.383300782712    -1.167429522233
    H            0.125887840448    -2.118939216068     0.421395869226
    C           -1.547712068429    -0.743779674150     0.007725761140
    H            0.186906438151     1.269586792073    -1.246026566932
    H            0.261315449979     2.118121192526     0.284770619099
    C           -1.498753406328     0.810258953794     0.052522782868
    H           -2.149950231785    -1.104846124439    -0.817985226886
    H           -1.997224774537    -1.136030895403     0.913733131214
    H           -2.156687932550     1.263411978160    -0.679926967132
    H           -1.823137334094     1.166310323609     1.025355489674

  Mulliken Charges: (a.u.)
   Center  Symbol    Alpha    Beta     Spin     Total
       1     H     0.28176  0.28176  0.00000  0.43647
       2     O     4.37602  4.37602  0.00000 -0.75203
       3     C     2.90854  2.90854  0.00000  0.18293
       4     H     0.43124  0.43124  0.00000  0.13753
       5     C     3.17585  3.17585  0.00000 -0.35169
       6     C     3.16503  3.16503  0.00000 -0.33005
       7     H     0.41248  0.41248  0.00000  0.17504
       8     H     0.42072  0.42072  0.00000  0.15857
       9     C     3.16806  3.16806  0.00000 -0.33613
      10     H     0.41269  0.41269  0.00000  0.17462
      11     H     0.41329  0.41329  0.00000  0.17342
      12     C     3.17015  3.17015  0.00000 -0.34030
      13     H     0.41436  0.41436  0.00000  0.17128
      14     H     0.41757  0.41757  0.00000  0.16486
      15     H     0.41417  0.41417  0.00000  0.17167
      16     H     0.41809  0.41809  0.00000  0.16382

   Total alpha = 24.00000, Total beta = 24.00000, Total charge =  0.00000
