  ==> Input File <==

--------------------------------------------------------------------------
set {
	reference rhf
	basis 6-31G*
}

set_num_threads( 1 )
memory 2 gb

molecule MOL {
0 1

H	 -3.443322	 -0.969594	 -0.226337
O	 -3.517110	 -0.026191	 -0.205115
C	 -2.306886	 0.532354	 0.237577
C	 -1.177863	 -0.397191	 -0.171080
H	 -2.156308	 1.517575	 -0.201710
H	 -2.315015	 0.655684	 1.319734
C	 0.198102	 0.111031	 0.262842
H	 -1.208843	 -0.518759	 -1.250427
H	 -1.368741	 -1.376554	 0.258909
C	 1.331804	 -0.827780	 -0.158768
H	 0.361943	 1.100838	 -0.156218
H	 0.217265	 0.229072	 1.345532
C	 2.723619	 -0.410569	 0.329459
H	 1.342964	 -0.912588	 -1.244120
H	 1.116806	 -1.824343	 0.220779
C	 3.243875	 0.895854	 -0.272975
H	 3.424222	 -1.207124	 0.091250
H	 2.714788	 -0.329854	 1.414619
H	 3.251977	 0.848779	 -1.358681
H	 2.637085	 1.747371	 0.016682
H	 4.259473	 1.094070	 0.055697

	symmetry c1
}
set optking {
	frozen_dihedral = ("
		2 3 4 8,
		8 4 7 10,
		4 7 10 14,
		16 13 10 14
	")
}

ee = energy('scf')
oeprop('DIPOLE', 'QUADRUPOLE', 'MULLIKEN_CHARGES')
f=open( 'psi4out.xyz', 'w' )
f.write( "21  " )
f.write( str(ee) + "\n" )
f.write( MOL.save_string_xyz() )
f.close()
--------------------------------------------------------------------------

    Molecular point group: c1

    Geometry (in Angstrom), charge = 0, multiplicity = 1:

       Center              X                  Y                   Z               Mass
    ------------   -----------------  -----------------  -----------------  -----------------
           H         -3.451150849363    -0.954711842082    -0.223710354535     1.007825032070
           O         -3.524938849363    -0.011308842082    -0.202488354535    15.994914619560
           C         -2.314714849363     0.547236157918     0.240203645465    12.000000000000
           C         -1.185691849363    -0.382308842082    -0.168453354535    12.000000000000
           H         -2.164136849363     1.532457157918    -0.199083354535     1.007825032070
           H         -2.322843849363     0.670566157918     1.322360645465     1.007825032070
           C          0.190273150637     0.125913157918     0.265468645465    12.000000000000
           H         -1.216671849363    -0.503876842082    -1.247800354535     1.007825032070
           H         -1.376569849363    -1.361671842082     0.261535645465     1.007825032070
           C          1.323975150637    -0.812897842082    -0.156141354535    12.000000000000
           H          0.354114150637     1.115720157918    -0.153591354535     1.007825032070
           H          0.209436150637     0.243954157918     1.348158645465     1.007825032070
           C          2.715790150637    -0.395686842082     0.332085645465    12.000000000000
           H          1.335135150637    -0.897705842082    -1.241493354535     1.007825032070
           H          1.108977150637    -1.809460842082     0.223405645465     1.007825032070
           C          3.236046150637     0.910736157918    -0.270348354535    12.000000000000
           H          3.416393150637    -1.192241842082     0.093876645465     1.007825032070
           H          2.706959150637    -0.314971842082     1.417245645465     1.007825032070
           H          3.244148150637     0.863661157918    -1.356054354535     1.007825032070
           H          2.629256150637     1.762253157918     0.019308645465     1.007825032070
           H          4.251644150637     1.108952157918     0.058323645465     1.007825032070

  Charge       = 0
  Multiplicity = 1
  Basis Set: 6-31G*
  Basis Set:

    Orbital Energies (a.u.)
    -----------------------

    Doubly Occupied:

       1A    -20.548841     2A    -11.267446     3A    -11.221654
       4A    -11.220864     5A    -11.219041     6A    -11.218454
       7A    -11.211105     8A     -1.358407     9A     -1.091536
      10A     -1.037063    11A     -0.956559    12A     -0.880537
      13A     -0.826022    14A     -0.783350    15A     -0.677948
      16A     -0.655734    17A     -0.624884    18A     -0.616994
      19A     -0.595522    20A     -0.577066    21A     -0.542421
      22A     -0.534673    23A     -0.507312    24A     -0.493830
      25A     -0.489313    26A     -0.466036    27A     -0.461016
      28A     -0.447526    29A     -0.425837

  @DF-RHF Final Energy:  -310.20951455745285

   => Energetics <=

    Nuclear Repulsion Energy =            313.3207090208599084
    One-Electron Energy =               -1041.1468560741252531
    Two-Electron Energy =                 417.6166324958114728
    DFT Exchange-Correlation Energy =       0.0000000000000000
    Empirical Dispersion Energy =           0.0000000000000000
    PCM Polarization Energy =               0.0000000000000000
    EFP Energy =                            0.0000000000000000
    Total Energy =                       -310.2095145574538719

  Mulliken Charges: (a.u.)
   Center  Symbol    Alpha    Beta     Spin     Total
       1     H     0.28014  0.28014  0.00000  0.43971
       2     O     4.37573  4.37573  0.00000 -0.75147
       3     C     2.97454  2.97454  0.00000  0.05093
       4     C     3.18242  3.18242  0.00000 -0.36484
       5     H     0.41983  0.41983  0.00000  0.16033
       6     H     0.42995  0.42995  0.00000  0.14009
       7     C     3.16073  3.16073  0.00000 -0.32146
       8     H     0.41406  0.41406  0.00000  0.17189
       9     H     0.42681  0.42681  0.00000  0.14639
      10     C     3.15218  3.15218  0.00000 -0.30436
      11     H     0.41868  0.41868  0.00000  0.16263
      12     H     0.42199  0.42199  0.00000  0.15602
      13     C     3.15275  3.15275  0.00000 -0.30549
      14     H     0.42297  0.42297  0.00000  0.15407
      15     H     0.42215  0.42215  0.00000  0.15570
      16     C     3.24154  3.24154  0.00000 -0.48308
      17     H     0.42024  0.42024  0.00000  0.15953
      18     H     0.42299  0.42299  0.00000  0.15401
      19     H     0.42172  0.42172  0.00000  0.15655
      20     H     0.42014  0.42014  0.00000  0.15971
      21     H     0.41843  0.41843  0.00000  0.16314

   Total alpha = 29.00000, Total beta = 29.00000, Total charge =  0.00000
