  ==> Input File <==

--------------------------------------------------------------------------
set {
	reference rhf
	basis cc-pvtz
}

set_num_threads( 4 )
memory 2 gb

molecule MOL {
0 1

O	 0.675956	 -1.103837	 -2.169361
C	 0.068133	 -1.144334	 -1.155068
C	 -1.329373	 -1.674698	 -1.008963
O	 0.550743	 -0.719877	 0.000412
H	 -1.335163	 -2.491680	 -0.299096
H	 -1.689832	 -2.011873	 -1.967042
H	 -1.973807	 -0.896874	 -0.620207
C	 1.863204	 -0.194033	 0.000410
H	 2.031502	 0.409177	 -0.879273
H	 2.524488	 -1.045142	 0.000793
H	 2.031291	 0.409823	 0.879686

	symmetry c1
}
set optking {
	frozen_dihedral = ("
		2 4 8 9
	")
}

ee = optimize('scf')
oeprop('DIPOLE', 'QUADRUPOLE', 'MULLIKEN_CHARGES')
f=open( 'psi4out.xyz', 'w' )
f.write( "11  " )
f.write( str(ee) + "\n" )
f.write( MOL.save_string_xyz() )
f.close()
--------------------------------------------------------------------------

    Molecular point group: c1
  Charge       = 0
  Multiplicity = 1
  Basis Set: CC-PVTZ
  Basis Set:
  @DF-RHF Final Energy:  -266.93730072636663
    Total Energy =                       -266.9373007263666295
    Molecular point group: c1
  Basis Set: CC-PVTZ
  Basis Set:
  Basis Set: CC-PVTZ
  Basis Set:
  @DF-RHF Final Energy:  -266.93837915062522
    Total Energy =                       -266.9383791506252805
  Basis Set: CC-PVTZ
  Basis Set:
  Basis Set: CC-PVTZ
  Basis Set:
  @DF-RHF Final Energy:  -266.93791940929157
    Total Energy =                       -266.9379194092914531
  Basis Set: CC-PVTZ
  Basis Set:
  Basis Set: CC-PVTZ
  Basis Set:
  @DF-RHF Final Energy:  -266.93865491169618
    Total Energy =                       -266.9386549116961760
  Basis Set: CC-PVTZ
  Basis Set:
  Basis Set: CC-PVTZ
  Basis Set:
  @DF-RHF Final Energy:  -266.93865998140086
    Total Energy =                       -266.9386599814009742
  Basis Set: CC-PVTZ
  Basis Set:
  Charge       = 0
  Multiplicity = 1
  Basis Set: CC-PVTZ
  Basis Set:

    Orbital Energies (a.u.)
    -----------------------

    Doubly Occupied:

       1A    -20.598519     2A    -20.535112     3A    -11.369204
       4A    -11.279630     5A    -11.233067     6A     -1.473602
       7A     -1.367846     8A     -1.037021     9A     -0.953856
      10A     -0.780071    11A     -0.698628    12A     -0.683703
      13A     -0.681157    14A     -0.596510    15A     -0.593240
      16A     -0.561996    17A     -0.528103    18A     -0.524018
      19A     -0.461398    20A     -0.445840

  @DF-RHF Final Energy:  -266.93866020806399

   => Energetics <=

    Nuclear Repulsion Energy =            183.5805711013813095
    One-Electron Energy =                -728.2334260267264199
    Two-Electron Energy =                 277.7141947172808614
    DFT Exchange-Correlation Energy =       0.0000000000000000
    Empirical Dispersion Energy =           0.0000000000000000
    PCM Polarization Energy =               0.0000000000000000
    EFP Energy =                            0.0000000000000000
    Total Energy =                       -266.9386602080642206
    Molecular point group: c1
  Basis Set: CC-PVTZ
  Basis Set:

  -Total Gradient:
     Atom            X                  Y                   Z
    ------   -----------------  -----------------  -----------------
       1       -0.000016814295    -0.000006996649     0.000004090596
       2       -0.000480987776     0.001160373927    -0.000242857495
       3       -0.000002260977     0.000012887220    -0.000002893492
       4        0.000804227443    -0.002011977700     0.000109314466
       5        0.000006049207    -0.000003337082    -0.000003130126
       6       -0.000000956712    -0.000003423954    -0.000001710045
       7        0.000004360219    -0.000002631704     0.000002292182
       8       -0.000838972438     0.002053471949     0.000883664747
       9        0.000495851669    -0.001206809574    -0.000748025439
      10        0.000004915874     0.000009063399    -0.000003152246
      11        0.000024587786    -0.000000619833     0.000002406851

  **** Optimization is complete! (in 6 steps) ****
    Final optimized geometry and variables:
    Molecular point group: c1

    Geometry (in Angstrom), charge = 0, multiplicity = 1:

    O            0.283346297575    -0.160830149147    -1.317495489889
    C           -0.316741200454    -0.187493823018    -0.298250794910
    C           -1.720814051237    -0.697147039548    -0.140813575402
    O            0.177364998624     0.231678821279     0.854636023180
    H           -1.732910987011    -1.511287379792     0.572241588576
    H           -2.092287276868    -1.033187897191    -1.095084873171
    H           -2.351549664506     0.091059154572     0.249381239518
    C            1.485553944166     0.769141793130     0.859164512420
    H            1.651344675133     1.384036859307    -0.010537279414
    H            2.214234054214    -0.029810230526     0.864855427414
    H            1.571931600289     1.349997286191     1.762999100513

  Mulliken Charges: (a.u.)
   Center  Symbol    Alpha    Beta     Spin     Total
       1     O     4.19701  4.19701  0.00000 -0.39403
       2     C     2.80065  2.80065  0.00000  0.39870
       3     C     3.13859  3.13859  0.00000 -0.27717
       4     O     4.14832  4.14832  0.00000 -0.29663
       5     H     0.44520  0.44520  0.00000  0.10960
       6     H     0.43789  0.43789  0.00000  0.12422
       7     H     0.44571  0.44571  0.00000  0.10857
       8     C     3.03383  3.03383  0.00000 -0.06766
       9     H     0.44975  0.44975  0.00000  0.10050
      10     H     0.45656  0.45656  0.00000  0.08688
      11     H     0.44649  0.44649  0.00000  0.10702

   Total alpha = 20.00000, Total beta = 20.00000, Total charge =  0.00000
