                              Psi4 1.0.54 Driver

  ==> Input File <==

--------------------------------------------------------------------------
set {
	reference rhf
	basis cc-pvtz
}

set_num_threads( 4 )
memory 2 gb

molecule MOL {
0 1

H	 -0.939693	 0.000281	 1.681345
O	 -0.046262	 -0.000157	 1.387678
C	 -0.000837	 0.000006	 -0.025491
C	 -0.475711	 1.352854	 -0.552223
C	 1.424163	 -0.292414	 -0.491336
C	 -0.948127	 -1.109939	 -0.460063
H	 -0.486176	 1.370979	 -1.635900
H	 0.180298	 2.149335	 -0.214078
H	 -1.475359	 1.564932	 -0.194187
H	 1.483227	 -0.334576	 -1.572780
H	 2.106326	 0.481449	 -0.152422
H	 1.763046	 -1.239435	 -0.090369
H	 -0.981585	 -1.188608	 -1.540331
H	 -1.948721	 -0.912010	 -0.096957
H	 -0.623382	 -2.059785	 -0.054418

	symmetry c1
}
set optking {
	frozen_dihedral = ("
		4 3 2 1
	")
}

ee,wfn = optimize('scf', return_wfn=True)
oeprop( wfn, 'DIPOLE', 'QUADRUPOLE', 'MULLIKEN_CHARGES')
f=open( 'psi4out.xyz', 'w' )
f.write( "15  " )
f.write( str(ee) + "\n" )
f.write( MOL.save_string_xyz() )
f.close()
--------------------------------------------------------------------------

    Molecular point group: c1
  Charge       = 0
  Multiplicity = 1
  Basis Set: CC-PVTZ
  Basis Set:
  @DF-RHF Final Energy:  -232.24454980566145
    Total Energy =                       -232.2445498056614497
    Molecular point group: c1
  Basis Set: CC-PVTZ
  Basis Set:
  Basis Set: CC-PVTZ
  Basis Set:
  @DF-RHF Final Energy:  -232.24624026053760
    Total Energy =                       -232.2462402605376042
  Basis Set: CC-PVTZ
  Basis Set:
  Basis Set: CC-PVTZ
  Basis Set:
  @DF-RHF Final Energy:  -232.24668299926387
    Total Energy =                       -232.2466829992637258
  Basis Set: CC-PVTZ
  Basis Set:
  Charge       = 0
  Multiplicity = 1
  Basis Set: CC-PVTZ
  Basis Set:

    Orbital Energies (a.u.)
    -----------------------

    Doubly Occupied:

       1A    -20.542119     2A    -11.280773     3A    -11.210929
       4A    -11.207876     5A    -11.203791     6A     -1.364774
       7A     -1.065313     8A     -0.942835     9A     -0.939669
      10A     -0.778440    11A     -0.672602    12A     -0.624227
      13A     -0.622847    14A     -0.576068    15A     -0.557574
      16A     -0.532719    17A     -0.517003    18A     -0.511213
      19A     -0.504597    20A     -0.458703    21A     -0.428789

  @DF-RHF Final Energy:  -232.24668336164271

   => Energetics <=

    Nuclear Repulsion Energy =            200.6744269730824897
    One-Electron Energy =                -712.7564985149967924
    Two-Electron Energy =                 279.8353881802717069
    DFT Exchange-Correlation Energy =       0.0000000000000000
    Empirical Dispersion Energy =           0.0000000000000000
    PCM Polarization Energy =               0.0000000000000000
    EFP Energy =                            0.0000000000000000
    Total Energy =                       -232.2466833616425674
    Molecular point group: c1
  Basis Set: CC-PVTZ
  Basis Set:

  -Total Gradient:
     Atom            X                  Y                   Z
    ------   -----------------  -----------------  -----------------
       1        0.000074225531    -0.000846779201     0.000034365730
       2        0.000079222942     0.001151878721     0.000135697207
       3       -0.000591603031    -0.000349108282    -0.000206466601
       4        0.000583611299    -0.000081790550     0.000128977109
       5       -0.000087309949     0.000107539882     0.000123055602
       6       -0.000086350339    -0.000041590538    -0.000098017872
       7       -0.000132116995    -0.000081721801    -0.000184086159
       8        0.000239078751    -0.000017344829     0.000028892960
       9       -0.000158492066     0.000106036793     0.000112454910
      10        0.000018318301    -0.000080064717    -0.000073831533
      11       -0.000018870993     0.000037009507    -0.000008433072
      12        0.000052123794     0.000009786030     0.000055071811
      13       -0.000011571869     0.000057030901    -0.000002026679
      14       -0.000036619059    -0.000024739250    -0.000032037485
      15        0.000076353684     0.000053857334    -0.000013615927

  **** Optimization is complete! (in 4 steps) ****
    Final optimized geometry and variables:
    Molecular point group: c1

    Geometry (in Angstrom), charge = 0, multiplicity = 1:

    H           -0.750662899150     0.091319131331     1.772875223494
    O            0.104358966147     0.050919827185     1.383877010930
    C           -0.004624518298    -0.000168373947    -0.025333495466
    C           -0.494553231133     1.349687429119    -0.545176884899
    C            1.403267184794    -0.288686425727    -0.528519131184
    C           -0.962555514895    -1.118846872022    -0.428651353756
    H           -0.569584684561     1.351354240051    -1.626921026613
    H            0.187920784388     2.134860334766    -0.244707596721
    H           -1.475720750087     1.583654766047    -0.143184331888
    H            1.425081175442    -0.338467957255    -1.610952091447
    H            2.082288921055     0.490312595284    -0.205470215927
    H            1.757943015224    -1.231447428410    -0.131479686447
    H           -1.036785369514    -1.200739865713    -1.506603083702
    H           -1.960330183883    -0.930812227678    -0.042916263049
    H           -0.620256940308    -2.067402549881    -0.033938999415

  Mulliken Charges: (a.u.)
   Center  Symbol    Alpha    Beta     Spin     Total
       1     H     0.39560  0.39560  0.00000  0.20880
       2     O     4.21134  4.21134  0.00000 -0.42267
       3     C     2.87823  2.87823  0.00000  0.24353
       4     C     3.14827  3.14827  0.00000 -0.29653
       5     C     3.14302  3.14302  0.00000 -0.28603
       6     C     3.15186  3.15186  0.00000 -0.30373
       7     H     0.45640  0.45640  0.00000  0.08720
       8     H     0.44726  0.44726  0.00000  0.10548
       9     H     0.45553  0.45553  0.00000  0.08893
      10     H     0.45881  0.45881  0.00000  0.08238
      11     H     0.44789  0.44789  0.00000  0.10421
      12     H     0.44900  0.44900  0.00000  0.10201
      13     H     0.45469  0.45469  0.00000  0.09063
      14     H     0.45616  0.45616  0.00000  0.08769
      15     H     0.44595  0.44595  0.00000  0.10811

   Total alpha = 21.00000, Total beta = 21.00000, Total charge =  0.00000

*** Psi4 exiting successfully. Buy a developer a beer!
