                              Psi4 1.0.54 Driver

  ==> Input File <==

--------------------------------------------------------------------------
set {
	reference rhf
	basis cc-pvtz
}

set_num_threads( 4 )
memory 2 gb

molecule MOL {
0 1

O	 -2.071633	 -1.227563	 -0.223463
C	 -1.652164	 -0.152425	 0.058082
C	 -0.327811	 0.006324	 0.778296
C	 -2.402515	 1.108629	 -0.298924
C	 0.843231	 -0.001575	 -0.211665
H	 -0.319484	 0.928173	 1.350354
H	 -0.227804	 -0.823091	 1.466705
C	 2.173807	 0.350527	 0.446986
H	 0.647436	 0.699878	 -1.018711
H	 0.908371	 -0.984985	 -0.664464
C	 3.343382	 0.331626	 -0.531226
H	 2.100803	 1.333567	 0.903961
H	 2.367364	 -0.348761	 1.255114
H	 3.195183	 1.046952	 -1.333337
H	 3.461047	 -0.648397	 -0.980757
H	 4.273115	 0.581288	 -0.033565
H	 -3.240910	 0.874416	 -0.936711
H	 -1.747554	 1.818823	 -0.790984
H	 -2.760419	 1.579708	 0.610998

	symmetry c1
}
set optking {
	frozen_dihedral = ("
		9 5 3 2
	")
}

ee,wfn = optimize('scf', return_wfn=True)
oeprop( wfn, 'DIPOLE', 'QUADRUPOLE', 'MULLIKEN_CHARGES')
f=open( 'psi4out.xyz', 'w' )
f.write( "19  " )
f.write( str(ee) + "\n" )
f.write( MOL.save_string_xyz() )
f.close()
--------------------------------------------------------------------------

    Molecular point group: c1
  Charge       = 0
  Multiplicity = 1
  Basis Set: CC-PVTZ
  Basis Set:
  @DF-RHF Final Energy:  -309.17707223281178
    Total Energy =                       -309.1770722328117813
    Molecular point group: c1
  Basis Set: CC-PVTZ
  Basis Set:
  Basis Set: CC-PVTZ
  Basis Set:
  @DF-RHF Final Energy:  -309.17710186297347
    Total Energy =                       -309.1771018629733021
  Basis Set: CC-PVTZ
  Basis Set:
  Basis Set: CC-PVTZ
  Basis Set:
  @DF-RHF Final Energy:  -309.17699179341025
    Total Energy =                       -309.1769917934098544
  Basis Set: CC-PVTZ
  Basis Set:
  Basis Set: CC-PVTZ
  Basis Set:
  @DF-RHF Final Energy:  -309.17711627158678
    Total Energy =                       -309.1771162715868968
  Basis Set: CC-PVTZ
  Basis Set:
  Basis Set: CC-PVTZ
  Basis Set:
  @DF-RHF Final Energy:  -309.17711853381718
    Total Energy =                       -309.1771185338172927
  Basis Set: CC-PVTZ
  Basis Set:
  Charge       = 0
  Multiplicity = 1
  Basis Set: CC-PVTZ
  Basis Set:

    Orbital Energies (a.u.)
    -----------------------

    Doubly Occupied:

       1A    -20.536893     2A    -11.319442     3A    -11.229065
       4A    -11.227962     5A    -11.227061     6A    -11.223545
       7A    -11.213520     8A     -1.396927     9A     -1.093265
      10A     -1.030812    11A     -0.984696    12A     -0.891312
      13A     -0.807941    14A     -0.734817    15A     -0.664093
      16A     -0.649082    17A     -0.624708    18A     -0.615260
      19A     -0.583532    20A     -0.575013    21A     -0.553358
      22A     -0.539241    23A     -0.512278    24A     -0.503142
      25A     -0.483808    26A     -0.476729    27A     -0.470253
      28A     -0.399221

  @DF-RHF Final Energy:  -309.17711884332124

   => Energetics <=

    Nuclear Repulsion Energy =            301.9458221809224483
    One-Electron Energy =               -1017.1119293686012952
    Two-Electron Energy =                 405.9889883443573240
    DFT Exchange-Correlation Energy =       0.0000000000000000
    Empirical Dispersion Energy =           0.0000000000000000
    PCM Polarization Energy =               0.0000000000000000
    EFP Energy =                            0.0000000000000000
    Total Energy =                       -309.1771188433214661
    Molecular point group: c1
  Basis Set: CC-PVTZ
  Basis Set:

  -Total Gradient:
     Atom            X                  Y                   Z
    ------   -----------------  -----------------  -----------------
       1        0.000005803667    -0.000013323953    -0.000015407177
       2       -0.000083436821     0.001193771891    -0.000122174497
       3       -0.000055524115    -0.001856622404    -0.000079573707
       4       -0.000045478175    -0.000018358756     0.000061009996
       5        0.000893496664     0.001879717514     0.001083281496
       6        0.000002532021     0.000000684869     0.000011864493
       7        0.000009096132     0.000013548358    -0.000006502420
       8       -0.000015586146    -0.000029806268    -0.000013252298
       9       -0.000732161969    -0.001193105390    -0.000878425283
      10       -0.000004767237    -0.000000152909    -0.000006133888
      11       -0.000005434082     0.000018765162    -0.000002811834
      12        0.000002045646    -0.000012708616    -0.000001152810
      13       -0.000002744734    -0.000000861228    -0.000001916408
      14        0.000001127222    -0.000006149535    -0.000002369914
      15       -0.000005756016     0.000008469231     0.000012150780
      16       -0.000001499250     0.000006195378    -0.000002113444
      17        0.000008525345     0.000000411027    -0.000006105608
      18        0.000014100407    -0.000005182948    -0.000011927130
      19        0.000015661437     0.000014708577    -0.000018440347

  **** Optimization is complete! (in 6 steps) ****
    Final optimized geometry and variables:
    Molecular point group: c1

    Geometry (in Angstrom), charge = 0, multiplicity = 1:

    O           -2.063958843930    -1.296656163659    -0.212356374117
    C           -1.644471913716    -0.220614234680     0.066003327527
    C           -0.322985652318    -0.056358726178     0.789061471097
    C           -2.393933397678     1.039187006971    -0.298141663123
    C            0.847827127227    -0.043139041953    -0.202276400358
    H           -0.328121328688     0.865528301196     1.361625921651
    H           -0.212113244433    -0.883946461262     1.477440641406
    C            2.181167485167     0.293571828094     0.457072001093
    H            0.646984933372     0.663859875090    -1.003268450225
    H            0.908229825519    -1.018496392076    -0.673376418779
    C            3.350660727509     0.267468507299    -0.520994815839
    H            2.117132937897     1.275401867866     0.917748871470
    H            2.368114718574    -0.410360994677     1.262956477894
    H            3.206429435434     0.983383577009    -1.323294691311
    H            3.462658695116    -0.713270202707    -0.970285513531
    H            4.281775523060     0.511991865276    -0.023389051683
    H           -3.222512148535     0.803366998256    -0.948036208662
    H           -1.736101143258     1.754768640045    -0.778080992558
    H           -2.767081738579     1.504533160010     0.608609260356

  Mulliken Charges: (a.u.)
   Center  Symbol    Alpha    Beta     Spin     Total
       1     O     4.17746  4.17746  0.00000 -0.35493
       2     C     2.85849  2.85849  0.00000  0.28302
       3     C     3.09779  3.09779  0.00000 -0.19558
       4     C     3.15532  3.15532  0.00000 -0.31065
       5     C     3.09720  3.09720  0.00000 -0.19439
       6     H     0.45034  0.45034  0.00000  0.09932
       7     H     0.43850  0.43850  0.00000  0.12300
       8     C     3.08625  3.08625  0.00000 -0.17249
       9     H     0.45223  0.45223  0.00000  0.09554
      10     H     0.44148  0.44148  0.00000  0.11703
      11     C     3.14927  3.14927  0.00000 -0.29854
      12     H     0.45399  0.45399  0.00000  0.09202
      13     H     0.45161  0.45161  0.00000  0.09677
      14     H     0.45500  0.45500  0.00000  0.09000
      15     H     0.45272  0.45272  0.00000  0.09455
      16     H     0.44736  0.44736  0.00000  0.10529
      17     H     0.43597  0.43597  0.00000  0.12806
      18     H     0.45086  0.45086  0.00000  0.09828
      19     H     0.44816  0.44816  0.00000  0.10368

   Total alpha = 28.00000, Total beta = 28.00000, Total charge = -0.00000

*** Psi4 exiting successfully. Buy a developer a beer!
