  ==> Input File <==

--------------------------------------------------------------------------
set {
	reference rhf
	basis 6-31G*
}

set_num_threads( 1 )
memory 2 gb

molecule MOL {
0 1

H	 -3.105572	 0.711190	 -0.895224
C	 -2.325628	 0.085977	 -1.325267
O	 -1.392607	 -0.295399	 -0.366433
H	 -2.776178	 -0.814941	 -1.718323
H	 -1.858541	 0.631502	 -2.144205
C	 -0.719715	 0.768384	 0.229244
C	 0.719720	 0.768376	 -0.229267
H	 -1.185038	 1.714362	 -0.050570
H	 -0.750528	 0.687237	 1.313896
O	 1.392611	 -0.295398	 0.366430
H	 0.750534	 0.687200	 -1.313918
H	 1.185043	 1.714359	 0.050526
C	 2.706965	 -0.449871	 -0.062409
H	 2.756559	 -0.644779	 -1.131878
H	 3.305899	 0.433456	 0.155466
H	 3.125548	 -1.294566	 0.467107

	symmetry c1
}
set optking {
	frozen_dihedral = ("
		3 6 7 11,
		7 10 13 14
	")
}

ee = energy('scf')
oeprop('DIPOLE', 'QUADRUPOLE', 'MULLIKEN_CHARGES')
f=open( 'psi4out.xyz', 'w' )
f.write( "16  " )
f.write( str(ee) + "\n" )
f.write( MOL.save_string_xyz() )
f.close()
--------------------------------------------------------------------------

    Molecular point group: c1

    Geometry (in Angstrom), charge = 0, multiplicity = 1:

       Center              X                  Y                   Z               Mass
    ------------   -----------------  -----------------  -----------------  -----------------
           H         -3.172579340575     0.617043490236    -0.651399833897     1.007825032070
           C         -2.392635340575    -0.008169509764    -1.081442833897    12.000000000000
           O         -1.459614340575    -0.389545509764    -0.122608833897    15.994914619560
           H         -2.843185340575    -0.909087509764    -1.474498833897     1.007825032070
           H         -1.925548340575     0.537355490236    -1.900380833897     1.007825032070
           C         -0.786722340575     0.674237490236     0.473068166103    12.000000000000
           C          0.652712659425     0.674229490236     0.014557166103    12.000000000000
           H         -1.252045340575     1.620215490236     0.193254166103     1.007825032070
           H         -0.817535340575     0.593090490236     1.557720166103     1.007825032070
           O          1.325603659425    -0.389544509764     0.610254166103    15.994914619560
           H          0.683526659425     0.593053490236    -1.070093833897     1.007825032070
           H          1.118035659425     1.620212490236     0.294350166103     1.007825032070
           C          2.639957659425    -0.544017509764     0.181415166103    12.000000000000
           H          2.689551659425    -0.738925509764    -0.888053833897     1.007825032070
           H          3.238891659425     0.339309490236     0.399290166103     1.007825032070
           H          3.058540659425    -1.388712509764     0.710931166103     1.007825032070

  Charge       = 0
  Multiplicity = 1
  Basis Set: 6-31G*
  Basis Set:

    Orbital Energies (a.u.)
    -----------------------

    Doubly Occupied:

       1A    -20.553783     2A    -20.552003     3A    -11.268654
       4A    -11.267036     5A    -11.266577     6A    -11.263670
       7A     -1.388849     8A     -1.370836     9A     -1.028940
      10A     -0.938802    11A     -0.896649    12A     -0.821724
      13A     -0.687945    14A     -0.677936    15A     -0.658065
      16A     -0.638055    17A     -0.622002    18A     -0.604619
      19A     -0.556361    20A     -0.526638    21A     -0.511331
      22A     -0.481038    23A     -0.470533    24A     -0.416003
      25A     -0.406844

  @DF-RHF Final Energy:  -306.97278444196428

   => Energetics <=

    Nuclear Repulsion Energy =            260.2810882167690920
    One-Electron Energy =                -934.7578925059652875
    Two-Electron Energy =                 367.5040198472318025
    DFT Exchange-Correlation Energy =       0.0000000000000000
    Empirical Dispersion Energy =           0.0000000000000000
    PCM Polarization Energy =               0.0000000000000000
    EFP Energy =                            0.0000000000000000
    Total Energy =                       -306.9727844419644498

  Mulliken Charges: (a.u.)
   Center  Symbol    Alpha    Beta     Spin     Total
       1     H     0.42874  0.42874  0.00000  0.14252
       2     C     3.08137  3.08137  0.00000 -0.16274
       3     O     4.29840  4.29840  0.00000 -0.59680
       4     H     0.41094  0.41094  0.00000  0.17812
       5     H     0.43273  0.43273  0.00000  0.13455
       6     C     3.00301  3.00301  0.00000 -0.00601
       7     C     2.98776  2.98776  0.00000  0.02448
       8     H     0.43054  0.43054  0.00000  0.13892
       9     H     0.41044  0.41044  0.00000  0.17912
      10     O     4.30019  4.30019  0.00000 -0.60038
      11     H     0.42954  0.42954  0.00000  0.14091
      12     H     0.43547  0.43547  0.00000  0.12907
      13     C     3.07911  3.07911  0.00000 -0.15821
      14     H     0.42906  0.42906  0.00000  0.14189
      15     H     0.43178  0.43178  0.00000  0.13645
      16     H     0.41093  0.41093  0.00000  0.17814

   Total alpha = 25.00000, Total beta = 25.00000, Total charge = -0.00000
