  ==> Input File <==

--------------------------------------------------------------------------
set {
	reference rhf
	basis 6-31G*
}

set_num_threads( 4 )
memory 2 gb

molecule MOL {
0 1

H	 1.618375	 -1.770285	 0.973694
C	 0.731172	 -1.191615	 1.173862
O	 0.464886	 -0.454746	 -0.000158
H	 0.915528	 -0.532573	 2.013923
H	 -0.087936	 -1.861304	 1.407613
C	 -0.590998	 0.343045	 0.000118
O	 -1.699443	 -0.054298	 0.000227
H	 -0.340329	 1.404368	 0.000207

	symmetry c1
}
set optking {
	frozen_dihedral = ("
		2 3 6 7
	")
}

ee = optimize('scf')
oeprop('DIPOLE', 'QUADRUPOLE', 'MULLIKEN_CHARGES')
f=open( 'psi4out.xyz', 'w' )
f.write( "8  " )
f.write( str(ee) + "\n" )
f.write( MOL.save_string_xyz() )
f.close()
--------------------------------------------------------------------------

    Molecular point group: c1
  Charge       = 0
  Multiplicity = 1
  Basis Set: 6-31G*
  Basis Set:
  @DF-RHF Final Energy:  -227.77047465906890
    Total Energy =                       -227.7704746590689524
    Molecular point group: c1
  Basis Set: 6-31G*
  Basis Set:
  Basis Set: 6-31G*
  Basis Set:
  @DF-RHF Final Energy:  -227.76619615347644
    Total Energy =                       -227.7661961534764998
  Basis Set: 6-31G*
  Basis Set:
  Basis Set: 6-31G*
  Basis Set:
  @DF-RHF Final Energy:  -227.77100349970510
    Total Energy =                       -227.7710034997050741
  Basis Set: 6-31G*
  Basis Set:
  Basis Set: 6-31G*
  Basis Set:
  @DF-RHF Final Energy:  -227.77132703406727
    Total Energy =                       -227.7713270340673830
  Basis Set: 6-31G*
  Basis Set:
  Basis Set: 6-31G*
  Basis Set:
  @DF-RHF Final Energy:  -227.77133109101527
    Total Energy =                       -227.7713310910152700
  Basis Set: 6-31G*
  Basis Set:
  Charge       = 0
  Multiplicity = 1
  Basis Set: 6-31G*
  Basis Set:

    Orbital Energies (a.u.)
    -----------------------

    Doubly Occupied:

       1A    -20.598532     2A    -20.571698     3A    -11.383122
       4A    -11.296419     5A     -1.469696     6A     -1.379583
       7A     -0.989055     8A     -0.828445     9A     -0.738568
      10A     -0.684802    11A     -0.666570    12A     -0.623283
      13A     -0.561100    14A     -0.514182    15A     -0.470393
      16A     -0.455679

  @DF-RHF Final Energy:  -227.77133130713935

   => Energetics <=

    Nuclear Repulsion Energy =            122.1058848756151747
    One-Electron Energy =                -553.2921768044122928
    Two-Electron Energy =                 203.4149606216577126
    DFT Exchange-Correlation Energy =       0.0000000000000000
    Empirical Dispersion Energy =           0.0000000000000000
    PCM Polarization Energy =               0.0000000000000000
    EFP Energy =                            0.0000000000000000
    Total Energy =                       -227.7713313071394055
    Molecular point group: c1
  Basis Set: 6-31G*
  Basis Set:

  -Total Gradient:
     Atom            X                  Y                   Z
    ------   -----------------  -----------------  -----------------
       1       -0.000013525289     0.000017535118    -0.000013280638
       2        0.002818991444     0.004143940695     0.002183860886
       3       -0.004108899651    -0.005949699537    -0.006802489329
       4        0.000014377429    -0.000009655965     0.000010129792
       5        0.000009358958    -0.000013857423     0.000010475881
       6        0.001048078486     0.001481575548     0.011720628390
       7        0.000240384923     0.000336899997    -0.007110266017
       8       -0.000008766301    -0.000006738432     0.000000941036

  **** Optimization is complete! (in 6 steps) ****
    Final optimized geometry and variables:
    Molecular point group: c1

    Geometry (in Angstrom), charge = 0, multiplicity = 1:

    H            1.862226579215    -1.459755372497     0.652297392255
    C            1.003299604390    -0.846727747216     0.873748095556
    O            0.756089632384    -0.070466932903    -0.285861966496
    H            1.226481019650    -0.204233825856     1.717824690874
    H            0.152592190775    -1.474179131093     1.102075094617
    C           -0.345414572898     0.689527456245    -0.291288883475
    O           -1.447021887671     0.275875182149    -0.349906508173
    H           -0.109027864597     1.749947286433    -0.317332172420

  Mulliken Charges: (a.u.)
   Center  Symbol    Alpha    Beta     Spin     Total
       1     H     0.40201  0.40201  0.00000  0.19598
       2     C     3.09411  3.09411  0.00000 -0.18822
       3     O     4.29705  4.29705  0.00000 -0.59411
       4     H     0.41762  0.41762  0.00000  0.16476
       5     H     0.40498  0.40498  0.00000  0.19005
       6     C     2.73181  2.73181  0.00000  0.53639
       7     O     4.23274  4.23274  0.00000 -0.46548
       8     H     0.41968  0.41968  0.00000  0.16064

   Total alpha = 16.00000, Total beta = 16.00000, Total charge =  0.00000
