  ==> Input File <==

--------------------------------------------------------------------------
set {
	reference rhf
	basis cc-pvtz
}

set_num_threads( 4 )
memory 2 gb

molecule MOL {
0 1

H	 -2.777192	 0.384166	 0.741106
C	 -2.380995	 1.359352	 0.467385
O	 -1.002811	 1.320551	 0.304152
H	 -2.817155	 1.659932	 -0.474053
H	 -2.673179	 2.076281	 1.232582
C	 -0.299942	 0.955395	 1.446200
C	 1.169889	 0.844711	 1.127308
H	 -0.436142	 1.702433	 2.228090
H	 -0.655721	 0.001087	 1.828493
O	 1.401606	 -0.295166	 0.366636
H	 1.487584	 1.736394	 0.591210
H	 1.730797	 0.796025	 2.060574
C	 2.714315	 -0.441627	 -0.061017
H	 2.765292	 -0.641548	 -1.128869
H	 3.305661	 0.447341	 0.150952
H	 3.143725	 -1.278506	 0.470147

	symmetry c1
}
set optking {
	frozen_dihedral = ("
		7 10 13 14
	")
}

ee = optimize('scf')
oeprop('DIPOLE', 'QUADRUPOLE', 'MULLIKEN_CHARGES')
f=open( 'psi4out.xyz', 'w' )
f.write( "16  " )
f.write( str(ee) + "\n" )
f.write( MOL.save_string_xyz() )
f.close()
--------------------------------------------------------------------------

    Molecular point group: c1
  Charge       = 0
  Multiplicity = 1
  Basis Set: CC-PVTZ
  Basis Set:
  @DF-RHF Final Energy:  -307.09382803527501
    Total Energy =                       -307.0938280352752372
    Molecular point group: c1
  Basis Set: CC-PVTZ
  Basis Set:
  Basis Set: CC-PVTZ
  Basis Set:
  @DF-RHF Final Energy:  -307.09439562744711
    Total Energy =                       -307.0943956274469429
  Basis Set: CC-PVTZ
  Basis Set:
  Basis Set: CC-PVTZ
  Basis Set:
  @DF-RHF Final Energy:  -307.09451441290310
    Total Energy =                       -307.0945144129034361
  Basis Set: CC-PVTZ
  Basis Set:
  Basis Set: CC-PVTZ
  Basis Set:
  @DF-RHF Final Energy:  -307.09451549179818
    Total Energy =                       -307.0945154917982336
  Basis Set: CC-PVTZ
  Basis Set:
  Charge       = 0
  Multiplicity = 1
  Basis Set: CC-PVTZ
  Basis Set:

    Orbital Energies (a.u.)
    -----------------------

    Doubly Occupied:

       1A    -20.547423     2A    -20.544337     3A    -11.267802
       4A    -11.266561     5A    -11.261338     6A    -11.261078
       7A     -1.389598     8A     -1.371595     9A     -1.031743
      10A     -0.937274    11A     -0.892155    12A     -0.823994
      13A     -0.684873    14A     -0.681187    15A     -0.658553
      16A     -0.636740    17A     -0.630397    18A     -0.597180
      19A     -0.554821    20A     -0.537891    21A     -0.508563
      22A     -0.478833    23A     -0.463796    24A     -0.421157
      25A     -0.410493

  @DF-RHF Final Energy:  -307.09451562434100

   => Energetics <=

    Nuclear Repulsion Energy =            258.6510526307350233
    One-Electron Energy =                -931.7723758481110963
    Two-Electron Energy =                 366.0268075930351301
    DFT Exchange-Correlation Energy =       0.0000000000000000
    Empirical Dispersion Energy =           0.0000000000000000
    PCM Polarization Energy =               0.0000000000000000
    EFP Energy =                            0.0000000000000000
    Total Energy =                       -307.0945156243409997
    Molecular point group: c1
  Basis Set: CC-PVTZ
  Basis Set:

  -Total Gradient:
     Atom            X                  Y                   Z
    ------   -----------------  -----------------  -----------------
       1        0.000001306890    -0.000000192182     0.000000803558
       2       -0.000001405702     0.000003976520    -0.000007130578
       3       -0.000001968838     0.000002996725     0.000002004634
       4       -0.000004348387    -0.000000145720     0.000000307399
       5        0.000000873099    -0.000000774957     0.000000476077
       6       -0.000000649013    -0.000004861328    -0.000004120065
       7       -0.000249009214     0.000615177204    -0.000964436407
       8        0.000000467304     0.000002391304     0.000001141955
       9        0.000008056551    -0.000000123387     0.000003761283
      10        0.000378217180    -0.000535787220     0.001324245327
      11        0.000000609464     0.000000407103    -0.000001745246
      12       -0.000000959642    -0.000002064796    -0.000003370251
      13       -0.000236361946    -0.001508406181    -0.000099973903
      14        0.000094406567     0.001413350529    -0.000252578740
      15        0.000010741422     0.000008064991     0.000001458311
      16        0.000000024262     0.000005991395    -0.000000843354

  **** Optimization is complete! (in 5 steps) ****
    Final optimized geometry and variables:
    Molecular point group: c1

    Geometry (in Angstrom), charge = 0, multiplicity = 1:

    H           -3.038318909344    -0.247001988483     0.116960475266
    C           -2.644611568587     0.730749344368    -0.151122740122
    O           -1.264749259987     0.699524875132    -0.300708811943
    H           -3.073099985358     1.030745856074    -1.096277630452
    H           -2.948226869658     1.444733166592     0.612419866033
    C           -0.571277546117     0.335847869375     0.847552184736
    C            0.902126295464     0.232077287971     0.542917272849
    H           -0.717586120521     1.081766332182     1.628828375250
    H           -0.926947436991    -0.620095533344     1.225593630561
    O            1.140364080662    -0.903617408248    -0.223554298286
    H            1.219751999741     1.127604286910     0.015016163171
    H            1.450364678826     0.181829610140     1.483368335446
    C            2.448241810234    -1.078385823131    -0.673170896924
    H            2.435077531563    -1.277503486552    -1.737408502445
    H            3.054550787051    -0.193340743666    -0.507407402661
    H            2.917299077344    -1.912580449841    -0.162015802476

  Mulliken Charges: (a.u.)
   Center  Symbol    Alpha    Beta     Spin     Total
       1     H     0.47017  0.47017  0.00000  0.05967
       2     C     3.03200  3.03200  0.00000 -0.06401
       3     O     4.17034  4.17034  0.00000 -0.34069
       4     H     0.44647  0.44647  0.00000  0.10706
       5     H     0.47375  0.47375  0.00000  0.05250
       6     C     2.96338  2.96338  0.00000  0.07324
       7     C     2.95869  2.95869  0.00000  0.08262
       8     H     0.47624  0.47624  0.00000  0.04752
       9     H     0.47110  0.47110  0.00000  0.05780
      10     O     4.17495  4.17495  0.00000 -0.34990
      11     H     0.47002  0.47002  0.00000  0.05996
      12     H     0.47656  0.47656  0.00000  0.04687
      13     C     3.02707  3.02707  0.00000 -0.05413
      14     H     0.45366  0.45366  0.00000  0.09268
      15     H     0.47404  0.47404  0.00000  0.05191
      16     H     0.46156  0.46156  0.00000  0.07689

   Total alpha = 25.00000, Total beta = 25.00000, Total charge =  0.00000
