  ==> Input File <==

--------------------------------------------------------------------------
set {
	reference rhf
	basis 6-31G*
}

set_num_threads( 1 )
memory 2 gb

molecule MOL {
0 1

H	 -3.107938	 0.256780	 -0.055480
O	 -2.347518	 -0.290803	 0.079804
C	 -1.184022	 0.487508	 -0.006784
C	 0.062599	 -0.378592	 0.031606
H	 -1.176523	 1.099369	 -0.904519
H	 -1.187323	 1.153111	 0.844927
O	 1.171513	 0.459272	 -0.058250
H	 0.050699	 -1.089204	 -0.797170
H	 0.078739	 -0.954914	 0.954740
C	 2.397842	 -0.198080	 -0.002151
H	 2.508049	 -0.905315	 -0.822092
H	 3.173794	 0.550865	 -0.078850
H	 2.517602	 -0.735921	 0.936026

	symmetry c1
}
set optking {
	frozen_dihedral = ("
		8 4 3 5,
		10 7 4 8,
		4 7 10 13
	")
}

ee = energy('scf')
oeprop('DIPOLE', 'QUADRUPOLE', 'MULLIKEN_CHARGES')
f=open( 'psi4out.xyz', 'w' )
f.write( "13  " )
f.write( str(ee) + "\n" )
f.write( MOL.save_string_xyz() )
f.close()
--------------------------------------------------------------------------

    Molecular point group: c1

    Geometry (in Angstrom), charge = 0, multiplicity = 1:

       Center              X                  Y                   Z               Mass
    ------------   -----------------  -----------------  -----------------  -----------------
           H         -3.099869675557     0.243702734216    -0.064618373040     1.007825032070
           O         -2.339449675557    -0.303880265784     0.070665626960    15.994914619560
           C         -1.175953675557     0.474430734216    -0.015922373040    12.000000000000
           C          0.070667324443    -0.391669265784     0.022467626960    12.000000000000
           H         -1.168454675557     1.086291734216    -0.913657373040     1.007825032070
           H         -1.179254675557     1.140033734216     0.835788626960     1.007825032070
           O          1.179581324443     0.446194734216    -0.067388373040    15.994914619560
           H          0.058767324443    -1.102281265784    -0.806308373040     1.007825032070
           H          0.086807324443    -0.967991265784     0.945601626960     1.007825032070
           C          2.405910324443    -0.211157265784    -0.011289373040    12.000000000000
           H          2.516117324443    -0.918392265784    -0.831230373040     1.007825032070
           H          3.181862324443     0.537787734216    -0.087988373040     1.007825032070
           H          2.525670324443    -0.748998265784     0.926887626960     1.007825032070

  Charge       = 0
  Multiplicity = 1
  Basis Set: 6-31G*
  Basis Set:

    Orbital Energies (a.u.)
    -----------------------

    Doubly Occupied:

       1A    -20.560705     2A    -20.556560     3A    -11.270015
       4A    -11.268608     5A    -11.268322     6A     -1.386774
       7A     -1.362741     8A     -1.018034     9A     -0.911837
      10A     -0.832250    11A     -0.706072    12A     -0.683916
      13A     -0.643708    14A     -0.635638    15A     -0.621089
      16A     -0.551815    17A     -0.539876    18A     -0.496723
      19A     -0.469333    20A     -0.438074    21A     -0.418951

  @DF-RHF Final Energy:  -267.94939545829754

   => Energetics <=

    Nuclear Repulsion Energy =            189.8300627423156186
    One-Electron Energy =                -742.2768017047393414
    Two-Electron Energy =                 284.4973435041260927
    DFT Exchange-Correlation Energy =       0.0000000000000000
    Empirical Dispersion Energy =           0.0000000000000000
    PCM Polarization Energy =               0.0000000000000000
    EFP Energy =                            0.0000000000000000
    Total Energy =                       -267.9493954582976585

  Mulliken Charges: (a.u.)
   Center  Symbol    Alpha    Beta     Spin     Total
       1     H     0.27780  0.27780  0.00000  0.44441
       2     O     4.37568  4.37568  0.00000 -0.75136
       3     C     2.99993  2.99993  0.00000  0.00013
       4     C     2.99421  2.99421  0.00000  0.01157
       5     H     0.42418  0.42418  0.00000  0.15163
       6     H     0.42413  0.42413  0.00000  0.15174
       7     O     4.30820  4.30820  0.00000 -0.61639
       8     H     0.42500  0.42500  0.00000  0.14999
       9     H     0.42398  0.42398  0.00000  0.15204
      10     C     3.07970  3.07970  0.00000 -0.15941
      11     H     0.42816  0.42816  0.00000  0.14368
      12     H     0.41111  0.41111  0.00000  0.17778
      13     H     0.42791  0.42791  0.00000  0.14418

   Total alpha = 21.00000, Total beta = 21.00000, Total charge =  0.00000
