                              Psi4 1.0.54 Driver

  ==> Input File <==

--------------------------------------------------------------------------
set {
	reference rhf
	basis cc-pvtz
}

set_num_threads( 4 )
memory 2 gb

molecule MOL {
0 1

O	 3.219313	 0.959291	 -0.614106
C	 2.698710	 0.058177	 -0.050237
C	 1.246364	 -0.005813	 0.348416
O	 3.344101	 -1.038700	 0.312317
C	 0.453207	 1.232821	 -0.049003
H	 0.839270	 -0.907818	 -0.092281
H	 1.216683	 -0.160521	 1.422434
C	 -0.998367	 1.217982	 0.432195
H	 0.481498	 1.345443	 -1.127236
H	 0.951413	 2.105557	 0.354893
C	 -1.882951	 0.151251	 -0.211235
H	 -1.429490	 2.193659	 0.228843
H	 -1.019755	 1.099323	 1.513279
C	 -3.342450	 0.243269	 0.226009
H	 -1.826223	 0.246578	 -1.293162
H	 -1.508033	 -0.839650	 0.027695
C	 -3.938401	 1.638830	 0.064687
H	 -3.425473	 -0.062972	 1.266039
H	 -3.934489	 -0.466584	 -0.347109
C	 -5.395997	 1.723149	 0.505235
H	 -3.347997	 2.349210	 0.636967
H	 -3.858733	 1.945280	 -0.974831
H	 -5.787900	 2.725702	 0.377626
H	 -5.504648	 1.456481	 1.551271
H	 -6.019168	 1.048625	 -0.072592
C	 4.720529	 -1.114346	 0.001449
H	 4.874321	 -1.055557	 -1.065852
H	 5.057824	 -2.067950	 0.373977
H	 5.264321	 -0.313596	 0.480350

	symmetry c1
}
set optking {
	frozen_dihedral = ("
		17 14 11 15
	")
}

ee,wfn = optimize('scf', return_wfn=True)
oeprop( wfn, 'DIPOLE', 'QUADRUPOLE', 'MULLIKEN_CHARGES')
f=open( 'psi4out.xyz', 'w' )
f.write( "29  " )
f.write( str(ee) + "\n" )
f.write( MOL.save_string_xyz() )
f.close()
--------------------------------------------------------------------------

    Molecular point group: c1
  Charge       = 0
  Multiplicity = 1
  Basis Set: CC-PVTZ
  Basis Set:
  @DF-RHF Final Energy:  -501.22044928994342
    Total Energy =                       -501.2204492899427350
    Molecular point group: c1
  Basis Set: CC-PVTZ
  Basis Set:
  Basis Set: CC-PVTZ
  Basis Set:
  @DF-RHF Final Energy:  -501.05226376589667
    Total Energy =                       -501.0522637658957592
  Basis Set: CC-PVTZ
  Basis Set:
  Basis Set: CC-PVTZ
  Basis Set:
  @DF-RHF Final Energy:  -501.17500383597007
    Total Energy =                       -501.1750038359703012
  Basis Set: CC-PVTZ
  Basis Set:
  Basis Set: CC-PVTZ
  Basis Set:
  @DF-RHF Final Energy:  -501.21959349427925
    Total Energy =                       -501.2195934942787972
  Basis Set: CC-PVTZ
  Basis Set:
  @DF-RHF Final Energy:  -501.22216376720473
    Total Energy =                       -501.2221637672043926
  @DF-RHF Final Energy:  -501.22203315802074
    Total Energy =                       -501.2220331580201673
  @DF-RHF Final Energy:  -501.22184792069936
    Total Energy =                       -501.2218479207000428
  @DF-RHF Final Energy:  -501.22234206212340
    Total Energy =                       -501.2223420621234027
  Basis Set: CC-PVTZ
  Basis Set:
  @DF-RHF Final Energy:  -501.22234029067556
    Total Energy =                       -501.2223402906761294
  Basis Set: CC-PVTZ
  Basis Set:
  Basis Set: CC-PVTZ
  Basis Set:
  @DF-RHF Final Energy:  -501.22235161911249
    Total Energy =                       -501.2223516191130557
  Basis Set: CC-PVTZ
  Basis Set:
  Basis Set: CC-PVTZ
  Basis Set:
  @DF-RHF Final Energy:  -501.22235333775086
    Total Energy =                       -501.2223533377500644
  Basis Set: CC-PVTZ
  Basis Set:
  Charge       = 0
  Multiplicity = 1
  Basis Set: CC-PVTZ
  Basis Set:

    Orbital Energies (a.u.)
    -----------------------

    Doubly Occupied:

       1A    -20.595975     2A    -20.533832     3A    -11.364265
       4A    -11.278228     5A    -11.232889     6A    -11.217139
       7A    -11.215265     8A    -11.214024     9A    -11.213227
      10A    -11.212631    11A    -11.206812    12A     -1.471887
      13A     -1.365472    14A     -1.099155    15A     -1.066943
      16A     -1.018860    17A     -0.977940    18A     -0.929987
      19A     -0.862672    20A     -0.816850    21A     -0.776301
      22A     -0.763178    23A     -0.703189    24A     -0.685265
      25A     -0.676031    26A     -0.639596    27A     -0.630194
      28A     -0.614709    29A     -0.594920    30A     -0.581730
      31A     -0.567587    32A     -0.556450    33A     -0.540076
      34A     -0.526549    35A     -0.524035    36A     -0.498894
      37A     -0.495140    38A     -0.487363    39A     -0.475134
      40A     -0.460718    41A     -0.456348    42A     -0.449716
      43A     -0.443222    44A     -0.440097

  @DF-RHF Final Energy:  -501.22235415235673

   => Energetics <=

    Nuclear Repulsion Energy =            614.6186403804217662
    One-Electron Energy =               -1900.7209957029290308
    Two-Electron Energy =                 784.8800011701503081
    DFT Exchange-Correlation Energy =       0.0000000000000000
    Empirical Dispersion Energy =           0.0000000000000000
    PCM Polarization Energy =               0.0000000000000000
    EFP Energy =                            0.0000000000000000
    Total Energy =                       -501.2223541523569565
    Molecular point group: c1
  Basis Set: CC-PVTZ
  Basis Set:

  -Total Gradient:
     Atom            X                  Y                   Z
    ------   -----------------  -----------------  -----------------
       1        0.000005500385    -0.000058749212    -0.000001005186
       2       -0.000013098299     0.000055514514     0.000055367355
       3       -0.000015170651    -0.000012534679    -0.000065269684
       4        0.000029340480    -0.000000401046    -0.000038861540
       5        0.000008370455     0.000005572425     0.000029532617
       6       -0.000000987036     0.000007952675     0.000024854456
       7        0.000003581846     0.000017565877     0.000002060078
       8       -0.000007984930     0.000013863325    -0.000032853453
       9       -0.000004905331    -0.000017362497     0.000019296981
      10       -0.000004799371    -0.000012857461    -0.000016213106
      11       -0.000544795473     0.002808261803     0.002324695840
      12        0.000013339123    -0.000001287429    -0.000002180361
      13       -0.000002365821    -0.000003212956    -0.000012745304
      14       -0.000618431415    -0.000463547307    -0.003015353219
      15        0.000630766225    -0.002309253465    -0.001171840059
      16       -0.000008098989     0.000014010116     0.000001426005
      17        0.000543529290    -0.000042522311     0.001868093188
      18        0.000000891728     0.000008777821    -0.000020296338
      19        0.000003545290     0.000009855873     0.000011691626
      20       -0.000013762030    -0.000010497679     0.000038956316
      21       -0.000016799334    -0.000018727260    -0.000028523238
      22        0.000007245179    -0.000022393190     0.000024952255
      23        0.000010116428    -0.000025679367     0.000002719208
      24       -0.000006469642     0.000020817562    -0.000036967200
      25        0.000013637849     0.000031425097     0.000028202147
      26       -0.000019854281     0.000004999659     0.000020672691
      27        0.000005136521    -0.000001792073     0.000003600176
      28       -0.000005400332     0.000009374747    -0.000003578844
      29        0.000007922133    -0.000007173561    -0.000010433406

  **** Optimization is complete! (in 12 steps) ****
    Final optimized geometry and variables:
    Molecular point group: c1

    Geometry (in Angstrom), charge = 0, multiplicity = 1:

    O            2.944589084706     1.522048263357    -0.306797309283
    C            2.667650411250     0.396709228022    -0.066279161270
    C            1.279406504499    -0.128624068349     0.197129587616
    O            3.567737070428    -0.570814546240     0.004183601386
    C            0.200414895902     0.944251749594     0.117693749171
    H            1.109234556121    -0.932671314763    -0.508255289204
    H            1.295571310783    -0.592897505776     1.178213193743
    C           -1.202440345010     0.444359162764     0.469858012897
    H            0.196736241864     1.376581380623    -0.876904349398
    H            0.467682878648     1.749422577439     0.790833210123
    C           -1.807358078041    -0.519910944917    -0.549232597043
    H           -1.845028176461     1.311123804271     0.568989230401
    H           -1.181856050532    -0.031036046526     1.448746870254
    C           -3.177512430194    -1.093363396234    -0.175923127544
    H           -1.872642973984    -0.033260204349    -1.519848713650
    H           -1.135599803867    -1.360319743712    -0.694524829259
    C           -4.256007886155    -0.064931105784     0.159994447942
    H           -3.060697225462    -1.762059780403     0.674359630446
    H           -3.523169646104    -1.712523791766    -0.998860492918
    C           -5.622978172283    -0.702761516215     0.387506976973
    H           -3.974238282110     0.490207254335     1.047562206820
    H           -4.328231282010     0.661580735929    -0.645776767585
    H           -6.368071902202     0.043487698131     0.638251115007
    H           -5.588532747545    -1.420937395398     1.200185194555
    H           -5.964097083113    -1.226121480663    -0.499379391641
    C            4.917773313044    -0.218606334969    -0.219842726674
    H            5.045489890332     0.192369737215    -1.210306970790
    H            5.483890883145    -1.130393460109    -0.119594421603
    H            5.248541685218     0.507355752373     0.508046931919

  Mulliken Charges: (a.u.)
   Center  Symbol    Alpha    Beta     Spin     Total
       1     O     4.19708  4.19708  0.00000 -0.39417
       2     C     2.80490  2.80490  0.00000  0.39019
       3     C     3.10102  3.10102  0.00000 -0.20204
       4     O     4.14722  4.14722  0.00000 -0.29444
       5     C     3.09130  3.09130  0.00000 -0.18261
       6     H     0.43932  0.43932  0.00000  0.12135
       7     H     0.44011  0.44011  0.00000  0.11978
       8     C     3.10806  3.10806  0.00000 -0.21612
       9     H     0.44633  0.44633  0.00000  0.10733
      10     H     0.43943  0.43943  0.00000  0.12114
      11     C     3.10099  3.10099  0.00000 -0.20198
      12     H     0.44117  0.44117  0.00000  0.11766
      13     H     0.45349  0.45349  0.00000  0.09301
      14     C     3.09269  3.09269  0.00000 -0.18537
      15     H     0.45114  0.45114  0.00000  0.09772
      16     H     0.44896  0.44896  0.00000  0.10207
      17     C     3.08814  3.08814  0.00000 -0.17628
      18     H     0.45408  0.45408  0.00000  0.09185
      19     H     0.44906  0.44906  0.00000  0.10188
      20     C     3.15029  3.15029  0.00000 -0.30059
      21     H     0.45177  0.45177  0.00000  0.09646
      22     H     0.45345  0.45345  0.00000  0.09310
      23     H     0.44819  0.44819  0.00000  0.10362
      24     H     0.45535  0.45535  0.00000  0.08930
      25     H     0.45445  0.45445  0.00000  0.09110
      26     C     3.03812  3.03812  0.00000 -0.07624
      27     H     0.45433  0.45433  0.00000  0.09135
      28     H     0.44528  0.44528  0.00000  0.10944
      29     H     0.45426  0.45426  0.00000  0.09149

   Total alpha = 44.00000, Total beta = 44.00000, Total charge = -0.00000

*** Psi4 exiting successfully. Buy a developer a beer!
