                              Psi4 1.0.54 Driver

  ==> Input File <==

--------------------------------------------------------------------------
set {
	reference rhf
	basis cc-pvtz
}

set_num_threads( 4 )
memory 2 gb

molecule MOL {
0 1

H	 -0.863736	 -1.309059	 -0.276902
O	 -1.432053	 -0.565244	 -0.200812
C	 -0.727158	 0.534527	 0.310686
C	 0.680222	 0.664433	 -0.252229
H	 -1.306802	 1.408001	 0.044211
H	 -0.690821	 0.490158	 1.397609
C	 1.605391	 -0.489360	 0.123098
H	 0.615089	 0.745647	 -1.332226
H	 1.101414	 1.597893	 0.110950
H	 1.247627	 -1.432485	 -0.275204
H	 2.601435	 -0.332816	 -0.273062
H	 1.691776	 -0.589902	 1.200774

	symmetry c1
}
set optking {
	frozen_dihedral = ("
		1 2 3 4
	")
}

ee,wfn = optimize('scf', return_wfn=True)
oeprop( wfn, 'DIPOLE', 'QUADRUPOLE', 'MULLIKEN_CHARGES')
f=open( 'psi4out.xyz', 'w' )
f.write( "12  " )
f.write( str(ee) + "\n" )
f.write( MOL.save_string_xyz() )
f.close()
--------------------------------------------------------------------------

    Molecular point group: c1
  Charge       = 0
  Multiplicity = 1
  Basis Set: CC-PVTZ
  Basis Set:
  @DF-RHF Final Energy:  -193.18943347457386
    Total Energy =                       -193.1894334745737467
    Molecular point group: c1
  Basis Set: CC-PVTZ
  Basis Set:
  Basis Set: CC-PVTZ
  Basis Set:
  @DF-RHF Final Energy:  -193.18948898123008
    Total Energy =                       -193.1894889812301699
  Basis Set: CC-PVTZ
  Basis Set:
  Basis Set: CC-PVTZ
  Basis Set:
  @DF-RHF Final Energy:  -193.18952890544392
    Total Energy =                       -193.1895289054438649
  Basis Set: CC-PVTZ
  Basis Set:
  Basis Set: CC-PVTZ
  Basis Set:
  @DF-RHF Final Energy:  -193.18953033930251
    Total Energy =                       -193.1895303393026779
  Basis Set: CC-PVTZ
  Basis Set:
  Charge       = 0
  Multiplicity = 1
  Basis Set: CC-PVTZ
  Basis Set:

    Orbital Energies (a.u.)
    -----------------------

    Doubly Occupied:

       1A    -20.544425     2A    -11.265450     3A    -11.221868
       4A    -11.219881     5A     -1.363150     6A     -1.054943
       7A     -0.930858     8A     -0.816180     9A     -0.687980
      10A     -0.641506    11A     -0.614244    12A     -0.586422
      13A     -0.550335    14A     -0.510083    15A     -0.494840
      16A     -0.469488    17A     -0.433647

  @DF-RHF Final Energy:  -193.18953064656432

   => Energetics <=

    Nuclear Repulsion Energy =            133.2275916398527329
    One-Electron Energy =                -526.0236510192687547
    Two-Electron Energy =                 199.6065287328517002
    DFT Exchange-Correlation Energy =       0.0000000000000000
    Empirical Dispersion Energy =           0.0000000000000000
    PCM Polarization Energy =               0.0000000000000000
    EFP Energy =                            0.0000000000000000
    Total Energy =                       -193.1895306465643216
    Molecular point group: c1
  Basis Set: CC-PVTZ
  Basis Set:

  -Total Gradient:
     Atom            X                  Y                   Z
    ------   -----------------  -----------------  -----------------
       1        0.000478233464     0.000565684698    -0.001872885111
       2       -0.000386254751    -0.001046351259     0.002717503195
       3       -0.000529938530     0.001228485960    -0.001781621163
       4        0.000433800197    -0.000759345140     0.000930654034
       5        0.000010239220    -0.000000586971     0.000007115681
       6       -0.000001110228    -0.000001452922    -0.000011526904
       7        0.000003361962     0.000007146486    -0.000003702870
       8       -0.000002265317    -0.000001913431     0.000007393651
       9        0.000002263842    -0.000004953319     0.000003530048
      10       -0.000005664548     0.000014822253     0.000001198121
      11       -0.000000850117    -0.000000862724     0.000002145019
      12       -0.000001815196    -0.000000673631     0.000000196298

  **** Optimization is complete! (in 5 steps) ****
    Final optimized geometry and variables:
    Molecular point group: c1

    Geometry (in Angstrom), charge = 0, multiplicity = 1:

    H           -0.886644978725    -1.316029674817    -0.283378719977
    O           -1.446822071766    -0.567300514866    -0.200400222770
    C           -0.732706703978     0.525239068136     0.313184975157
    C            0.675546429624     0.660909878795    -0.246157025219
    H           -1.311063094951     1.405215217379     0.065833840308
    H           -0.686599411588     0.461232928662     1.399061359609
    C            1.615179099890    -0.478353941317     0.142041692315
    H            0.619033744297     0.740715846319    -1.327353734558
    H            1.086842158432     1.598096437533     0.116497835878
    H            1.288704527494    -1.434495849993    -0.254902343476
    H            2.611776945169    -0.303598587610    -0.244625879439
    H            1.689003080071    -0.575259341725     1.220008190599

  Mulliken Charges: (a.u.)
   Center  Symbol    Alpha    Beta     Spin     Total
       1     H     0.39213  0.39213  0.00000  0.21574
       2     O     4.20624  4.20624  0.00000 -0.41249
       3     C     2.96165  2.96165  0.00000  0.07669
       4     C     3.09562  3.09562  0.00000 -0.19125
       5     H     0.45481  0.45481  0.00000  0.09038
       6     H     0.47564  0.47564  0.00000  0.04872
       7     C     3.15018  3.15018  0.00000 -0.30037
       8     H     0.44944  0.44944  0.00000  0.10113
       9     H     0.45478  0.45478  0.00000  0.09043
      10     H     0.46328  0.46328  0.00000  0.07344
      11     H     0.44468  0.44468  0.00000  0.11064
      12     H     0.45153  0.45153  0.00000  0.09693

   Total alpha = 17.00000, Total beta = 17.00000, Total charge = -0.00000

*** Psi4 exiting successfully. Buy a developer a beer!
