  ==> Input File <==

--------------------------------------------------------------------------
set {
	reference rhf
	basis 6-31G*
}

set_num_threads( 1 )
memory 2 gb

molecule MOL {
0 1

H	 -3.161837	 0.500524	 -0.000234
C	 -2.367097	 -0.232926	 -0.000000
O	 -1.158440	 0.455814	 -0.000122
H	 -2.468853	 -0.861886	 -0.882833
H	 -2.468942	 -0.861421	 0.883154
C	 -0.029776	 -0.365156	 0.000148
C	 1.212217	 0.508981	 0.000007
H	 -0.036772	 -1.013236	 -0.877259
H	 -0.036869	 -1.012778	 0.877897
C	 1.926315	 0.509975	 1.350911
H	 1.881965	 0.155328	 -0.777829
H	 0.922155	 1.519270	 -0.271802
H	 2.246970	 -0.489724	 1.630564
H	 2.807870	 1.141557	 1.322420
H	 1.280047	 0.883291	 2.140453

	symmetry c1
}
set optking {
	frozen_dihedral = ("
		6 3 2 4,
		8 6 3 2
	")
}

ee = energy('scf')
oeprop('DIPOLE', 'QUADRUPOLE', 'MULLIKEN_CHARGES')
f=open( 'psi4out.xyz', 'w' )
f.write( "15  " )
f.write( str(ee) + "\n" )
f.write( MOL.save_string_xyz() )
f.close()
--------------------------------------------------------------------------

    Molecular point group: c1

    Geometry (in Angstrom), charge = 0, multiplicity = 1:

       Center              X                  Y                   Z               Mass
    ------------   -----------------  -----------------  -----------------  -----------------
           H         -3.044980240884     0.334447482827    -0.274112134160     1.007825032070
           C         -2.250240240884    -0.399002517173    -0.273878134160    12.000000000000
           O         -1.041583240884     0.289737482827    -0.274000134160    15.994914619560
           H         -2.351996240884    -1.027962517173    -1.156711134160     1.007825032070
           H         -2.352085240884    -1.027497517173     0.609275865840     1.007825032070
           C          0.087080759116    -0.531232517173    -0.273730134160    12.000000000000
           C          1.329073759116     0.342904482827    -0.273871134160    12.000000000000
           H          0.080084759116    -1.179312517173    -1.151137134160     1.007825032070
           H          0.079987759116    -1.178854517173     0.604018865840     1.007825032070
           C          2.043171759116     0.343898482827     1.077032865840    12.000000000000
           H          1.998821759116    -0.010748517173    -1.051707134160     1.007825032070
           H          1.039011759116     1.353193482827    -0.545680134160     1.007825032070
           H          2.363826759116    -0.655800517173     1.356685865840     1.007825032070
           H          2.924726759116     0.975480482827     1.048541865840     1.007825032070
           H          1.396903759116     0.717214482827     1.866574865840     1.007825032070

  Charge       = 0
  Multiplicity = 1
  Basis Set: 6-31G*
  Basis Set:

    Orbital Energies (a.u.)
    -----------------------

    Doubly Occupied:

       1A    -20.553333     2A    -11.264921     3A    -11.263451
       4A    -11.212520     5A    -11.208937     6A     -1.378354
       7A     -1.055743     8A     -0.952846     9A     -0.880533
      10A     -0.806469    11A     -0.668750    12A     -0.661100
      13A     -0.631739    14A     -0.586967    15A     -0.577192
      16A     -0.545907    17A     -0.490301    18A     -0.489631
      19A     -0.481178    20A     -0.461156    21A     -0.410781

  @DF-RHF Final Energy:  -232.13381136356534

   => Energetics <=

    Nuclear Repulsion Energy =            191.1380208052106866
    One-Electron Energy =                -693.3800381914921900
    Two-Electron Energy =                 270.1082060227157058
    DFT Exchange-Correlation Energy =       0.0000000000000000
    Empirical Dispersion Energy =           0.0000000000000000
    PCM Polarization Energy =               0.0000000000000000
    EFP Energy =                            0.0000000000000000
    Total Energy =                       -232.1338113635658260

  Mulliken Charges: (a.u.)
   Center  Symbol    Alpha    Beta     Spin     Total
       1     H     0.41243  0.41243  0.00000  0.17515
       2     C     3.07961  3.07961  0.00000 -0.15923
       3     O     4.30436  4.30436  0.00000 -0.60871
       4     H     0.43045  0.43045  0.00000  0.13911
       5     H     0.43054  0.43054  0.00000  0.13893
       6     C     2.98845  2.98845  0.00000  0.02311
       7     C     3.16436  3.16436  0.00000 -0.32872
       8     H     0.43124  0.43124  0.00000  0.13752
       9     H     0.43049  0.43049  0.00000  0.13902
      10     C     3.24492  3.24492  0.00000 -0.48983
      11     H     0.42102  0.42102  0.00000  0.15797
      12     H     0.40377  0.40377  0.00000  0.19247
      13     H     0.42310  0.42310  0.00000  0.15379
      14     H     0.41924  0.41924  0.00000  0.16152
      15     H     0.41604  0.41604  0.00000  0.16792

   Total alpha = 21.00000, Total beta = 21.00000, Total charge = -0.00000
