  ==> Input File <==

--------------------------------------------------------------------------
set {
	reference rhf
	basis 6-31G*
}

set_num_threads( 4 )
memory 2 gb

molecule MOL {
0 1

O	 -0.682937	 1.318834	 -0.186099
C	 -0.860635	 0.152188	 -0.042321
C	 -2.173363	 -0.477127	 0.338347
O	 0.083258	 -0.765189	 -0.202595
H	 -2.477673	 -1.180929	 -0.427595
H	 -2.923125	 0.290956	 0.455536
H	 -2.058825	 -1.029004	 1.264191
C	 1.391937	 -0.334737	 -0.569838
C	 1.464938	 0.031625	 -2.040585
H	 2.102520	 -1.108729	 -0.322556
H	 1.578493	 0.527671	 0.053820
H	 2.449455	 0.426337	 -2.272229
H	 1.291621	 -0.836797	 -2.663621
H	 0.728302	 0.790334	 -2.281710

	symmetry c1
}
set optking {
	frozen_dihedral = ("
		10 8 4 2
	")
}

ee = optimize('scf')
oeprop('DIPOLE', 'QUADRUPOLE', 'MULLIKEN_CHARGES')
f=open( 'psi4out.xyz', 'w' )
f.write( "14  " )
f.write( str(ee) + "\n" )
f.write( MOL.save_string_xyz() )
f.close()
--------------------------------------------------------------------------

    Molecular point group: c1
  Charge       = 0
  Multiplicity = 1
  Basis Set: 6-31G*
  Basis Set:
  @DF-RHF Final Energy:  -305.87337785911609
    Total Energy =                       -305.8733778591158625
    Molecular point group: c1
  Basis Set: 6-31G*
  Basis Set:
  Basis Set: 6-31G*
  Basis Set:
  @DF-RHF Final Energy:  -305.87503821400873
    Total Energy =                       -305.8750382140087254
  Basis Set: 6-31G*
  Basis Set:
  Basis Set: 6-31G*
  Basis Set:
  @DF-RHF Final Energy:  -305.87517541223201
    Total Energy =                       -305.8751754122317834
  Basis Set: 6-31G*
  Basis Set:
  Basis Set: 6-31G*
  Basis Set:
  @DF-RHF Final Energy:  -305.87526425027443
    Total Energy =                       -305.8752642502742560
  Basis Set: 6-31G*
  Basis Set:
  Basis Set: 6-31G*
  Basis Set:
  @DF-RHF Final Energy:  -305.87544600194985
    Total Energy =                       -305.8754460019499675
  Basis Set: 6-31G*
  Basis Set:
  Basis Set: 6-31G*
  Basis Set:
  @DF-RHF Final Energy:  -305.87544947780555
    Total Energy =                       -305.8754494778056028
  Basis Set: 6-31G*
  Basis Set:
  Charge       = 0
  Multiplicity = 1
  Basis Set: 6-31G*
  Basis Set:

    Orbital Energies (a.u.)
    -----------------------

    Doubly Occupied:

       1A    -20.601979     2A    -20.544714     3A    -11.375926
       4A    -11.285626     5A    -11.233401     6A    -11.217915
       7A     -1.467752     8A     -1.362893     9A     -1.054895
      10A     -0.998640    11A     -0.883212    12A     -0.764207
      13A     -0.699403    14A     -0.681883    15A     -0.657505
      16A     -0.610473    17A     -0.587291    18A     -0.570211
      19A     -0.558232    20A     -0.529147    21A     -0.515878
      22A     -0.494549    23A     -0.450863    24A     -0.438577

  @DF-RHF Final Energy:  -305.87544977797376

   => Energetics <=

    Nuclear Repulsion Energy =            249.0579448533516711
    One-Electron Energy =                -910.6964452584918490
    Two-Electron Energy =                 355.7630506271662512
    DFT Exchange-Correlation Energy =       0.0000000000000000
    Empirical Dispersion Energy =           0.0000000000000000
    PCM Polarization Energy =               0.0000000000000000
    EFP Energy =                            0.0000000000000000
    Total Energy =                       -305.8754497779738699
    Molecular point group: c1
  Basis Set: 6-31G*
  Basis Set:

  -Total Gradient:
     Atom            X                  Y                   Z
    ------   -----------------  -----------------  -----------------
       1        0.000017674651    -0.000004147233     0.000009115656
       2       -0.000167137304    -0.000055339797    -0.000647561302
       3       -0.000012613958     0.000000762650    -0.000024786524
       4        0.000223226915     0.000020589804     0.000806616312
       5        0.000001722466    -0.000006047837     0.000010034285
       6        0.000000447923    -0.000001260931     0.000002814663
       7        0.000000941959     0.000005706123     0.000010057910
       8        0.000042910592     0.000348643669     0.000490374176
       9       -0.000008618904     0.000015748396     0.000007930632
      10       -0.000092374619    -0.000297305528    -0.000670536801
      11       -0.000013019876    -0.000006617908     0.000008353750
      12        0.000002774978    -0.000001562589    -0.000000819376
      13       -0.000001514975    -0.000008006383    -0.000007502087
      14        0.000005580152    -0.000011162444     0.000005908705

  **** Optimization is complete! (in 7 steps) ****
    Final optimized geometry and variables:
    Molecular point group: c1

    Geometry (in Angstrom), charge = 0, multiplicity = 1:

    O           -0.585052543454     1.329263821983     0.309881112706
    C           -0.743661956798     0.156323625683     0.421386543984
    C           -2.045357476890    -0.504562917955     0.786180317257
    O            0.217246540023    -0.739857253283     0.244118524370
    H           -2.340604180863    -1.189560351942    -0.000204746529
    H           -2.806812531582     0.247815175065     0.927451825990
    H           -1.920049251992    -1.082304401036     1.694604492072
    C            1.516452153671    -0.278178836183    -0.118943042044
    C            1.611323601947     0.027560515601    -1.602742658069
    H            2.173922061147    -1.093899722770     0.144940211764
    H            1.765740696536     0.586379091674     0.477908478881
    H            2.632710151828     0.294866016797    -1.856002061005
    H            1.332237862195    -0.841628518773    -2.188682007968
    H            0.966689886674     0.854517746084    -1.870867523728

  Mulliken Charges: (a.u.)
   Center  Symbol    Alpha    Beta     Spin     Total
       1     O     4.28458  4.28458  0.00000 -0.56917
       2     C     2.61988  2.61988  0.00000  0.76024
       3     C     3.28154  3.28154  0.00000 -0.56308
       4     O     4.30724  4.30724  0.00000 -0.61449
       5     H     0.40053  0.40053  0.00000  0.19894
       6     H     0.39706  0.39706  0.00000  0.20587
       7     H     0.40012  0.40012  0.00000  0.19976
       8     C     3.00575  3.00575  0.00000 -0.01149
       9     C     3.25624  3.25624  0.00000 -0.51248
      10     H     0.40986  0.40986  0.00000  0.18028
      11     H     0.40400  0.40400  0.00000  0.19201
      12     H     0.41762  0.41762  0.00000  0.16476
      13     H     0.41478  0.41478  0.00000  0.17045
      14     H     0.40080  0.40080  0.00000  0.19840

   Total alpha = 24.00000, Total beta = 24.00000, Total charge =  0.00000
