                              Psi4 1.0.54 Driver

  ==> Input File <==

--------------------------------------------------------------------------
set {
	reference rhf
	basis cc-pvtz
}

set_num_threads( 4 )
memory 2 gb

molecule MOL {
0 1

O	 0.074770	 1.259872	 0.000487
C	 0.029490	 0.077183	 0.000078
C	 -1.232113	 -0.748027	 0.000015
O	 1.106773	 -0.690081	 -0.000204
C	 -2.501422	 0.088592	 -0.000052
H	 -1.188777	 -1.400384	 -0.865133
H	 -1.188857	 -1.400312	 0.865225
H	 -2.548170	 0.725504	 -0.873205
H	 -3.371613	 -0.556398	 -0.000040
H	 -2.548215	 0.725571	 0.873047
C	 2.193233	 -0.282874	 -0.807315
H	 1.899847	 -0.234742	 -1.845508
H	 2.960625	 -1.027521	 -0.671536
H	 2.555366	 0.686421	 -0.498168

	symmetry c1
}
set optking {
	frozen_dihedral = ("
		11 4 2 3
	")
}

ee,wfn = optimize('scf', return_wfn=True)
oeprop( wfn, 'DIPOLE', 'QUADRUPOLE', 'MULLIKEN_CHARGES')
f=open( 'psi4out.xyz', 'w' )
f.write( "14  " )
f.write( str(ee) + "\n" )
f.write( MOL.save_string_xyz() )
f.close()
--------------------------------------------------------------------------

    Molecular point group: c1
  Charge       = 0
  Multiplicity = 1
  Basis Set: CC-PVTZ
  Basis Set:
  @DF-RHF Final Energy:  -305.97952992472824
    Total Energy =                       -305.9795299247285811
    Molecular point group: c1
  Basis Set: CC-PVTZ
  Basis Set:
  Basis Set: CC-PVTZ
  Basis Set:
  @DF-RHF Final Energy:  -305.97721179123715
    Total Energy =                       -305.9772117912372096
  Basis Set: CC-PVTZ
  Basis Set:
  Basis Set: CC-PVTZ
  Basis Set:
  @DF-RHF Final Energy:  -305.98012317074165
    Total Energy =                       -305.9801231707417628
  Basis Set: CC-PVTZ
  Basis Set:
  Basis Set: CC-PVTZ
  Basis Set:
  @DF-RHF Final Energy:  -305.98026354406977
    Total Energy =                       -305.9802635440697713
  Basis Set: CC-PVTZ
  Basis Set:
  Basis Set: CC-PVTZ
  Basis Set:
  @DF-RHF Final Energy:  -305.98029911118340
    Total Energy =                       -305.9802991111835127
  Basis Set: CC-PVTZ
  Basis Set:
  Basis Set: CC-PVTZ
  Basis Set:
  @DF-RHF Final Energy:  -305.98030340192719
    Total Energy =                       -305.9803034019273014
  Basis Set: CC-PVTZ
  Basis Set:
  Charge       = 0
  Multiplicity = 1
  Basis Set: CC-PVTZ
  Basis Set:

    Orbital Energies (a.u.)
    -----------------------

    Doubly Occupied:

       1A    -20.589819     2A    -20.538601     3A    -11.366672
       4A    -11.282064     5A    -11.238742     6A    -11.215778
       7A     -1.468637     8A     -1.367650     9A     -1.064990
      10A     -0.979389    11A     -0.883326    12A     -0.769272
      13A     -0.702445    14A     -0.681740    15A     -0.675927
      16A     -0.621769    17A     -0.607312    18A     -0.553732
      19A     -0.540810    20A     -0.522011    21A     -0.512316
      22A     -0.498170    23A     -0.459990    24A     -0.440722

  @DF-RHF Final Energy:  -305.98030380633338

   => Energetics <=

    Nuclear Repulsion Energy =            247.2490066212878048
    One-Electron Energy =                -907.2948550648693526
    Two-Electron Energy =                 354.0655446372487063
    DFT Exchange-Correlation Energy =       0.0000000000000000
    Empirical Dispersion Energy =           0.0000000000000000
    PCM Polarization Energy =               0.0000000000000000
    EFP Energy =                            0.0000000000000000
    Total Energy =                       -305.9803038063328700
    Molecular point group: c1
  Basis Set: CC-PVTZ
  Basis Set:

  -Total Gradient:
     Atom            X                  Y                   Z
    ------   -----------------  -----------------  -----------------
       1       -0.000004888728    -0.000109722143     0.000061470590
       2       -0.001736058016    -0.000792745995     0.006998586598
       3        0.000328372445    -0.001057860859    -0.006808721540
       4        0.003929120934     0.006907721572     0.005100875297
       5        0.000000848863    -0.000003240951     0.000005979267
       6       -0.000001995341     0.000008373118     0.000009699347
       7       -0.000003345204     0.000026659711    -0.000028957195
       8        0.000010837710    -0.000013633038     0.000009255431
       9        0.000004651239     0.000006708072     0.000000311652
      10       -0.000009642123    -0.000001266632    -0.000004945998
      11       -0.002531181280    -0.004999614923    -0.005356065721
      12        0.000017520508     0.000010946669     0.000013065117
      13       -0.000007094880     0.000020533378     0.000000218890
      14        0.000002853873    -0.000002857976    -0.000000771734

  **** Optimization is complete! (in 7 steps) ****
    Final optimized geometry and variables:
    Molecular point group: c1

    Geometry (in Angstrom), charge = 0, multiplicity = 1:

    O            0.075072089250     1.292865826006    -0.155024840846
    C            0.048058786845     0.140420727393     0.102574104252
    C           -1.198849964398    -0.701788598097     0.169664757429
    O            1.148302813808    -0.592100711622     0.268337383262
    C           -2.484364465453     0.107658842104     0.222955307205
    H           -1.168003597846    -1.330991597825    -0.715052585207
    H           -1.112660790591    -1.374963662514     1.014197456259
    H           -2.568240828282     0.760546672186    -0.634680908169
    H           -3.341733234171    -0.554041131516     0.237314993969
    H           -2.518228821147     0.725490174262     1.111232764962
    C            2.262060693083    -0.277563839310    -0.543427017420
    H            1.988426806760    -0.329288911209    -1.589034743520
    H            3.012664319539    -1.019777725944    -0.325787442981
    H            2.641134988082     0.708516043805    -0.322241547919

  Mulliken Charges: (a.u.)
   Center  Symbol    Alpha    Beta     Spin     Total
       1     O     4.18775  4.18775  0.00000 -0.37550
       2     C     2.80113  2.80113  0.00000  0.39774
       3     C     3.09288  3.09288  0.00000 -0.18575
       4     O     4.15593  4.15593  0.00000 -0.31187
       5     C     3.14098  3.14098  0.00000 -0.28196
       6     H     0.44583  0.44583  0.00000  0.10833
       7     H     0.43873  0.43873  0.00000  0.12255
       8     H     0.44579  0.44579  0.00000  0.10842
       9     H     0.45028  0.45028  0.00000  0.09945
      10     H     0.45002  0.45002  0.00000  0.09996
      11     C     3.03523  3.03523  0.00000 -0.07047
      12     H     0.46259  0.46259  0.00000  0.07482
      13     H     0.44549  0.44549  0.00000  0.10903
      14     H     0.44737  0.44737  0.00000  0.10525

   Total alpha = 24.00000, Total beta = 24.00000, Total charge =  0.00000

*** Psi4 exiting successfully. Buy a developer a beer!
