  ==> Input File <==

--------------------------------------------------------------------------
set {
	reference rhf
	basis 6-31G*
}

set_num_threads( 4 )
memory 2 gb

molecule MOL {
0 1

H	 -1.002570	 -1.802524	 -4.831077
O	 -1.274316	 -2.667577	 -5.101092
C	 -0.660580	 -3.632923	 -4.285317
C	 -1.240768	 -3.685998	 -2.876313
H	 -0.819082	 -4.581620	 -4.781831
H	 0.415189	 -3.466785	 -4.241760
C	 -1.027720	 -2.404496	 -2.066850
H	 -2.304075	 -3.899206	 -2.949033
H	 -0.784125	 -4.524431	 -2.352982
C	 -1.573182	 -2.508910	 -0.639830
H	 -1.507326	 -1.574890	 -2.578805
H	 0.037118	 -2.174688	 -2.026252
C	 -1.309753	 -1.282496	 0.241564
H	 -2.643966	 -2.700569	 -0.679008
H	 -1.127359	 -3.378582	 -0.161696
C	 -2.037799	 -0.007733	 -0.193645
H	 -1.609590	 -1.522545	 1.259548
H	 -0.238467	 -1.090886	 0.279898
C	 -3.489788	 0.042957	 0.286558
H	 -2.017067	 0.064384	 -1.280144
H	 -1.513726	 0.868678	 0.179924
C	 -4.216917	 1.317354	 -0.141063
H	 -4.025645	 -0.823308	 -0.095450
H	 -3.513059	 -0.038752	 1.371301
H	 -4.239342	 1.411634	 -1.223113
H	 -5.243387	 1.322503	 0.212445
H	 -3.726170	 2.201406	 0.256408

	symmetry c1
}
set optking {
	frozen_dihedral = ("
		10 13 16 20
	")
}

ee = optimize('scf')
oeprop('DIPOLE', 'QUADRUPOLE', 'MULLIKEN_CHARGES')
f=open( 'psi4out.xyz', 'w' )
f.write( "27  " )
f.write( str(ee) + "\n" )
f.write( MOL.save_string_xyz() )
f.close()
--------------------------------------------------------------------------

    Molecular point group: c1
  Charge       = 0
  Multiplicity = 1
  Basis Set: 6-31G*
  Basis Set:
  @DF-RHF Final Energy:  -388.27880966756413
    Total Energy =                       -388.2788096675642464
    Molecular point group: c1
  Basis Set: 6-31G*
  Basis Set:
  Basis Set: 6-31G*
  Basis Set:
  @DF-RHF Final Energy:  -388.27898593057063
    Total Energy =                       -388.2789859305705704
  Basis Set: 6-31G*
  Basis Set:
  Basis Set: 6-31G*
  Basis Set:
  @DF-RHF Final Energy:  -388.27921837554248
    Total Energy =                       -388.2792183755419728
  Basis Set: 6-31G*
  Basis Set:
  Basis Set: 6-31G*
  Basis Set:
  @DF-RHF Final Energy:  -388.27925650571564
    Total Energy =                       -388.2792565057148977
  Basis Set: 6-31G*
  Basis Set:
  Basis Set: 6-31G*
  Basis Set:
  @DF-RHF Final Energy:  -388.27925821457541
    Total Energy =                       -388.2792582145755205
  Basis Set: 6-31G*
  Basis Set:
  Basis Set: 6-31G*
  Basis Set:
  @DF-RHF Final Energy:  -388.27926096732898
    Total Energy =                       -388.2792609673286961
  Basis Set: 6-31G*
  Basis Set:
  Charge       = 0
  Multiplicity = 1
  Basis Set: 6-31G*
  Basis Set:

    Orbital Energies (a.u.)
    -----------------------

    Doubly Occupied:

       1A    -20.552529     2A    -11.267251     3A    -11.219963
       4A    -11.217269     5A    -11.215738     6A    -11.215420
       7A    -11.215221     8A    -11.214159     9A    -11.208691
      10A     -1.359263    11A     -1.094915    12A     -1.060513
      13A     -1.010107    14A     -0.948693    15A     -0.886703
      16A     -0.826838    17A     -0.802757    18A     -0.770548
      19A     -0.694007    20A     -0.653655    21A     -0.632082
      22A     -0.611825    23A     -0.604185    24A     -0.589320
      25A     -0.575493    26A     -0.562539    27A     -0.532970
      28A     -0.527562    29A     -0.507914    30A     -0.492527
      31A     -0.487596    32A     -0.481709    33A     -0.467583
      34A     -0.452041    35A     -0.447142    36A     -0.445795
      37A     -0.423842

  @DF-RHF Final Energy:  -388.27926086619544

   => Energetics <=

    Nuclear Repulsion Energy =            464.1639393550529462
    One-Electron Energy =               -1446.3336625628612637
    Two-Electron Energy =                 593.8904623416126469
    DFT Exchange-Correlation Energy =       0.0000000000000000
    Empirical Dispersion Energy =           0.0000000000000000
    PCM Polarization Energy =               0.0000000000000000
    EFP Energy =                            0.0000000000000000
    Total Energy =                       -388.2792608661957274
    Molecular point group: c1
  Basis Set: 6-31G*
  Basis Set:

  -Total Gradient:
     Atom            X                  Y                   Z
    ------   -----------------  -----------------  -----------------
       1       -0.000002623041     0.000011884327     0.000011000044
       2        0.000006529462     0.000014893309     0.000005468904
       3       -0.000042413046    -0.000014104003    -0.000002775393
       4        0.000015942969     0.000001947434    -0.000016449974
       5       -0.000000568719    -0.000004160727     0.000001667245
       6       -0.000004085738    -0.000000716360     0.000007133200
       7        0.000016449776    -0.000007150063    -0.000020247509
       8        0.000000290749    -0.000014921299    -0.000003332896
       9        0.000011283562     0.000001985751    -0.000002598343
      10        0.001151476879     0.000431609312    -0.000962147613
      11        0.000016134393    -0.000021014466    -0.000021233185
      12        0.000013800052    -0.000006090309     0.000012501751
      13       -0.002091919094    -0.000866994128     0.001382469061
      14       -0.000000961444     0.000006571219     0.000010405613
      15        0.000004357849     0.000013437553     0.000005834518
      16        0.002734313138     0.001577528549    -0.000409248739
      17        0.000000260005    -0.000017542161     0.000014376214
      18       -0.000010593624    -0.000013056616    -0.000003024412
      19        0.000000991442    -0.000001054738    -0.000011368813
      20       -0.001811993923    -0.001100661157     0.000020601701
      21       -0.000005625251     0.000013806747    -0.000018243657
      22        0.000001203022     0.000000960689     0.000010622905
      23       -0.000003335163    -0.000000916056    -0.000006937476
      24       -0.000000119167    -0.000003226819    -0.000004340375
      25       -0.000003209357    -0.000003586058    -0.000000004420
      26        0.000001641334     0.000003174035     0.000003086538
      27        0.000002772933    -0.000002603966    -0.000003214890

  **** Optimization is complete! (in 7 steps) ****
    Final optimized geometry and variables:
    Molecular point group: c1

    Geometry (in Angstrom), charge = 0, multiplicity = 1:

    H            1.089310684909    -0.185477924278    -3.132303773695
    O            0.741471796711    -1.018297281528    -3.416095607473
    C            1.222362438951    -2.041092041533    -2.581353352609
    C            0.579738575030    -2.039548704489    -1.198738789578
    H            0.993110307811    -2.968592591127    -3.090109860682
    H            2.306328299278    -1.981324231002    -2.491177999709
    C            0.875743684376    -0.782387565865    -0.377382927181
    H           -0.494613906987    -2.153355147935    -1.317559406649
    H            0.933821249998    -2.916385841702    -0.659105914680
    C            0.272728910905    -0.837668201162     1.029232222776
    H            0.493786421636     0.086913406370    -0.905581367046
    H            1.954335905894    -0.648899881852    -0.295466092298
    C            0.558368189421     0.401771981288     1.889216487483
    H           -0.800411613034    -0.999451375262     0.954080241567
    H            0.672053495772    -1.711835930161     1.538947960386
    C           -0.222574781785     1.666636407901     1.497367822564
    H            0.346385674320     0.168865519133     2.930149675178
    H            1.625407932217     0.609546908714     1.842226249973
    C           -1.647093175644     1.705705148614     2.060352293332
    H           -0.277522755140     1.752483625842     0.415024702990
    H            0.314282478515     2.544413889234     1.849007753613
    C           -2.418534351150     2.955447528064     1.637482981726
    H           -2.195140503951     0.822611770723     1.740878798704
    H           -1.602423669258     1.660023385949     3.146395387418
    H           -2.516724254351     3.009278656835     0.556846840691
    H           -3.418334611222     2.963160126760     2.060516329541
    H           -1.912825231727     3.858628482597     1.967628096906

  Mulliken Charges: (a.u.)
   Center  Symbol    Alpha    Beta     Spin     Total
       1     H     0.27979  0.27979  0.00000  0.44042
       2     O     4.37096  4.37096  0.00000 -0.74192
       3     C     2.99756  2.99756  0.00000  0.00488
       4     C     3.16075  3.16075  0.00000 -0.32150
       5     H     0.41440  0.41440  0.00000  0.17119
       6     H     0.43191  0.43191  0.00000  0.13617
       7     C     3.16259  3.16259  0.00000 -0.32517
       8     H     0.41514  0.41514  0.00000  0.16972
       9     H     0.42424  0.42424  0.00000  0.15151
      10     C     3.15378  3.15378  0.00000 -0.30756
      11     H     0.42358  0.42358  0.00000  0.15283
      12     H     0.42520  0.42520  0.00000  0.14960
      13     C     3.15699  3.15699  0.00000 -0.31398
      14     H     0.42063  0.42063  0.00000  0.15874
      15     H     0.42118  0.42118  0.00000  0.15764
      16     C     3.15434  3.15434  0.00000 -0.30867
      17     H     0.42033  0.42033  0.00000  0.15934
      18     H     0.42242  0.42242  0.00000  0.15516
      19     C     3.15251  3.15251  0.00000 -0.30502
      20     H     0.42310  0.42310  0.00000  0.15379
      21     H     0.42132  0.42132  0.00000  0.15736
      22     C     3.23935  3.23935  0.00000 -0.47870
      23     H     0.42195  0.42195  0.00000  0.15611
      24     H     0.42313  0.42313  0.00000  0.15374
      25     H     0.42168  0.42168  0.00000  0.15665
      26     H     0.41914  0.41914  0.00000  0.16172
      27     H     0.42203  0.42203  0.00000  0.15595

   Total alpha = 37.00000, Total beta = 37.00000, Total charge = -0.00000
