  ==> Input File <==

--------------------------------------------------------------------------
set {
	reference rhf
	basis 6-31G*
}

set_num_threads( 1 )
memory 2 gb

molecule MOL {
0 1

O	 0.041880	 -0.087557	 2.426465
C	 0.867907	 -0.547703	 1.706045
C	 1.245376	 -0.013843	 0.345420
O	 1.584289	 -1.621278	 2.015662
C	 0.455112	 1.231400	 -0.050772
H	 2.314421	 0.170763	 0.361331
H	 1.093583	 -0.817674	 -0.370481
C	 -0.998893	 1.219485	 0.433193
H	 0.482531	 1.345121	 -1.130325
H	 0.957290	 2.103070	 0.354729
C	 -1.883438	 0.145884	 -0.207175
H	 -1.431207	 2.195402	 0.224832
H	 -1.019646	 1.105716	 1.516076
C	 -3.347647	 0.245583	 0.225435
H	 -1.822183	 0.231698	 -1.291012
H	 -1.510341	 -0.844814	 0.042401
C	 -4.239992	 -0.825570	 -0.404234
H	 -3.732888	 1.230466	 -0.033079
H	 -3.408585	 0.170602	 1.310038
C	 -5.701275	 -0.716658	 0.029921
H	 -4.179496	 -0.752714	 -1.488058
H	 -3.859041	 -1.810759	 -0.143352
H	 -6.308102	 -1.488908	 -0.432678
H	 -6.122175	 0.245478	 -0.248167
H	 -5.799072	 -0.820114	 1.106957
C	 1.327565	 -2.225069	 3.270418
H	 1.521821	 -1.529240	 4.073905
H	 1.998196	 -3.067721	 3.335216
H	 0.301267	 -2.557917	 3.329257

	symmetry c1
}
set optking {
	frozen_dihedral = ("
		21 17 14 11,
		17 14 11 15,
		15 11 8 5,
		11 8 5 9,
		2 4 26 27,
		1 2 4 26,
		6 3 2 1
	")
}

ee = energy('scf')
oeprop('DIPOLE', 'QUADRUPOLE', 'MULLIKEN_CHARGES')
f=open( 'psi4out.xyz', 'w' )
f.write( "29  " )
f.write( str(ee) + "\n" )
f.write( MOL.save_string_xyz() )
f.close()
--------------------------------------------------------------------------

    Molecular point group: c1

    Geometry (in Angstrom), charge = 0, multiplicity = 1:

       Center              X                  Y                   Z               Mass
    ------------   -----------------  -----------------  -----------------  -----------------
           O          1.003461024155     0.229271989027     1.504250887327    15.994914619560
           C          1.829488024155    -0.230874010973     0.783830887327    12.000000000000
           C          2.206957024155     0.302985989027    -0.576794112673    12.000000000000
           O          2.545870024155    -1.304449010973     1.093447887327    15.994914619560
           C          1.416693024155     1.548228989027    -0.972986112673    12.000000000000
           H          3.276002024155     0.487591989027    -0.560883112673     1.007825032070
           H          2.055164024155    -0.500845010973    -1.292695112673     1.007825032070
           C         -0.037311975845     1.536313989027    -0.489021112673    12.000000000000
           H          1.444112024155     1.661949989027    -2.052539112673     1.007825032070
           H          1.918871024155     2.419898989027    -0.567485112673     1.007825032070
           C         -0.921856975845     0.462712989027    -1.129389112673    12.000000000000
           H         -0.469625975845     2.512230989027    -0.697382112673     1.007825032070
           H         -0.058064975845     1.422544989027     0.593861887327     1.007825032070
           C         -2.386065975845     0.562411989027    -0.696779112673    12.000000000000
           H         -0.860601975845     0.548526989027    -2.213226112673     1.007825032070
           H         -0.548759975845    -0.527985010973    -0.879813112673     1.007825032070
           C         -3.278410975845    -0.508741010973    -1.326448112673    12.000000000000
           H         -2.771306975845     1.547294989027    -0.955293112673     1.007825032070
           H         -2.447003975845     0.487430989027     0.387823887327     1.007825032070
           C         -4.739693975845    -0.399829010973    -0.892293112673    12.000000000000
           H         -3.217914975845    -0.435885010973    -2.410272112673     1.007825032070
           H         -2.897459975845    -1.493930010973    -1.065566112673     1.007825032070
           H         -5.346520975845    -1.172079010973    -1.354892112673     1.007825032070
           H         -5.160593975845     0.562306989027    -1.170381112673     1.007825032070
           H         -4.837490975845    -0.503285010973     0.184742887327     1.007825032070
           C          2.289146024155    -1.908240010973     2.348203887327    12.000000000000
           H          2.483402024155    -1.212411010973     3.151690887327     1.007825032070
           H          2.959777024155    -2.750892010973     2.413001887327     1.007825032070
           H          1.262848024155    -2.241088010973     2.407042887327     1.007825032070

  Charge       = 0
  Multiplicity = 1
  Basis Set: 6-31G*
  Basis Set:

    Orbital Energies (a.u.)
    -----------------------

    Doubly Occupied:

       1A    -20.607124     2A    -20.547770     3A    -11.377397
       4A    -11.283343     5A    -11.235983     6A    -11.217643
       7A    -11.208617     8A    -11.204719     9A    -11.204125
      10A    -11.203266    11A    -11.190039    12A     -1.474305
      13A     -1.370164    14A     -1.090302    15A     -1.062109
      16A     -1.013655    17A     -0.975551    18A     -0.921931
      19A     -0.857712    20A     -0.794474    21A     -0.780459
      22A     -0.772615    23A     -0.698590    24A     -0.685508
      25A     -0.672515    26A     -0.644943    27A     -0.626136
      28A     -0.616383    29A     -0.580954    30A     -0.573592
      31A     -0.560400    32A     -0.542909    33A     -0.536072
      34A     -0.524027    35A     -0.516192    36A     -0.504330
      37A     -0.497056    38A     -0.482212    39A     -0.467290
      40A     -0.461078    41A     -0.455615    42A     -0.448122
      43A     -0.427911    44A     -0.407593

  @DF-RHF Final Energy:  -501.02580625268070

   => Energetics <=

    Nuclear Repulsion Energy =            644.5594665363259992
    One-Electron Energy =               -1960.5250239755864641
    Two-Electron Energy =                 814.9397511865795423
    DFT Exchange-Correlation Energy =       0.0000000000000000
    Empirical Dispersion Energy =           0.0000000000000000
    PCM Polarization Energy =               0.0000000000000000
    EFP Energy =                            0.0000000000000000
    Total Energy =                       -501.0258062526809226

  Mulliken Charges: (a.u.)
   Center  Symbol    Alpha    Beta     Spin     Total
       1     O     4.28980  4.28980  0.00000 -0.57961
       2     C     2.60110  2.60110  0.00000  0.79780
       3     C     3.21186  3.21186  0.00000 -0.42371
       4     O     4.30679  4.30679  0.00000 -0.61359
       5     C     3.15613  3.15613  0.00000 -0.31226
       6     H     0.39688  0.39688  0.00000  0.20623
       7     H     0.39801  0.39801  0.00000  0.20398
       8     C     3.17578  3.17578  0.00000 -0.35156
       9     H     0.41800  0.41800  0.00000  0.16401
      10     H     0.41602  0.41602  0.00000  0.16796
      11     C     3.15009  3.15009  0.00000 -0.30018
      12     H     0.42829  0.42829  0.00000  0.14341
      13     H     0.37472  0.37472  0.00000  0.25056
      14     C     3.15006  3.15006  0.00000 -0.30012
      15     H     0.42871  0.42871  0.00000  0.14258
      16     H     0.43001  0.43001  0.00000  0.13997
      17     C     3.15087  3.15087  0.00000 -0.30174
      18     H     0.42482  0.42482  0.00000  0.15036
      19     H     0.42037  0.42037  0.00000  0.15926
      20     C     3.23901  3.23901  0.00000 -0.47803
      21     H     0.42457  0.42457  0.00000  0.15085
      22     H     0.42463  0.42463  0.00000  0.15073
      23     H     0.42087  0.42087  0.00000  0.15827
      24     H     0.42227  0.42227  0.00000  0.15546
      25     H     0.42180  0.42180  0.00000  0.15641
      26     C     3.09284  3.09284  0.00000 -0.18568
      27     H     0.40884  0.40884  0.00000  0.18232
      28     H     0.40770  0.40770  0.00000  0.18460
      29     H     0.40914  0.40914  0.00000  0.18171

   Total alpha = 44.00000, Total beta = 44.00000, Total charge =  0.00000
