                              Psi4 1.0.54 Driver

  ==> Input File <==

--------------------------------------------------------------------------
set {
	reference rhf
	basis cc-pvtz
}

set_num_threads( 4 )
memory 2 gb

molecule MOL {
0 1

H	 1.218048	 2.169615	 3.076594
O	 2.144808	 2.033972	 3.009167
C	 2.447403	 0.670672	 3.147448
C	 2.053069	 -0.163805	 1.937971
H	 3.518471	 0.618741	 3.289208
H	 1.983684	 0.268296	 4.046062
C	 0.548086	 -0.236432	 1.689780
H	 2.549166	 0.242317	 1.061552
H	 2.442403	 -1.168539	 2.084008
C	 0.188621	 -1.108944	 0.487971
H	 0.160990	 0.765551	 1.537500
H	 0.055401	 -0.630872	 2.576891
C	 -1.311023	 -1.277304	 0.237018
H	 0.657817	 -0.699549	 -0.403364
H	 0.624842	 -2.093318	 0.633531
C	 -2.041121	 -0.006551	 -0.194127
H	 -1.445079	 -2.031016	 -0.534004
H	 -1.781833	 -1.676129	 1.132804
C	 -3.489218	 0.042606	 0.286507
H	 -2.022185	 0.066287	 -1.279394
H	 -1.518764	 0.869305	 0.178730
C	 -4.219984	 1.311773	 -0.139038
H	 -4.022855	 -0.824300	 -0.093339
H	 -3.510372	 -0.038577	 1.370031
H	 -4.244251	 1.405725	 -1.219696
H	 -5.244345	 1.313233	 0.215630
H	 -3.732090	 2.196311	 0.257073

	symmetry c1
}
set optking {
	frozen_dihedral = ("
		10 13 16 20
	")
}

ee,wfn = optimize('scf', return_wfn=True)
oeprop( wfn, 'DIPOLE', 'QUADRUPOLE', 'MULLIKEN_CHARGES')
f=open( 'psi4out.xyz', 'w' )
f.write( "27  " )
f.write( str(ee) + "\n" )
f.write( MOL.save_string_xyz() )
f.close()
--------------------------------------------------------------------------

    Molecular point group: c1
  Charge       = 0
  Multiplicity = 1
  Basis Set: CC-PVTZ
  Basis Set:
  @DF-RHF Final Energy:  -388.42437855319298
    Total Energy =                       -388.4243785531929234
    Molecular point group: c1
  Basis Set: CC-PVTZ
  Basis Set:
  Basis Set: CC-PVTZ
  Basis Set:
  @DF-RHF Final Energy:  -388.41850246263073
    Total Energy =                       -388.4185024626311815
  Basis Set: CC-PVTZ
  Basis Set:
  Basis Set: CC-PVTZ
  Basis Set:
  @DF-RHF Final Energy:  -388.42468774060211
    Total Energy =                       -388.4246877406019394
  Basis Set: CC-PVTZ
  Basis Set:
  Basis Set: CC-PVTZ
  Basis Set:
  @DF-RHF Final Energy:  -388.42488558378727
    Total Energy =                       -388.4248855837873862
  Basis Set: CC-PVTZ
  Basis Set:
  Basis Set: CC-PVTZ
  Basis Set:
  @DF-RHF Final Energy:  -388.42489423703279
    Total Energy =                       -388.4248942370326176
  Basis Set: CC-PVTZ
  Basis Set:
  Basis Set: CC-PVTZ
  Basis Set:
  @DF-RHF Final Energy:  -388.42492559863217
    Total Energy =                       -388.4249255986323988
  Basis Set: CC-PVTZ
  Basis Set:
  Charge       = 0
  Multiplicity = 1
  Basis Set: CC-PVTZ
  Basis Set:

    Orbital Energies (a.u.)
    -----------------------

    Doubly Occupied:

       1A    -20.545649     2A    -11.265234     3A    -11.217114
       4A    -11.214805     5A    -11.214045     6A    -11.213450
       7A    -11.212978     8A    -11.211608     9A    -11.207082
      10A     -1.363520    11A     -1.095667    12A     -1.062269
      13A     -1.012269    14A     -0.949137    15A     -0.888267
      16A     -0.821345    17A     -0.799054    18A     -0.781413
      19A     -0.696891    20A     -0.648201    21A     -0.644072
      22A     -0.614612    23A     -0.601024    24A     -0.585346
      25A     -0.579989    26A     -0.553792    27A     -0.545965
      28A     -0.526627    29A     -0.506637    30A     -0.494439
      31A     -0.485789    32A     -0.477374    33A     -0.469138
      34A     -0.459119    35A     -0.451632    36A     -0.441567
      37A     -0.426387

  @DF-RHF Final Energy:  -388.42492569026064

   => Energetics <=

    Nuclear Repulsion Energy =            462.2049304680044202
    One-Electron Energy =               -1442.6927008636459959
    Two-Electron Energy =                 592.0628447053811669
    DFT Exchange-Correlation Energy =       0.0000000000000000
    Empirical Dispersion Energy =           0.0000000000000000
    PCM Polarization Energy =               0.0000000000000000
    EFP Energy =                            0.0000000000000000
    Total Energy =                       -388.4249256902603520
    Molecular point group: c1
  Basis Set: CC-PVTZ
  Basis Set:

  -Total Gradient:
     Atom            X                  Y                   Z
    ------   -----------------  -----------------  -----------------
       1        0.000006951421    -0.000004675653     0.000000628843
       2        0.000007703040     0.000006322262    -0.000002311893
       3       -0.000015538003    -0.000008735330     0.000007130740
       4        0.000009625529     0.000025295203    -0.000008353042
       5       -0.000000635528     0.000002250609     0.000001235157
       6       -0.000000140427     0.000002316174     0.000000268017
       7       -0.000005692269    -0.000007187155     0.000001408276
       8        0.000001744562    -0.000000916644    -0.000005369048
       9       -0.000006331770     0.000002780350     0.000001755196
      10       -0.000473305770     0.000415586917     0.002691344937
      11        0.000020042890    -0.000010327299     0.000006438278
      12       -0.000000418767    -0.000006164623     0.000004767052
      13       -0.000035242890    -0.001102656589    -0.003824841955
      14       -0.000006127112     0.000000301185     0.000001485111
      15       -0.000004659725    -0.000005284119    -0.000002113358
      16        0.003571261131     0.002810431368     0.001336591651
      17        0.000002384906    -0.000008870269     0.000005367834
      18        0.000025452307     0.000001669795    -0.000000317959
      19       -0.000028683702    -0.000007359604    -0.000051464399
      20       -0.003062761998    -0.002114515991    -0.000153013196
      21       -0.000022422770     0.000006093513    -0.000025864488
      22        0.000002948437     0.000011714579     0.000028046192
      23        0.000001916361     0.000000286503    -0.000007974099
      24        0.000010039030    -0.000006919780    -0.000011867619
      25        0.000001847389    -0.000009852843     0.000006830427
      26        0.000002285853     0.000005252434     0.000007292197
      27       -0.000002242129     0.000003165012    -0.000007098857

  **** Optimization is complete! (in 7 steps) ****
    Final optimized geometry and variables:
    Molecular point group: c1

    Geometry (in Angstrom), charge = 0, multiplicity = 1:

    H            1.403640903163     1.718389542743     2.303340599727
    O            2.327095302500     1.770808508308     2.141891345583
    C            2.863217534768     0.485840280030     1.966581978595
    C            2.491904250624    -0.149257487970     0.634980202524
    H            3.936930688438     0.602900839896     2.024856424249
    H            2.565140626987    -0.164548970329     2.786586367541
    C            1.000668456061    -0.432980901235     0.470032441379
    H            2.830874483246     0.501822744654    -0.165044697481
    H            3.047682196973    -1.079278571914     0.542076265158
    C            0.671116017859    -1.132795939363    -0.847511073447
    H            0.448055588604     0.498662548528     0.536020183331
    H            0.659466489579    -1.056180501913     1.294523370373
    C           -0.820143367071    -1.405917697802    -1.059575350132
    H            1.053233103171    -0.540722634463    -1.675950601844
    H            1.209216254361    -2.075999369687    -0.878330003881
    C           -1.657085956568    -0.166612827060    -1.409292405311
    H           -0.942062682524    -2.146741346522    -1.842615327697
    H           -1.213934780141    -1.862543367152    -0.154693140234
    C           -3.101892484344    -0.261066225722    -0.921172804932
    H           -1.677862465937    -0.046113127726    -2.488886962938
    H           -1.204525761781     0.730990574481    -1.001946583958
    C           -3.956154960996     0.931536673645    -1.336814184603
    H           -3.549375389336    -1.175395185987    -1.302275256560
    H           -3.108279681924    -0.349677981635     0.161874092564
    H           -4.005385580075     1.020556467968    -2.416961493806
    H           -4.970625144451     0.837002104011    -0.966681908404
    H           -3.548142096642     1.859337917590    -0.949193448406

  Mulliken Charges: (a.u.)
   Center  Symbol    Alpha    Beta     Spin     Total
       1     H     0.39220  0.39220  0.00000  0.21560
       2     O     4.20563  4.20563  0.00000 -0.41127
       3     C     2.98009  2.98009  0.00000  0.03982
       4     C     3.08931  3.08931  0.00000 -0.17862
       5     H     0.44860  0.44860  0.00000  0.10279
       6     H     0.46934  0.46934  0.00000  0.06131
       7     C     3.10205  3.10205  0.00000 -0.20410
       8     H     0.45043  0.45043  0.00000  0.09915
       9     H     0.45506  0.45506  0.00000  0.08988
      10     C     3.09774  3.09774  0.00000 -0.19549
      11     H     0.45659  0.45659  0.00000  0.08683
      12     H     0.45361  0.45361  0.00000  0.09278
      13     C     3.10047  3.10047  0.00000 -0.20093
      14     H     0.45201  0.45201  0.00000  0.09597
      15     H     0.44771  0.44771  0.00000  0.10459
      16     C     3.09353  3.09353  0.00000 -0.18706
      17     H     0.44534  0.44534  0.00000  0.10931
      18     H     0.45623  0.45623  0.00000  0.08754
      19     C     3.08324  3.08324  0.00000 -0.16647
      20     H     0.44998  0.44998  0.00000  0.10004
      21     H     0.45239  0.45239  0.00000  0.09522
      22     C     3.14983  3.14983  0.00000 -0.29967
      23     H     0.45395  0.45395  0.00000  0.09210
      24     H     0.45597  0.45597  0.00000  0.08805
      25     H     0.45487  0.45487  0.00000  0.09027
      26     H     0.44850  0.44850  0.00000  0.10299
      27     H     0.45532  0.45532  0.00000  0.08937

   Total alpha = 37.00000, Total beta = 37.00000, Total charge = -0.00000

*** Psi4 exiting successfully. Buy a developer a beer!
