                              Psi4 1.0.54 Driver

  ==> Input File <==

--------------------------------------------------------------------------
set {
	reference rhf
	basis cc-pvtz
}

set_num_threads( 4 )
memory 2 gb

molecule MOL {
0 1

H	 -2.644180	 -0.653737	 1.272255
C	 -2.092774	 -0.380414	 0.391915
O	 -0.808934	 -0.154049	 0.752536
F	 -2.163230	 -1.351640	 -0.507133
F	 -2.627232	 0.691260	 -0.169301
C	 0.085006	 0.250800	 -0.215074
C	 1.394179	 -0.495400	 0.030954
Cl	 0.359231	 2.001550	 -0.142885
H	 -0.250302	 0.018970	 -1.210800
F	 2.285999	 -0.164635	 -0.868088
F	 1.176298	 -1.785123	 -0.071298
F	 1.885165	 -0.255982	 1.215801

	symmetry c1
}
set optking {
	frozen_dihedral = ("
		9 6 3 2
	")
}

ee,wfn = optimize('scf', return_wfn=True)
oeprop( wfn, 'DIPOLE', 'QUADRUPOLE', 'MULLIKEN_CHARGES')
f=open( 'psi4out.xyz', 'w' )
f.write( "12  " )
f.write( str(ee) + "\n" )
f.write( MOL.save_string_xyz() )
f.close()
--------------------------------------------------------------------------

    Molecular point group: c1
  Charge       = 0
  Multiplicity = 1
  Basis Set: CC-PVTZ
  Basis Set:
  @DF-RHF Final Energy: -1146.62042231349369
    Total Energy =                      -1146.6204223134927815
    Molecular point group: c1
  Basis Set: CC-PVTZ
  Basis Set:
  Basis Set: CC-PVTZ
  Basis Set:
  @DF-RHF Final Energy: -1146.62042903990073
    Total Energy =                      -1146.6204290399005004
  Basis Set: CC-PVTZ
  Basis Set:
  Charge       = 0
  Multiplicity = 1
  Basis Set: CC-PVTZ
  Basis Set:

    Orbital Energies (a.u.)
    -----------------------

    Doubly Occupied:

       1A   -104.856366     2A    -26.354975     3A    -26.353803
       4A    -26.353186     5A    -26.343378     6A    -26.343315
       7A    -20.641523     8A    -11.520208     9A    -11.484110
      10A    -11.401077    11A    -10.581893    12A     -8.048690
      13A     -8.046704    14A     -8.046627    15A     -1.767916
      16A     -1.724975    17A     -1.662905    18A     -1.661232
      19A     -1.644997    20A     -1.487698    21A     -1.178099
      22A     -1.053603    23A     -0.990835    24A     -0.924643
      25A     -0.864994    26A     -0.858683    27A     -0.852256
      28A     -0.829246    29A     -0.818201    30A     -0.794034
      31A     -0.733680    32A     -0.733288    33A     -0.713011
      34A     -0.708257    35A     -0.685048    36A     -0.681443
      37A     -0.665456    38A     -0.664083    39A     -0.649658
      40A     -0.638952    41A     -0.598993    42A     -0.581696
      43A     -0.525558    44A     -0.478145    45A     -0.469767

  @DF-RHF Final Energy: -1146.62042985086100

   => Energetics <=

    Nuclear Repulsion Energy =            738.1891751283645817
    One-Electron Energy =               -3059.5847952981230264
    Two-Electron Energy =                1174.7751903188961933
    DFT Exchange-Correlation Energy =       0.0000000000000000
    Empirical Dispersion Energy =           0.0000000000000000
    PCM Polarization Energy =               0.0000000000000000
    EFP Energy =                            0.0000000000000000
    Total Energy =                      -1146.6204298508621378
    Molecular point group: c1
  Basis Set: CC-PVTZ
  Basis Set:

  -Total Gradient:
     Atom            X                  Y                   Z
    ------   -----------------  -----------------  -----------------
       1       -0.000037348964    -0.000015093422    -0.000022483804
       2        0.000012644517     0.000288424783    -0.000010821809
       3        0.000253893417    -0.000698034167    -0.000062067129
       4       -0.000035405579    -0.000001735803     0.000064290656
       5       -0.000030313335     0.000051373732    -0.000015979296
       6       -0.000295466562     0.000603831236     0.000026246082
       7       -0.000038335247     0.000136714183    -0.000069075094
       8       -0.000019241633     0.000114554499     0.000014741728
       9        0.000181301698    -0.000339559591     0.000029375272
      10        0.000033978545    -0.000102371436    -0.000009555202
      11       -0.000015951615    -0.000014462778     0.000063413249
      12       -0.000009755221    -0.000023641078    -0.000008084665

  **** Optimization is complete! (in 3 steps) ****
    Final optimized geometry and variables:
    Molecular point group: c1

    Geometry (in Angstrom), charge = 0, multiplicity = 1:

    H           -2.642397746616    -0.680992267602     1.261473502513
    C           -2.091365183710    -0.408719677702     0.380498007515
    O           -0.808007151851    -0.178653207451     0.740709127460
    F           -2.158559179044    -1.383628358570    -0.515073982958
    F           -2.629096805127     0.658972583050    -0.184491114356
    C            0.085190416327     0.229890533890    -0.225856138508
    C            1.391522409795    -0.521705177731     0.019686507952
    CL           0.365706177260     1.979641516377    -0.151108168714
    H           -0.249667315500    -0.002150568118    -1.221814935202
    F            2.283891143049    -0.195697262821    -0.880586880152
    F            1.167826471726    -1.810583425407    -0.081395995295
    F            1.884732060131    -0.283703701825     1.203856382646

  Mulliken Charges: (a.u.)
   Center  Symbol    Alpha    Beta     Spin     Total
       1     H     0.45211  0.45211  0.00000  0.09577
       2     C     2.74012  2.74012  0.00000  0.51976
       3     O     4.15614  4.15614  0.00000 -0.31228
       4     F     4.61801  4.61801  0.00000 -0.23602
       5     F     4.61466  4.61466  0.00000 -0.22931
       6     C     2.93750  2.93750  0.00000  0.12501
       7     C     2.66933  2.66933  0.00000  0.66135
       8    CL     8.57392  8.57392  0.00000 -0.14785
       9     H     0.43054  0.43054  0.00000  0.13892
      10     F     4.60245  4.60245  0.00000 -0.20490
      11     F     4.60473  4.60473  0.00000 -0.20947
      12     F     4.60049  4.60049  0.00000 -0.20098

   Total alpha = 45.00000, Total beta = 45.00000, Total charge =  0.00000

*** Psi4 exiting successfully. Buy a developer a beer!
