                              Psi4 1.0.54 Driver

  ==> Input File <==

--------------------------------------------------------------------------
set {
	reference rhf
	basis cc-pvtz
}

set_num_threads( 4 )
memory 2 gb

molecule MOL {
0 1

O	 -2.440701	 -0.934798	 -0.415053
C	 -1.922978	 0.063265	 -0.045005
C	 -2.632749	 1.372204	 0.158357
O	 -0.637375	 0.157174	 0.243149
H	 -2.187724	 2.129143	 -0.474664
H	 -3.677681	 1.257276	 -0.079438
H	 -2.516788	 1.693160	 1.185542
C	 0.162530	 -1.009518	 0.097799
C	 1.587210	 -0.664190	 0.477086
H	 0.096803	 -1.356267	 -0.924704
H	 -0.233803	 -1.785900	 0.736810
C	 2.256770	 0.342732	 -0.454344
H	 2.154716	 -1.590834	 0.479041
H	 1.598751	 -0.289614	 1.496104
C	 2.593123	 -0.250984	 -1.818156
H	 1.599848	 1.198556	 -0.585183
H	 3.161318	 0.716890	 0.011104
H	 3.062991	 0.485100	 -2.459865
H	 1.701342	 -0.608190	 -2.322658
H	 3.275353	 -1.089062	 -1.722214

	symmetry c1
}
set optking {
	frozen_dihedral = ("
		16 12 9 8
	")
}

ee,wfn = optimize('scf', return_wfn=True)
oeprop( wfn, 'DIPOLE', 'QUADRUPOLE', 'MULLIKEN_CHARGES')
f=open( 'psi4out.xyz', 'w' )
f.write( "20  " )
f.write( str(ee) + "\n" )
f.write( MOL.save_string_xyz() )
f.close()
--------------------------------------------------------------------------

    Molecular point group: c1
  Charge       = 0
  Multiplicity = 1
  Basis Set: CC-PVTZ
  Basis Set:
  @DF-RHF Final Energy:  -384.08558611563097
    Total Energy =                       -384.0855861156310311
    Molecular point group: c1
  Basis Set: CC-PVTZ
  Basis Set:
  Basis Set: CC-PVTZ
  Basis Set:
  @DF-RHF Final Energy:  -384.08581604811184
    Total Energy =                       -384.0858160481112691
  Basis Set: CC-PVTZ
  Basis Set:
  Basis Set: CC-PVTZ
  Basis Set:
  @DF-RHF Final Energy:  -384.08569614726918
    Total Energy =                       -384.0856961472687772
  Basis Set: CC-PVTZ
  Basis Set:
  Basis Set: CC-PVTZ
  Basis Set:
  @DF-RHF Final Energy:  -384.08588658340324
    Total Energy =                       -384.0858865834032940
  Basis Set: CC-PVTZ
  Basis Set:
  Charge       = 0
  Multiplicity = 1
  Basis Set: CC-PVTZ
  Basis Set:

    Orbital Energies (a.u.)
    -----------------------

    Doubly Occupied:

       1A    -20.594481     2A    -20.532794     3A    -11.366835
       4A    -11.279754     5A    -11.231815     6A    -11.223676
       7A    -11.218809     8A    -11.211340     9A     -1.471199
      10A     -1.365332    11A     -1.086568    12A     -1.028135
      13A     -0.980029    14A     -0.889595    15A     -0.809569
      16A     -0.771275    17A     -0.693412    18A     -0.690821
      19A     -0.668501    20A     -0.622543    21A     -0.618455
      22A     -0.578699    23A     -0.576786    24A     -0.564148
      25A     -0.537707    26A     -0.528345    27A     -0.523746
      28A     -0.481453    29A     -0.477024    30A     -0.469456
      31A     -0.451449    32A     -0.442243

  @DF-RHF Final Energy:  -384.08588743887282

   => Energetics <=

    Nuclear Repulsion Energy =            390.2268378514033316
    One-Electron Energy =               -1296.6534611073768701
    Two-Electron Energy =                 522.3407358171010628
    DFT Exchange-Correlation Energy =       0.0000000000000000
    Empirical Dispersion Energy =           0.0000000000000000
    PCM Polarization Energy =               0.0000000000000000
    EFP Energy =                            0.0000000000000000
    Total Energy =                       -384.0858874388724189
    Molecular point group: c1
  Basis Set: CC-PVTZ
  Basis Set:

  -Total Gradient:
     Atom            X                  Y                   Z
    ------   -----------------  -----------------  -----------------
       1        0.000012101541    -0.000047416476    -0.000009775636
       2        0.000013282117     0.000018573548    -0.000019009165
       3        0.000011628367     0.000013227914     0.000009510309
       4       -0.000011083150    -0.000018737220    -0.000034051834
       5        0.000002535085     0.000013072164    -0.000000104586
       6        0.000014483452    -0.000017926280     0.000000587617
       7       -0.000004532492     0.000015262204     0.000014734609
       8       -0.000325165033     0.000689169169     0.000629721419
       9        0.000295950662    -0.001093684703    -0.001004479883
      10       -0.000012937060     0.000017741023    -0.000031122509
      11        0.000008905085     0.000005902723    -0.000016845673
      12        0.000523932832     0.000943243102     0.001398265568
      13       -0.000003301257    -0.000001306941    -0.000010545313
      14        0.000001389315    -0.000001551277     0.000004989268
      15        0.000007386345     0.000007878290     0.000030463038
      16       -0.000544956628    -0.000550600559    -0.000966419491
      17        0.000016892791     0.000005673615    -0.000011947594
      18       -0.000001296067    -0.000003226347    -0.000002247331
      19        0.000002399406     0.000008037105     0.000014430209
      20       -0.000007615312    -0.000003331054     0.000003846978

  **** Optimization is complete! (in 5 steps) ****
    Final optimized geometry and variables:
    Molecular point group: c1

    Geometry (in Angstrom), charge = 0, multiplicity = 1:

    O           -2.310020738438    -0.820872174976    -0.167232541829
    C           -1.786308777706     0.178525704421     0.190575355203
    C           -2.489316859003     1.492421450457     0.383518266158
    O           -0.498819688982     0.269589217038     0.470819362909
    H           -2.044677623858     2.240382803798    -0.260335152190
    H           -3.536035092064     1.379276768212     0.152853456747
    H           -2.366013373210     1.823990470960     1.406417611013
    C            0.294465214617    -0.902914088125     0.336099844783
    C            1.725111075903    -0.552901702882     0.695312982203
    H            0.203940001982    -1.273739390394    -0.674545022860
    H           -0.091851475682    -1.663803053139     0.999423000684
    C            2.403209176148     0.452317372123    -0.238501195616
    H            2.294543881982    -1.477865872892     0.714272549520
    H            1.729921629130    -0.163975016534     1.708018788752
    C            2.769258721512    -0.117778243857    -1.607069076943
    H            1.755772496090     1.311805232042    -0.369004239678
    H            3.305366996002     0.813605004800     0.243463028958
    H            3.267269396889     0.629399998183    -2.213937508404
    H            1.894918566951    -0.449219300632    -2.155274649030
    H            3.439884441911    -0.965429428111    -1.511096193548

  Mulliken Charges: (a.u.)
   Center  Symbol    Alpha    Beta     Spin     Total
       1     O     4.19725  4.19725  0.00000 -0.39450
       2     C     2.80920  2.80920  0.00000  0.38160
       3     C     3.13831  3.13831  0.00000 -0.27661
       4     O     4.15336  4.15336  0.00000 -0.30671
       5     H     0.44629  0.44629  0.00000  0.10741
       6     H     0.43777  0.43777  0.00000  0.12445
       7     H     0.44560  0.44560  0.00000  0.10881
       8     C     2.99398  2.99398  0.00000  0.01204
       9     C     3.09098  3.09098  0.00000 -0.18195
      10     H     0.45033  0.45033  0.00000  0.09933
      11     H     0.44322  0.44322  0.00000  0.11355
      12     C     3.09217  3.09217  0.00000 -0.18433
      13     H     0.45163  0.45163  0.00000  0.09673
      14     H     0.44689  0.44689  0.00000  0.10622
      15     C     3.15170  3.15170  0.00000 -0.30340
      16     H     0.44848  0.44848  0.00000  0.10304
      17     H     0.44769  0.44769  0.00000  0.10461
      18     H     0.44622  0.44622  0.00000  0.10755
      19     H     0.45367  0.45367  0.00000  0.09266
      20     H     0.45524  0.45524  0.00000  0.08952

   Total alpha = 32.00000, Total beta = 32.00000, Total charge = -0.00000

*** Psi4 exiting successfully. Buy a developer a beer!
