  ==> Input File <==

--------------------------------------------------------------------------
set {
	reference rhf
	basis 6-31G*
}

set_num_threads( 4 )
memory 2 gb

molecule MOL {
0 1

O	 1.846825	 1.296220	 0.000415
C	 1.705091	 0.115954	 0.001797
C	 0.381791	 -0.609817	 0.001258
O	 2.721346	 -0.737485	 -0.000216
C	 -0.823008	 0.326187	 0.001381
H	 0.371250	 -1.265087	 -0.865474
H	 0.370908	 -1.265746	 0.867490
C	 -2.149452	 -0.435131	 -0.000098
H	 -0.770201	 0.977095	 -0.865636
H	 -0.771220	 0.975655	 0.869608
C	 -3.368779	 0.488503	 -0.000883
H	 -2.193746	 -1.087250	 -0.871175
H	 -2.195311	 -1.087803	 0.870418
C	 -3.783366	 0.930369	 1.402015
H	 -4.202809	 -0.018024	 -0.481470
H	 -3.154559	 1.365589	 -0.607487
H	 -4.037645	 0.076234	 2.023312
H	 -4.649569	 1.583824	 1.368250
H	 -2.980824	 1.470487	 1.896494
C	 4.024888	 -0.184556	 -0.001949
H	 4.179030	 0.422472	 -0.882452
H	 4.701782	 -1.024608	 -0.003642
H	 4.181981	 0.421185	 0.878906

	symmetry c1
}
set optking {
	frozen_dihedral = ("
		15 11 8 12
	")
}

ee = optimize('scf')
oeprop('DIPOLE', 'QUADRUPOLE', 'MULLIKEN_CHARGES')
f=open( 'psi4out.xyz', 'w' )
f.write( "23  " )
f.write( str(ee) + "\n" )
f.write( MOL.save_string_xyz() )
f.close()
--------------------------------------------------------------------------

    Molecular point group: c1
  Charge       = 0
  Multiplicity = 1
  Basis Set: 6-31G*
  Basis Set:
  @DF-RHF Final Energy:  -422.97341310864095
    Total Energy =                       -422.9734131086411253
    Molecular point group: c1
  Basis Set: 6-31G*
  Basis Set:
  Basis Set: 6-31G*
  Basis Set:
  @DF-RHF Final Energy:  -422.97353613864414
    Total Energy =                       -422.9735361386442491
  Basis Set: 6-31G*
  Basis Set:
  Basis Set: 6-31G*
  Basis Set:
  @DF-RHF Final Energy:  -422.97336796360634
    Total Energy =                       -422.9733679636069610
  Basis Set: 6-31G*
  Basis Set:
  Basis Set: 6-31G*
  Basis Set:
  @DF-RHF Final Energy:  -422.97363280024098
    Total Energy =                       -422.9736328002403525
  Basis Set: 6-31G*
  Basis Set:
  Basis Set: 6-31G*
  Basis Set:
  @DF-RHF Final Energy:  -422.97363924756439
    Total Energy =                       -422.9736392475640514
  Basis Set: 6-31G*
  Basis Set:
  Charge       = 0
  Multiplicity = 1
  Basis Set: 6-31G*
  Basis Set:

    Orbital Energies (a.u.)
    -----------------------

    Doubly Occupied:

       1A    -20.603698     2A    -20.545510     3A    -11.372342
       4A    -11.280896     5A    -11.235542     6A    -11.219404
       7A    -11.217790     8A    -11.216392     9A    -11.209052
      10A     -1.469398    11A     -1.362843    12A     -1.092759
      13A     -1.042216    14A     -0.985842    15A     -0.931486
      16A     -0.851677    17A     -0.788513    18A     -0.767645
      19A     -0.696699    20A     -0.683468    21A     -0.672189
      22A     -0.642231    23A     -0.615481    24A     -0.597075
      25A     -0.586233    26A     -0.562875    27A     -0.533050
      28A     -0.530520    29A     -0.521783    30A     -0.508087
      31A     -0.493074    32A     -0.466877    33A     -0.462006
      34A     -0.459526    35A     -0.454490    36A     -0.435661

  @DF-RHF Final Energy:  -422.97363942196500

   => Energetics <=

    Nuclear Repulsion Energy =            455.9198202980355745
    One-Electron Energy =               -1479.5582639877663951
    Two-Electron Energy =                 600.6648042677655894
    DFT Exchange-Correlation Energy =       0.0000000000000000
    Empirical Dispersion Energy =           0.0000000000000000
    PCM Polarization Energy =               0.0000000000000000
    EFP Energy =                            0.0000000000000000
    Total Energy =                       -422.9736394219652311
    Molecular point group: c1
  Basis Set: 6-31G*
  Basis Set:

  -Total Gradient:
     Atom            X                  Y                   Z
    ------   -----------------  -----------------  -----------------
       1        0.000003546161    -0.000012058109    -0.000030063356
       2        0.000002852107     0.000005197397     0.000056311150
       3       -0.000012322054    -0.000001027439    -0.000030661712
       4        0.000001450471     0.000007167289    -0.000012730084
       5       -0.000009415037     0.000005821991     0.000073473870
       6       -0.000006486173    -0.000023483660    -0.000015740788
       7        0.000009682668     0.000020453978    -0.000018216975
       8        0.002026948498     0.002780496470    -0.002599933323
       9       -0.000030771511     0.000014843850     0.000009534526
      10        0.000014132432    -0.000014350199    -0.000008114907
      11       -0.001351996256    -0.001905358261     0.003623092243
      12       -0.001435038326    -0.002021481275     0.001595874936
      13       -0.000033950652    -0.000012525216     0.000017402983
      14        0.000048713374     0.000004023682    -0.000000966987
      15        0.000785390760     0.001140425924    -0.002593099678
      16        0.000000680327     0.000019110253    -0.000033544407
      17       -0.000008408098    -0.000007641188    -0.000013138758
      18        0.000012493199     0.000010836278    -0.000026420538
      19       -0.000021957122    -0.000009006895     0.000005420375
      20        0.000000678932    -0.000002078289     0.000008474284
      21        0.000000687882     0.000000670164    -0.000002330099
      22        0.000002939201     0.000000602324    -0.000002671721
      23        0.000000149214    -0.000000639066    -0.000001951033

  **** Optimization is complete! (in 6 steps) ****
    Final optimized geometry and variables:
    Molecular point group: c1

    Geometry (in Angstrom), charge = 0, multiplicity = 1:

    O            1.745173892331     1.157450506304    -0.163914171891
    C            1.602057226472    -0.022653948858    -0.161034712554
    C            0.277748896037    -0.746615537952    -0.160159866187
    O            2.617200148537    -0.877336120774    -0.157675789910
    C           -0.925501469032     0.191201545718    -0.171985466322
    H            0.268722570903    -1.409380568025    -1.021253669060
    H            0.263161044668    -1.394973496559     0.711663668533
    C           -2.251872520571    -0.570741516413    -0.183276162063
    H           -0.867413204064     0.836484780502    -1.042806114552
    H           -0.874265812766     0.845494606020     0.691997678862
    C           -3.489116045269     0.340252837444    -0.151558189568
    H           -2.298620499125    -1.215188140244    -1.058364266606
    H           -2.288320963576    -1.245685443932     0.671260168799
    C           -3.887399443878     0.795657144388     1.252062058983
    H           -4.324890305098    -0.170525493594    -0.621971258921
    H           -3.301299661588     1.214410808242    -0.771944530502
    H           -4.148341109201    -0.053380536485     1.877552296295
    H           -4.746859123267     1.457995361978     1.217891800861
    H           -3.080716018070     1.331951294491     1.742449463561
    C            3.921490130128    -0.326061909696    -0.157120318694
    H            4.079066071093     0.278164534800    -1.038933285326
    H            4.597320249414    -1.167019832179    -0.154408319920
    H            4.076728381869     0.281988698603     0.722474282667

  Mulliken Charges: (a.u.)
   Center  Symbol    Alpha    Beta     Spin     Total
       1     O     4.28614  4.28614  0.00000 -0.57228
       2     C     2.60518  2.60518  0.00000  0.78964
       3     C     3.20809  3.20809  0.00000 -0.41618
       4     O     4.30723  4.30723  0.00000 -0.61446
       5     C     3.15323  3.15323  0.00000 -0.30646
       6     H     0.40064  0.40064  0.00000  0.19871
       7     H     0.40051  0.40051  0.00000  0.19899
       8     C     3.15671  3.15671  0.00000 -0.31341
       9     H     0.41146  0.41146  0.00000  0.17707
      10     H     0.41079  0.41079  0.00000  0.17842
      11     C     3.15445  3.15445  0.00000 -0.30891
      12     H     0.42139  0.42139  0.00000  0.15722
      13     H     0.42403  0.42403  0.00000  0.15195
      14     C     3.24038  3.24038  0.00000 -0.48076
      15     H     0.41986  0.41986  0.00000  0.16029
      16     H     0.42072  0.42072  0.00000  0.15856
      17     H     0.42193  0.42193  0.00000  0.15615
      18     H     0.41869  0.41869  0.00000  0.16263
      19     H     0.41959  0.41959  0.00000  0.16081
      20     C     3.09245  3.09245  0.00000 -0.18489
      21     H     0.40905  0.40905  0.00000  0.18189
      22     H     0.40841  0.40841  0.00000  0.18318
      23     H     0.40908  0.40908  0.00000  0.18184

   Total alpha = 36.00000, Total beta = 36.00000, Total charge = -0.00000
