  ==> Input File <==

--------------------------------------------------------------------------
set {
	reference rhf
	basis 6-31G*
}

set_num_threads( 4 )
memory 2 gb

molecule MOL {
0 1

H	 -1.558725	 -1.121326	 -3.223932
C	 -2.268226	 -0.950147	 -2.404829
C	 -1.942723	 -1.667382	 -1.119437
O	 -3.209463	 -0.243578	 -2.567874
C	 -0.504852	 -1.408259	 -0.648653
H	 -2.667112	 -1.371290	 -0.369571
H	 -2.071885	 -2.732804	 -1.306116
C	 -0.252658	 0.041456	 -0.226725
H	 -0.291997	 -2.069204	 0.186289
H	 0.189934	 -1.686599	 -1.439575
C	 1.180775	 0.282413	 0.250794
H	 -0.949084	 0.307770	 0.565686
H	 -0.471286	 0.710742	 -1.056664
C	 2.148627	 -0.814315	 -0.201312
H	 1.516199	 1.249228	 -0.115937
H	 1.192670	 0.346017	 1.338083
C	 3.580890	 -0.659131	 0.322722
H	 2.166869	 -0.852443	 -1.289387
H	 1.762857	 -1.776509	 0.128956
C	 4.324889	 0.564933	 -0.213704
H	 4.142010	 -1.551473	 0.056605
H	 3.564836	 -0.624694	 1.410140
H	 4.342616	 0.565491	 -1.300421
H	 3.866655	 1.493402	 0.110242
H	 5.353900	 0.572371	 0.132816

	symmetry c1
}
set optking {
	frozen_dihedral = ("
		12 8 11 14
	")
}

ee = optimize('scf')
oeprop('DIPOLE', 'QUADRUPOLE', 'MULLIKEN_CHARGES')
f=open( 'psi4out.xyz', 'w' )
f.write( "25  " )
f.write( str(ee) + "\n" )
f.write( MOL.save_string_xyz() )
f.close()
--------------------------------------------------------------------------

    Molecular point group: c1
  Charge       = 0
  Multiplicity = 1
  Basis Set: 6-31G*
  Basis Set:
  @DF-RHF Final Energy:  -387.10916364293865
    Total Energy =                       -387.1091636429382561
    Molecular point group: c1
  Basis Set: 6-31G*
  Basis Set:
  Basis Set: 6-31G*
  Basis Set:
  @DF-RHF Final Energy:  -387.10913437506866
    Total Energy =                       -387.1091343750692886
  Basis Set: 6-31G*
  Basis Set:
  Basis Set: 6-31G*
  Basis Set:
  @DF-RHF Final Energy:  -387.11291042098640
    Total Energy =                       -387.1129104209867364
  Basis Set: 6-31G*
  Basis Set:
  Basis Set: 6-31G*
  Basis Set:
  @DF-RHF Final Energy:  -387.11286377026050
    Total Energy =                       -387.1128637702607875
  Basis Set: 6-31G*
  Basis Set:
  @DF-RHF Final Energy:  -387.11094324259966
    Total Energy =                       -387.1109432425996602
  @DF-RHF Final Energy:  -387.11349555844845
    Total Energy =                       -387.1134955584486761
  @DF-RHF Final Energy:  -387.11346755071986
    Total Energy =                       -387.1134675507200882
  Basis Set: 6-31G*
  Basis Set:
  @DF-RHF Final Energy:  -387.11350549709363
    Total Energy =                       -387.1135054970927740
  Basis Set: 6-31G*
  Basis Set:
  Basis Set: 6-31G*
  Basis Set:
  @DF-RHF Final Energy:  -387.11348946035480
    Total Energy =                       -387.1134894603545717
  Basis Set: 6-31G*
  Basis Set:
  Basis Set: 6-31G*
  Basis Set:
  @DF-RHF Final Energy:  -387.11350861160770
    Total Energy =                       -387.1135086116078128
  Basis Set: 6-31G*
  Basis Set:
  Charge       = 0
  Multiplicity = 1
  Basis Set: 6-31G*
  Basis Set:

    Orbital Energies (a.u.)
    -----------------------

    Doubly Occupied:

       1A    -20.561783     2A    -11.325998     3A    -11.234722
       4A    -11.234124     5A    -11.224948     6A    -11.220445
       7A    -11.219654     8A    -11.219027     9A    -11.211345
      10A     -1.401731    11A     -1.102558    12A     -1.068951
      13A     -1.010369    14A     -0.940434    15A     -0.885218
      16A     -0.823514    17A     -0.793514    18A     -0.766647
      19A     -0.664143    20A     -0.657436    21A     -0.633344
      22A     -0.628873    23A     -0.606426    24A     -0.588606
      25A     -0.576704    26A     -0.553026    27A     -0.539495
      28A     -0.524218    29A     -0.516389    30A     -0.499939
      31A     -0.484008    32A     -0.479027    33A     -0.454890
      34A     -0.452224    35A     -0.448379    36A     -0.408901

  @DF-RHF Final Energy:  -387.11350902571763

   => Energetics <=

    Nuclear Repulsion Energy =            443.8690881202606420
    One-Electron Energy =               -1404.0431765325342894
    Two-Electron Energy =                 573.0605793865565829
    DFT Exchange-Correlation Energy =       0.0000000000000000
    Empirical Dispersion Energy =           0.0000000000000000
    PCM Polarization Energy =               0.0000000000000000
    EFP Energy =                            0.0000000000000000
    Total Energy =                       -387.1135090257171214
    Molecular point group: c1
  Basis Set: 6-31G*
  Basis Set:

  -Total Gradient:
     Atom            X                  Y                   Z
    ------   -----------------  -----------------  -----------------
       1       -0.000028198596     0.000014118119    -0.000034653197
       2        0.000028683229     0.000018957651     0.000075580896
       3        0.000005798220    -0.000029635046     0.000001274077
       4       -0.000008992624     0.000013193537    -0.000065418996
       5       -0.000037586127     0.000033294157     0.000041098972
       6        0.000020347554     0.000015269420    -0.000006974183
       7        0.000016031612    -0.000034713500     0.000036787061
       8       -0.000601304645     0.005255719510    -0.000685715683
       9       -0.000028333233    -0.000022090629    -0.000029584409
      10       -0.000012347256     0.000013104137     0.000010077770
      11        0.001306096684     0.002069703460    -0.004592615489
      12        0.000122864590    -0.005149167095     0.001842661088
      13        0.000018434165    -0.000017966879    -0.000023434447
      14       -0.000850760070    -0.002115520965     0.003415998149
      15        0.000016814637     0.000011886672     0.000026350471
      16        0.000005842477    -0.000059410151    -0.000028058646
      17        0.000009532152    -0.000023265188    -0.000022726196
      18        0.000006238214     0.000012455173     0.000023883623
      19        0.000009368245    -0.000033009513    -0.000005626737
      20       -0.000000447119     0.000025978353     0.000018867969
      21       -0.000009481851    -0.000015860283     0.000012572434
      22       -0.000005367833     0.000017794699    -0.000004529280
      23        0.000001483089    -0.000003307247     0.000000346806
      24        0.000018067115     0.000001763499    -0.000004800841
      25       -0.000002782621     0.000000708109    -0.000001361213

  **** Optimization is complete! (in 11 steps) ****
    Final optimized geometry and variables:
    Molecular point group: c1

    Geometry (in Angstrom), charge = 0, multiplicity = 1:

    H           -2.034835314707    -0.603741657332    -2.471333261904
    C           -2.702958149565    -0.366092827856    -1.634037572119
    C           -2.400819106697    -1.097060362637    -0.350458816860
    O           -3.590345118101     0.410361991373    -1.780956104508
    C           -0.930621683680    -0.964229249880     0.073146243324
    H           -3.073483085195    -0.732040823031     0.417110381369
    H           -2.629115167067    -2.148489633329    -0.521197129078
    C           -0.567192548426     0.469463857359     0.484889776317
    H           -0.754720895301    -1.642638872677     0.902080301413
    H           -0.295385162915    -1.305075128995    -0.739908667150
    C            0.882614615294     0.695074243777     0.986413593708
    H           -1.250827747036     0.735860417821     1.285909795734
    H           -0.776225589875     1.139584720306    -0.344284464784
    C            1.928843636593    -0.351130436875     0.582894018985
    H            1.204970329664     1.679299287583     0.664656336509
    H            0.868160558357     0.730640749303     2.073665030453
    C            3.327987477444    -0.071044762889     1.146336330212
    H            1.994516765988    -0.419431598894    -0.501965985249
    H            1.613946316226    -1.329497552068     0.932395863884
    C            4.014702991031     1.168326085023     0.569270703370
    H            3.954665375286    -0.937488632082     0.949848311129
    H            3.268024324377     0.019479500626     2.229086059832
    H            4.077465777351     1.110280113784    -0.514089267247
    H            3.488429803661     2.082548804220     0.821877980569
    H            5.026105834340     1.260148147836     0.952917809095

  Mulliken Charges: (a.u.)
   Center  Symbol    Alpha    Beta     Spin     Total
       1     H     0.43275  0.43275  0.00000  0.13451
       2     C     2.83090  2.83090  0.00000  0.33820
       3     C     3.20817  3.20817  0.00000 -0.41634
       4     O     4.23790  4.23790  0.00000 -0.47580
       5     C     3.17018  3.17018  0.00000 -0.34037
       6     H     0.40005  0.40005  0.00000  0.19990
       7     H     0.40638  0.40638  0.00000  0.18725
       8     C     3.15703  3.15703  0.00000 -0.31407
       9     H     0.41286  0.41286  0.00000  0.17427
      10     H     0.41727  0.41727  0.00000  0.16546
      11     C     3.15747  3.15747  0.00000 -0.31494
      12     H     0.41609  0.41609  0.00000  0.16783
      13     H     0.41660  0.41660  0.00000  0.16679
      14     C     3.15655  3.15655  0.00000 -0.31310
      15     H     0.41580  0.41580  0.00000  0.16841
      16     H     0.42147  0.42147  0.00000  0.15705
      17     C     3.15267  3.15267  0.00000 -0.30535
      18     H     0.42470  0.42470  0.00000  0.15059
      19     H     0.42049  0.42049  0.00000  0.15902
      20     C     3.24141  3.24141  0.00000 -0.48283
      21     H     0.42041  0.42041  0.00000  0.15918
      22     H     0.42280  0.42280  0.00000  0.15439
      23     H     0.42201  0.42201  0.00000  0.15599
      24     H     0.41958  0.41958  0.00000  0.16083
      25     H     0.41845  0.41845  0.00000  0.16310

   Total alpha = 36.00000, Total beta = 36.00000, Total charge = -0.00000
