  ==> Input File <==

--------------------------------------------------------------------------
set {
	reference rhf
	basis cc-pvtz
}

set_num_threads( 4 )
memory 2 gb

molecule MOL {
0 1

H	 -2.644180	 -0.653737	 1.272255
C	 -2.092774	 -0.380414	 0.391915
O	 -0.808934	 -0.154049	 0.752536
F	 -2.163230	 -1.351640	 -0.507133
F	 -2.627232	 0.691260	 -0.169301
C	 0.085006	 0.250800	 -0.215074
C	 1.370439	 -0.548013	 -0.012993
Cl	 0.421658	 1.987697	 -0.091007
H	 -0.272219	 0.063284	 -1.212508
F	 2.402994	 0.253781	 0.050076
F	 1.541872	 -1.347841	 -1.038762
F	 1.336914	 -1.273757	 1.070715

	symmetry c1
}
set optking {
	frozen_dihedral = ("
		10 7 6 9
	")
}

ee = optimize('scf')
oeprop('DIPOLE', 'QUADRUPOLE', 'MULLIKEN_CHARGES')
f=open( 'psi4out.xyz', 'w' )
f.write( "12  " )
f.write( str(ee) + "\n" )
f.write( MOL.save_string_xyz() )
f.close()
--------------------------------------------------------------------------

    Molecular point group: c1
  Charge       = 0
  Multiplicity = 1
  Basis Set: CC-PVTZ
  Basis Set:
  @DF-RHF Final Energy: -1146.60896518844993
    Total Energy =                      -1146.6089651884494742
    Molecular point group: c1
  Basis Set: CC-PVTZ
  Basis Set:
  Basis Set: CC-PVTZ
  Basis Set:
  @DF-RHF Final Energy: -1146.60890133062094
    Total Energy =                      -1146.6089013306200286
  Basis Set: CC-PVTZ
  Basis Set:
  Basis Set: CC-PVTZ
  Basis Set:
  @DF-RHF Final Energy: -1146.61118518542094
    Total Energy =                      -1146.6111851854211636
  Basis Set: CC-PVTZ
  Basis Set:
  Basis Set: CC-PVTZ
  Basis Set:
  @DF-RHF Final Energy: -1146.61130280256816
    Total Energy =                      -1146.6113028025683889
  Basis Set: CC-PVTZ
  Basis Set:
  Basis Set: CC-PVTZ
  Basis Set:
  @DF-RHF Final Energy: -1146.61131452270024
    Total Energy =                      -1146.6113145227004679
  Basis Set: CC-PVTZ
  Basis Set:
  Basis Set: CC-PVTZ
  Basis Set:
  @DF-RHF Final Energy: -1146.61131607108882
    Total Energy =                      -1146.6113160710874581
  Basis Set: CC-PVTZ
  Basis Set:
  Charge       = 0
  Multiplicity = 1
  Basis Set: CC-PVTZ
  Basis Set:

    Orbital Energies (a.u.)
    -----------------------

    Doubly Occupied:

       1A   -104.855763     2A    -26.354278     3A    -26.353493
       4A    -26.351844     5A    -26.342990     6A    -26.342714
       7A    -20.638912     8A    -11.522714     9A    -11.483215
      10A    -11.402203    11A    -10.581379    12A     -8.048163
      13A     -8.046181    14A     -8.046104    15A     -1.768532
      16A     -1.724189    17A     -1.662054    18A     -1.660814
      19A     -1.644339    20A     -1.485762    21A     -1.175179
      22A     -1.049336    23A     -0.990460    24A     -0.923775
      25A     -0.862260    26A     -0.857686    27A     -0.852316
      28A     -0.830675    29A     -0.818740    30A     -0.795854
      31A     -0.732896    32A     -0.730479    33A     -0.711198
      34A     -0.708103    35A     -0.684730    36A     -0.680106
      37A     -0.665342    38A     -0.662598    39A     -0.650359
      40A     -0.634400    41A     -0.597950    42A     -0.579571
      43A     -0.523794    44A     -0.476630    45A     -0.469073

  @DF-RHF Final Energy: -1146.61131661816307

   => Energetics <=

    Nuclear Repulsion Energy =            735.5460026935392079
    One-Electron Energy =               -3054.3563298573735665
    Two-Electron Energy =                1172.1990105456707170
    DFT Exchange-Correlation Energy =       0.0000000000000000
    Empirical Dispersion Energy =           0.0000000000000000
    PCM Polarization Energy =               0.0000000000000000
    EFP Energy =                            0.0000000000000000
    Total Energy =                      -1146.6113166181635279
    Molecular point group: c1
  Basis Set: CC-PVTZ
  Basis Set:

  -Total Gradient:
     Atom            X                  Y                   Z
    ------   -----------------  -----------------  -----------------
       1        0.000005692972     0.000008371024     0.000006568548
       2       -0.000071591952     0.000023328638     0.000014501103
       3        0.000041680992    -0.000040807231    -0.000031283323
       4        0.000015623117     0.000013438240    -0.000010176883
       5        0.000076659902    -0.000010713135     0.000008375236
       6        0.001892229552     0.002889296472    -0.000401940407
       7       -0.000002293262    -0.000761872700    -0.003237226744
       8       -0.000041194001    -0.000009087645    -0.000012334817
       9       -0.001628608731    -0.002345246293     0.001059055515
      10       -0.000246563516     0.000201206020     0.002612983713
      11       -0.000029406183     0.000005129131    -0.000065919529
      12       -0.000012228861     0.000026957548     0.000057397594

  **** Optimization is complete! (in 7 steps) ****
    Final optimized geometry and variables:
    Molecular point group: c1

    Geometry (in Angstrom), charge = 0, multiplicity = 1:

    H           -2.662273552138    -0.643734040218     1.258607375583
    C           -2.093054713243    -0.383617023653     0.385589087659
    O           -0.824536968346    -0.123194426453     0.771671414455
    F           -2.120389724906    -1.382456512475    -0.487106492874
    F           -2.635849830778     0.659219321601    -0.220722803176
    C            0.081819047915     0.282704981544    -0.186867713746
    C            1.386112059980    -0.549988012004    -0.018500010339
    CL           0.375217843898     2.024344280938    -0.058378615909
    H           -0.292264483360     0.090000559018    -1.175438962700
    F            2.464513884069     0.181842051611     0.021724580787
    F            1.490358680419    -1.368273655409    -1.043172124695
    F            1.356497937340    -1.272158897873     1.068807610393

  Mulliken Charges: (a.u.)
   Center  Symbol    Alpha    Beta     Spin     Total
       1     H     0.45187  0.45187  0.00000  0.09625
       2     C     2.73896  2.73896  0.00000  0.52208
       3     O     4.15014  4.15014  0.00000 -0.30028
       4     F     4.61895  4.61895  0.00000 -0.23791
       5     F     4.61538  4.61538  0.00000 -0.23076
       6     C     2.96307  2.96307  0.00000  0.07385
       7     C     2.66197  2.66197  0.00000  0.67606
       8    CL     8.56777  8.56777  0.00000 -0.13554
       9     H     0.43177  0.43177  0.00000  0.13647
      10     F     4.59579  4.59579  0.00000 -0.19159
      11     F     4.60643  4.60643  0.00000 -0.21286
      12     F     4.59789  4.59789  0.00000 -0.19578

   Total alpha = 45.00000, Total beta = 45.00000, Total charge = -0.00000
