  ==> Input File <==

--------------------------------------------------------------------------
set {
	reference rhf
	basis 6-31G*
}

set_num_threads( 4 )
memory 2 gb

molecule MOL {
0 1

O	 3.225979	 0.970355	 -0.599647
C	 2.701189	 0.057885	 -0.047330
C	 1.245376	 -0.013843	 0.345420
O	 3.347903	 -1.046386	 0.304773
C	 0.455112	 1.231400	 -0.050772
H	 0.838542	 -0.913825	 -0.103701
H	 1.208210	 -0.175333	 1.419774
C	 -0.998893	 1.219485	 0.433193
H	 0.482531	 1.345121	 -1.130325
H	 0.957290	 2.103070	 0.354729
C	 -1.883438	 0.145884	 -0.207175
H	 -1.431207	 2.195402	 0.224832
H	 -1.019646	 1.105716	 1.516076
C	 -2.609510	 0.642231	 -1.459157
H	 -1.269815	 -0.715872	 -0.465367
H	 -2.621193	 -0.208092	 0.509338
C	 -3.500478	 -0.420665	 -2.104570
H	 -1.876900	 0.986227	 -2.187295
H	 -3.214963	 1.510535	 -1.203864
C	 -4.218952	 0.081853	 -3.356358
H	 -2.897230	 -1.289456	 -2.359395
H	 -4.236210	 -0.762614	 -1.379622
H	 -4.842297	 -0.693666	 -3.790660
H	 -3.509065	 0.399014	 -4.115085
H	 -4.857847	 0.930284	 -3.127774
C	 4.728119	 -1.109107	 -0.004993
H	 4.882018	 -1.033965	 -1.071845
H	 5.068212	 -2.067527	 0.355250
H	 5.265056	 -0.311663	 0.488280

	symmetry c1
}
set optking {
	frozen_dihedral = ("
		15 11 8 5
	")
}

ee = optimize('scf')
oeprop('DIPOLE', 'QUADRUPOLE', 'MULLIKEN_CHARGES')
f=open( 'psi4out.xyz', 'w' )
f.write( "29  " )
f.write( str(ee) + "\n" )
f.write( MOL.save_string_xyz() )
f.close()
--------------------------------------------------------------------------

    Molecular point group: c1
  Charge       = 0
  Multiplicity = 1
  Basis Set: 6-31G*
  Basis Set:
  @DF-RHF Final Energy:  -501.04004730502152
    Total Energy =                       -501.0400473050214032
    Molecular point group: c1
  Basis Set: 6-31G*
  Basis Set:
  Basis Set: 6-31G*
  Basis Set:
  @DF-RHF Final Energy:  -501.04037331225345
    Total Energy =                       -501.0403733122534504
  Basis Set: 6-31G*
  Basis Set:
  Basis Set: 6-31G*
  Basis Set:
  @DF-RHF Final Energy:  -501.04064907019495
    Total Energy =                       -501.0406490701946041
  Basis Set: 6-31G*
  Basis Set:
  Basis Set: 6-31G*
  Basis Set:
  @DF-RHF Final Energy:  -501.04064541953846
    Total Energy =                       -501.0406454195384640
  Basis Set: 6-31G*
  Basis Set:
  @DF-RHF Final Energy:  -501.04059397064100
    Total Energy =                       -501.0405939706409981
  Basis Set: 6-31G*
  Basis Set:
  @DF-RHF Final Energy:  -501.04067251950744
    Total Energy =                       -501.0406725195070976
  Basis Set: 6-31G*
  Basis Set:
  Basis Set: 6-31G*
  Basis Set:
  @DF-RHF Final Energy:  -501.04067132359376
    Total Energy =                       -501.0406713235938696
  Basis Set: 6-31G*
  Basis Set:
  Basis Set: 6-31G*
  Basis Set:
  @DF-RHF Final Energy:  -501.04067439090818
    Total Energy =                       -501.0406743909086345
  Basis Set: 6-31G*
  Basis Set:
  Charge       = 0
  Multiplicity = 1
  Basis Set: 6-31G*
  Basis Set:

    Orbital Energies (a.u.)
    -----------------------

    Doubly Occupied:

       1A    -20.603556     2A    -20.545380     3A    -11.372214
       4A    -11.280811     5A    -11.234971     6A    -11.219397
       7A    -11.217557     8A    -11.215758     9A    -11.215058
      10A    -11.213469    11A    -11.208219    12A     -1.469255
      13A     -1.362691    14A     -1.097577    15A     -1.065808
      16A     -1.018447    17A     -0.976386    18A     -0.927427
      19A     -0.863384    20A     -0.803431    21A     -0.785931
      22A     -0.762769    23A     -0.700815    24A     -0.682964
      25A     -0.671737    26A     -0.649784    27A     -0.627368
      28A     -0.606511    29A     -0.593679    30A     -0.575127
      31A     -0.564855    32A     -0.559466    33A     -0.532929
      34A     -0.525889    35A     -0.520663    36A     -0.510357
      37A     -0.492976    38A     -0.477916    39A     -0.473097
      40A     -0.459209    41A     -0.456581    42A     -0.453418
      43A     -0.441450    44A     -0.435622

  @DF-RHF Final Energy:  -501.04067442004373

   => Energetics <=

    Nuclear Repulsion Energy =            616.7775440900758213
    One-Electron Energy =               -1904.6926194415245845
    Two-Electron Energy =                 786.8744009314045798
    DFT Exchange-Correlation Energy =       0.0000000000000000
    Empirical Dispersion Energy =           0.0000000000000000
    PCM Polarization Energy =               0.0000000000000000
    EFP Energy =                            0.0000000000000000
    Total Energy =                       -501.0406744200440698
    Molecular point group: c1
  Basis Set: 6-31G*
  Basis Set:

  -Total Gradient:
     Atom            X                  Y                   Z
    ------   -----------------  -----------------  -----------------
       1        0.000011818580     0.000016781465     0.000024043882
       2       -0.000025062591    -0.000034504378    -0.000048139106
       3        0.000005547076    -0.000016302777    -0.000011863988
       4        0.000002795193     0.000007929274     0.000007147793
       5        0.000530539118    -0.001359462374     0.001461525062
       6        0.000013774606     0.000006286609     0.000009754196
       7       -0.000005827042     0.000012127127     0.000011173603
       8       -0.000642158664     0.002187748270    -0.002685971944
       9       -0.000008856736    -0.000011306266     0.000002770013
      10       -0.000008721473     0.000008406260    -0.000002805597
      11       -0.000305253240    -0.002025518590     0.003697351481
      12       -0.000003700209     0.000006985093    -0.000012524311
      13       -0.000009599709    -0.000019259037    -0.000004400876
      14       -0.000010121229     0.000033068818     0.000021457980
      15        0.000462015381     0.001180614275    -0.002486399733
      16       -0.000002975373     0.000004590138     0.000003469614
      17       -0.000001979538    -0.000005604810     0.000011692392
      18       -0.000004663414     0.000004803993     0.000001952804
      19       -0.000007728593     0.000001528216     0.000000999432
      20        0.000012548020    -0.000000564888    -0.000006467616
      21       -0.000001539429    -0.000003700604     0.000006707396
      22       -0.000006129723     0.000005059497    -0.000002232941
      23        0.000004211385    -0.000001501588    -0.000000749040
      24       -0.000000673112     0.000003476938    -0.000003075686
      25        0.000001262427    -0.000003519458     0.000002621740
      26       -0.000000629447     0.000001420408     0.000001509352
      27       -0.000000750511     0.000000163712     0.000000315253
      28        0.000000666134     0.000000162240     0.000000255203
      29        0.000001192100     0.000000092442    -0.000000116360

  **** Optimization is complete! (in 9 steps) ****
    Final optimized geometry and variables:
    Molecular point group: c1

    Geometry (in Angstrom), charge = 0, multiplicity = 1:

    O            2.898764456599     0.715863638500    -0.161192700087
    C            2.430703993688    -0.103234875971     0.562084936858
    C            1.008607947674    -0.120804896681     1.067822433493
    O            3.119594745663    -1.136159104007     1.031088695893
    C            0.175723381935     1.055020727495     0.562275600402
    H            0.580253428565    -1.076853638377     0.784328442621
    H            1.051718639669    -0.127630901363     2.153681979772
    C           -1.269408736981     1.035936904083     1.077913665235
    H            0.188095338410     1.065283649697    -0.523157550704
    H            0.657235248017     1.976010889728     0.873555759114
    C           -2.175244213209    -0.019461898343     0.415993704578
    H           -1.707881730590     2.019367825646     0.931750009223
    H           -1.249478817091     0.877999878778     2.154194676458
    C           -2.909486427187     0.512314148125    -0.819355887859
    H           -1.584805528628    -0.880538828309     0.112139452825
    H           -2.907450756023    -0.382204939039     1.132315434191
    C           -3.755284581798    -0.549285806713    -1.524325644496
    H           -2.187579420742     0.920769246256    -1.524615210010
    H           -3.548693050131     1.342765825037    -0.524516570142
    C           -4.496978480497    -0.008343946428    -2.746252792753
    H           -3.116369018079    -1.376097891865    -1.827707244914
    H           -4.474181022613    -0.962785700113    -0.819885415853
    H           -5.086130749512    -0.784571652815    -3.224805999592
    H           -3.802807072190     0.382673177511    -3.484762493352
    H           -5.172335278393     0.796585685833    -2.470265290699
    C            4.474660642587    -1.238749963451     0.633299731505
    H            4.549714230040    -1.328867121977    -0.440835290091
    H            4.855845600351    -2.128010519427     1.110677272673
    H            5.032429568681    -0.371693827661     0.956765731187

  Mulliken Charges: (a.u.)
   Center  Symbol    Alpha    Beta     Spin     Total
       1     O     4.28592  4.28592  0.00000 -0.57184
       2     C     2.60542  2.60542  0.00000  0.78915
       3     C     3.20840  3.20840  0.00000 -0.41680
       4     O     4.30733  4.30733  0.00000 -0.61465
       5     C     3.15527  3.15527  0.00000 -0.31053
       6     H     0.39948  0.39948  0.00000  0.20103
       7     H     0.40082  0.40082  0.00000  0.19835
       8     C     3.16072  3.16072  0.00000 -0.32144
       9     H     0.41114  0.41114  0.00000  0.17772
      10     H     0.41024  0.41024  0.00000  0.17951
      11     C     3.15574  3.15574  0.00000 -0.31147
      12     H     0.41645  0.41645  0.00000  0.16711
      13     H     0.42209  0.42209  0.00000  0.15582
      14     C     3.15221  3.15221  0.00000 -0.30442
      15     H     0.42400  0.42400  0.00000  0.15200
      16     H     0.41988  0.41988  0.00000  0.16024
      17     C     3.15163  3.15163  0.00000 -0.30326
      18     H     0.42224  0.42224  0.00000  0.15551
      19     H     0.42344  0.42344  0.00000  0.15312
      20     C     3.23928  3.23928  0.00000 -0.47856
      21     H     0.42349  0.42349  0.00000  0.15302
      22     H     0.42332  0.42332  0.00000  0.15335
      23     H     0.41944  0.41944  0.00000  0.16111
      24     H     0.42126  0.42126  0.00000  0.15748
      25     H     0.42171  0.42171  0.00000  0.15658
      26     C     3.09240  3.09240  0.00000 -0.18480
      27     H     0.40913  0.40913  0.00000  0.18174
      28     H     0.40846  0.40846  0.00000  0.18307
      29     H     0.40907  0.40907  0.00000  0.18186

   Total alpha = 44.00000, Total beta = 44.00000, Total charge =  0.00000
