  ==> Input File <==

--------------------------------------------------------------------------
set {
	reference rhf
	basis 6-31G*
}

set_num_threads( 4 )
memory 2 gb

molecule MOL {
0 1

O	 0.605153	 -0.181537	 -0.336958
C	 1.705091	 0.115954	 0.001797
C	 2.136351	 1.478326	 0.487415
O	 2.721346	 -0.737485	 -0.000216
C	 1.003455	 2.499893	 0.511726
H	 2.570733	 1.348486	 1.474921
H	 2.950424	 1.808286	 -0.152219
C	 1.467851	 3.869891	 1.008217
H	 0.202311	 2.130400	 1.144048
H	 0.583112	 2.591557	 -0.484878
C	 0.343698	 4.906779	 1.039857
H	 1.891587	 3.770682	 2.006516
H	 2.272822	 4.233922	 0.371518
C	 0.808583	 6.275758	 1.534861
H	 -0.460143	 4.545765	 1.677548
H	 -0.080018	 5.007650	 0.043149
H	 1.206287	 6.213848	 2.543926
H	 -0.010135	 6.988524	 1.545637
H	 1.589820	 6.679217	 0.896738
C	 4.024888	 -0.184556	 -0.001949
H	 4.179030	 0.422472	 -0.882452
H	 4.701782	 -1.024608	 -0.003642
H	 4.181981	 0.421185	 0.878906

	symmetry c1
}
set optking {
	frozen_dihedral = ("
		1 2 4 20
	")
}

ee = optimize('scf')
oeprop('DIPOLE', 'QUADRUPOLE', 'MULLIKEN_CHARGES')
f=open( 'psi4out.xyz', 'w' )
f.write( "23  " )
f.write( str(ee) + "\n" )
f.write( MOL.save_string_xyz() )
f.close()
--------------------------------------------------------------------------

    Molecular point group: c1
  Charge       = 0
  Multiplicity = 1
  Basis Set: 6-31G*
  Basis Set:
  @DF-RHF Final Energy:  -422.95003964259320
    Total Energy =                       -422.9500396425934241
    Molecular point group: c1
  Basis Set: 6-31G*
  Basis Set:
  Basis Set: 6-31G*
  Basis Set:
  @DF-RHF Final Energy:  -422.94877606511955
    Total Energy =                       -422.9487760651197732
  Basis Set: 6-31G*
  Basis Set:
  Basis Set: 6-31G*
  Basis Set:
  @DF-RHF Final Energy:  -422.95777079931918
    Total Energy =                       -422.9577707993190643
  Basis Set: 6-31G*
  Basis Set:
  Basis Set: 6-31G*
  Basis Set:
  @DF-RHF Final Energy:  -422.95976656145530
    Total Energy =                       -422.9597665614558082
  Basis Set: 6-31G*
  Basis Set:
  @DF-RHF Final Energy:  -422.95879338283419
    Total Energy =                       -422.9587933828341875
  Basis Set: 6-31G*
  Basis Set:
  @DF-RHF Final Energy:  -422.96020998626346
    Total Energy =                       -422.9602099862632940
  Basis Set: 6-31G*
  Basis Set:
  Basis Set: 6-31G*
  Basis Set:
  @DF-RHF Final Energy:  -422.96043215479966
    Total Energy =                       -422.9604321547989230
  Basis Set: 6-31G*
  Basis Set:
  Basis Set: 6-31G*
  Basis Set:
  @DF-RHF Final Energy:  -422.96043332045167
    Total Energy =                       -422.9604333204518980
  Basis Set: 6-31G*
  Basis Set:
  Charge       = 0
  Multiplicity = 1
  Basis Set: 6-31G*
  Basis Set:

    Orbital Energies (a.u.)
    -----------------------

    Doubly Occupied:

       1A    -20.600378     2A    -20.540870     3A    -11.373794
       4A    -11.296253     5A    -11.245436     6A    -11.223504
       7A    -11.221867     8A    -11.219288     9A    -11.212169
      10A     -1.462403    11A     -1.365149    12A     -1.096480
      13A     -1.041857    14A     -0.986622    15A     -0.952455
      16A     -0.854325    17A     -0.799316    18A     -0.766586
      19A     -0.700246    20A     -0.688608    21A     -0.672502
      22A     -0.655217    23A     -0.613781    24A     -0.603238
      25A     -0.579901    26A     -0.567717    27A     -0.561649
      28A     -0.537910    29A     -0.517999    30A     -0.510168
      31A     -0.490115    32A     -0.472792    33A     -0.469254
      34A     -0.464510    35A     -0.447017    36A     -0.429774

  @DF-RHF Final Energy:  -422.96043353967013

   => Energetics <=

    Nuclear Repulsion Energy =            454.7249977616125989
    One-Electron Energy =               -1476.8885635105968959
    Two-Electron Energy =                 599.2031322093140489
    DFT Exchange-Correlation Energy =       0.0000000000000000
    Empirical Dispersion Energy =           0.0000000000000000
    PCM Polarization Energy =               0.0000000000000000
    EFP Energy =                            0.0000000000000000
    Total Energy =                       -422.9604335396702481
    Molecular point group: c1
  Basis Set: 6-31G*
  Basis Set:

  -Total Gradient:
     Atom            X                  Y                   Z
    ------   -----------------  -----------------  -----------------
       1        0.000589559110     0.000522939240    -0.002049843266
       2       -0.000775351438    -0.000750347548     0.001896998949
       3        0.000002239316    -0.000004652639    -0.000025654325
       4        0.000209184590     0.000236918628     0.002090666076
       5        0.000001550985    -0.000006012000     0.000007112581
       6       -0.000000784971    -0.000014100485    -0.000000197192
       7       -0.000007024403     0.000001196140     0.000002331504
       8       -0.000002642955     0.000004569679    -0.000002139352
       9        0.000003821636    -0.000001877051    -0.000000663486
      10       -0.000000177000     0.000001288916     0.000000610905
      11        0.000001114712     0.000005789161    -0.000002632042
      12       -0.000001125564    -0.000000564746     0.000000058108
      13        0.000000059158    -0.000001204096    -0.000000036566
      14       -0.000002000368    -0.000000068239     0.000001855793
      15        0.000000235007    -0.000000235591    -0.000000748193
      16        0.000000203555     0.000000857012    -0.000001013353
      17        0.000000963377     0.000000238128     0.000000534797
      18        0.000000228287    -0.000000347509     0.000001095434
      19       -0.000000789204     0.000000109594    -0.000000817373
      20       -0.000036641519    -0.000000135600    -0.001934454317
      21        0.000023395639    -0.000007772377     0.000004543788
      22        0.000001614374     0.000005983661     0.000004021564
      23       -0.000007632323     0.000007427728     0.000008369970

  **** Optimization is complete! (in 9 steps) ****
    Final optimized geometry and variables:
    Molecular point group: c1

    Geometry (in Angstrom), charge = 0, multiplicity = 1:

    O           -0.993745251066    -2.075997573718    -0.818025174140
    C            0.105303287461    -1.804162004784    -0.472919884012
    C            0.511254596100    -0.424763000073     0.008290579570
    O            1.042987313715    -2.757887615168    -0.477975459401
    C           -0.660949895488     0.552190754640     0.056280180891
    H            0.962763594651    -0.528154551571     0.992034063262
    H            1.293483104650    -0.040683408779    -0.641480205418
    C           -0.239332338590     1.938100382139     0.546635159243
    H           -1.433560651454     0.149218593830     0.702508736967
    H           -1.102389479782     0.626264504238    -0.931788688319
    C           -1.402332626378     2.930307173461     0.601493535912
    H            0.206585329730     1.855042466890     1.536831282215
    H            0.538364979157     2.334827374876    -0.104691479125
    C           -0.981951444623     4.315385804221     1.091404949853
    H           -2.179317612345     2.536840922993     1.252876259383
    H           -1.847866842011     3.016171149276    -0.386934397989
    H           -0.563253924320     4.267245697738     2.092746675999
    H           -1.827619972299     4.995281756502     1.119464774847
    H           -0.229462730570     4.750657926801     0.439759332426
    C            2.420506719618    -2.467244228920    -0.488740311970
    H            2.691415342933    -1.875110787438    -1.354400927529
    H            2.921125565698    -3.421165299628    -0.545732189073
    H            2.735186391081    -1.957382915892     0.413024081357

  Mulliken Charges: (a.u.)
   Center  Symbol    Alpha    Beta     Spin     Total
       1     O     4.26555  4.26555  0.00000 -0.53111
       2     C     2.59837  2.59837  0.00000  0.80325
       3     C     3.23392  3.23392  0.00000 -0.46783
       4     O     4.30434  4.30434  0.00000 -0.60868
       5     C     3.14884  3.14884  0.00000 -0.29768
       6     H     0.40296  0.40296  0.00000  0.19408
       7     H     0.40511  0.40511  0.00000  0.18977
       8     C     3.15385  3.15385  0.00000 -0.30769
       9     H     0.40903  0.40903  0.00000  0.18195
      10     H     0.40874  0.40874  0.00000  0.18251
      11     C     3.15188  3.15188  0.00000 -0.30377
      12     H     0.42458  0.42458  0.00000  0.15085
      13     H     0.42507  0.42507  0.00000  0.14985
      14     C     3.23970  3.23970  0.00000 -0.47940
      15     H     0.42041  0.42041  0.00000  0.15917
      16     H     0.42056  0.42056  0.00000  0.15888
      17     H     0.42186  0.42186  0.00000  0.15629
      18     H     0.41774  0.41774  0.00000  0.16452
      19     H     0.42200  0.42200  0.00000  0.15600
      20     C     3.09393  3.09393  0.00000 -0.18786
      21     H     0.41591  0.41591  0.00000  0.16818
      22     H     0.39818  0.39818  0.00000  0.20365
      23     H     0.41746  0.41746  0.00000  0.16508

   Total alpha = 36.00000, Total beta = 36.00000, Total charge =  0.00000
