  ==> Input File <==

--------------------------------------------------------------------------
set {
	reference rhf
	basis 6-31G*
}

set_num_threads( 4 )
memory 2 gb

molecule MOL {
0 1

H	 -3.042581	 -0.665861	 0.004336
O	 -2.245037	 -1.176175	 0.000806
C	 -1.162163	 -0.365336	 0.001020
C	 -0.917756	 0.548256	 -1.008409
C	 -0.281515	 -0.483599	 1.069338
H	 -1.598016	 0.639147	 -1.838444
C	 0.217642	 1.343112	 -0.937806
H	 -0.501104	 -1.205351	 1.834826
C	 0.849744	 0.310408	 1.139488
H	 0.412042	 2.052953	 -1.722264
C	 1.096407	 1.230667	 0.120543
C	 1.795499	 0.199605	 2.312676
H	 1.973602	 1.852214	 0.159763
H	 2.829335	 0.215862	 1.984487
H	 1.632769	 -0.717053	 2.866858
H	 1.657271	 1.030822	 2.998474

	symmetry c1
}
set optking {
	frozen_dihedral = ("
		5 3 2 1
	")
}

ee = optimize('scf')
oeprop('DIPOLE', 'QUADRUPOLE', 'MULLIKEN_CHARGES')
f=open( 'psi4out.xyz', 'w' )
f.write( "16  " )
f.write( str(ee) + "\n" )
f.write( MOL.save_string_xyz() )
f.close()
--------------------------------------------------------------------------

    Molecular point group: c1
  Charge       = 0
  Multiplicity = 1
  Basis Set: 6-31G*
  Basis Set:
  @DF-RHF Final Energy:  -344.59122436695122
    Total Energy =                       -344.5912243669511099
    Molecular point group: c1
  Basis Set: 6-31G*
  Basis Set:
  Basis Set: 6-31G*
  Basis Set:
  @DF-RHF Final Energy:  -344.59157388005593
    Total Energy =                       -344.5915738800554777
  Basis Set: 6-31G*
  Basis Set:
  Basis Set: 6-31G*
  Basis Set:
  @DF-RHF Final Energy:  -344.59161208332466
    Total Energy =                       -344.5916120833244349
  Basis Set: 6-31G*
  Basis Set:
  Basis Set: 6-31G*
  Basis Set:
  @DF-RHF Final Energy:  -344.59161583459399
    Total Energy =                       -344.5916158345938811
  Basis Set: 6-31G*
  Basis Set:
  Basis Set: 6-31G*
  Basis Set:
  @DF-RHF Final Energy:  -344.59161689369120
    Total Energy =                       -344.5916168936912527
  Basis Set: 6-31G*
  Basis Set:
  Charge       = 0
  Multiplicity = 1
  Basis Set: 6-31G*
  Basis Set:

    Orbital Energies (a.u.)
    -----------------------

    Doubly Occupied:

       1A    -20.577592     2A    -11.288666     3A    -11.241107
       4A    -11.233498     5A    -11.222463     6A    -11.221204
       7A    -11.220527     8A    -11.219008     9A     -1.393305
      10A     -1.149783    11A     -1.042947    12A     -1.003693
      13A     -0.936059    14A     -0.824406    15A     -0.812328
      16A     -0.713584    17A     -0.677006    18A     -0.653765
      19A     -0.617772    20A     -0.588891    21A     -0.574729
      22A     -0.567777    23A     -0.550856    24A     -0.513842
      25A     -0.503827    26A     -0.480685    27A     -0.463646
      28A     -0.328673    29A     -0.315370

  @DF-RHF Final Energy:  -344.59161723811434

   => Energetics <=

    Nuclear Repulsion Energy =            345.0928183475733135
    One-Electron Energy =               -1151.4948511292268449
    Two-Electron Energy =                 461.8104155435393636
    DFT Exchange-Correlation Energy =       0.0000000000000000
    Empirical Dispersion Energy =           0.0000000000000000
    PCM Polarization Energy =               0.0000000000000000
    EFP Energy =                            0.0000000000000000
    Total Energy =                       -344.5916172381142246
    Molecular point group: c1
  Basis Set: 6-31G*
  Basis Set:

  -Total Gradient:
     Atom            X                  Y                   Z
    ------   -----------------  -----------------  -----------------
       1       -0.000048433775    -0.000051877468     0.002131143192
       2       -0.000376179108     0.000550069969    -0.002249570003
       3        0.001261375922    -0.001539182699    -0.000700586563
       4       -0.000014527384     0.000020254930    -0.000008787766
       5       -0.000850834487     0.000996702561     0.000822419863
       6       -0.000002235479    -0.000001523863     0.000004998434
       7       -0.000015949771    -0.000040114889    -0.000006921898
       8        0.000007123927     0.000018159047    -0.000017933458
       9        0.000008787308     0.000037194219    -0.000017508577
      10        0.000004359939     0.000003373141     0.000002154988
      11        0.000015401971     0.000003792841     0.000030623070
      12        0.000003703339     0.000002348875     0.000002572478
      13       -0.000005505205     0.000001912435     0.000007480732
      14        0.000005976855    -0.000009820964    -0.000000412726
      15       -0.000001887859     0.000004310703     0.000008078644
      16        0.000008823807     0.000004401164    -0.000007750409

  **** Optimization is complete! (in 6 steps) ****
    Final optimized geometry and variables:
    Molecular point group: c1

    Geometry (in Angstrom), charge = 0, multiplicity = 1:

    H           -2.926037154897    -0.830398860496    -0.383905756494
    O           -2.131417319198    -1.346243028827    -0.382518674515
    C           -1.037168863646    -0.526917081079    -0.347534705583
    C           -0.795171506949     0.383178310543    -1.360827444679
    C           -0.160448807017    -0.641798154908     0.719314085171
    H           -1.474807115772     0.453373369260    -2.191411543728
    C            0.336943772788     1.179848941265    -1.293315548076
    H           -0.381368092855    -1.360120167519     1.487839528021
    C            0.979860949970     0.146183550681     0.785201056883
    H            0.534261589121     1.888626345539    -2.077962654528
    C            1.219110632270     1.063138195366    -0.234396562422
    C            1.930143801040     0.034212700313     1.955035172584
    H            2.097862836593     1.683365516575    -0.199852598358
    H            2.962919484308     0.050811616534     1.623411460752
    H            1.770130054031    -0.884340149963     2.507183132364
    H            1.795376064583     0.862978906662     2.644656295047

  Mulliken Charges: (a.u.)
   Center  Symbol    Alpha    Beta     Spin     Total
       1     H     0.27196  0.27196  0.00000  0.45608
       2     O     4.38716  4.38716  0.00000 -0.77433
       3     C     2.80783  2.80783  0.00000  0.38434
       4     C     3.13184  3.13184  0.00000 -0.26368
       5     C     3.13506  3.13506  0.00000 -0.27013
       6     H     0.39882  0.39882  0.00000  0.20236
       7     C     3.09183  3.09183  0.00000 -0.18367
       8     H     0.39513  0.39513  0.00000  0.20975
       9     C     2.97332  2.97332  0.00000  0.05337
      10     H     0.39871  0.39871  0.00000  0.20258
      11     C     3.11863  3.11863  0.00000 -0.23726
      12     C     3.25422  3.25422  0.00000 -0.50844
      13     H     0.40264  0.40264  0.00000  0.19472
      14     H     0.41152  0.41152  0.00000  0.17695
      15     H     0.41158  0.41158  0.00000  0.17684
      16     H     0.40974  0.40974  0.00000  0.18053

   Total alpha = 29.00000, Total beta = 29.00000, Total charge = -0.00000
