  ==> Input File <==

--------------------------------------------------------------------------
set {
	reference rhf
	basis cc-pvtz
}

set_num_threads( 4 )
memory 2 gb

molecule MOL {
0 1

H	 -0.242421	 -2.651075	 -4.343420
C	 0.184048	 -2.220876	 -3.458452
C	 -0.261968	 -2.606520	 -2.202195
C	 1.181591	 -1.278264	 -3.549379
H	 -1.039772	 -3.340910	 -2.111506
C	 0.281644	 -2.057905	 -1.065740
H	 1.539714	 -0.967274	 -4.512562
C	 1.741680	 -0.713999	 -2.411700
H	 -0.055786	 -2.348929	 -0.090489
C	 1.290155	 -1.105135	 -1.164617
H	 2.516362	 0.017023	 -2.516276
O	 1.760432	 -0.625184	 0.000000
C	 2.773565	 0.334879	 0.000000
H	 2.728295	 0.960928	 -0.884150
H	 3.706387	 -0.206610	 0.000000
H	 2.728295	 0.960928	 0.884150

	symmetry c1
}
set optking {
	frozen_dihedral = ("
		10 12 13 14
	")
}

ee = optimize('scf')
oeprop('DIPOLE', 'QUADRUPOLE', 'MULLIKEN_CHARGES')
f=open( 'psi4out.xyz', 'w' )
f.write( "16  " )
f.write( str(ee) + "\n" )
f.write( MOL.save_string_xyz() )
f.close()
--------------------------------------------------------------------------

    Molecular point group: c1
  Charge       = 0
  Multiplicity = 1
  Basis Set: CC-PVTZ
  Basis Set:
  @DF-RHF Final Energy:  -344.69877499850475
    Total Energy =                       -344.6987749985048595
    Molecular point group: c1
  Basis Set: CC-PVTZ
  Basis Set:
  Basis Set: CC-PVTZ
  Basis Set:
  @DF-RHF Final Energy:  -344.70019623359372
    Total Energy =                       -344.7001962335940561
  Basis Set: CC-PVTZ
  Basis Set:
  Basis Set: CC-PVTZ
  Basis Set:
  @DF-RHF Final Energy:  -344.70148357505451
    Total Energy =                       -344.7014835750544535
  Basis Set: CC-PVTZ
  Basis Set:
  Basis Set: CC-PVTZ
  Basis Set:
  @DF-RHF Final Energy:  -344.70174994895194
    Total Energy =                       -344.7017499489519423
  Basis Set: CC-PVTZ
  Basis Set:
  Basis Set: CC-PVTZ
  Basis Set:
  @DF-RHF Final Energy:  -344.70179591163168
    Total Energy =                       -344.7017959116314501
  Basis Set: CC-PVTZ
  Basis Set:
  Basis Set: CC-PVTZ
  Basis Set:
  @DF-RHF Final Energy:  -344.70179930196190
    Total Energy =                       -344.7017993019617279
  Basis Set: CC-PVTZ
  Basis Set:
  Charge       = 0
  Multiplicity = 1
  Basis Set: CC-PVTZ
  Basis Set:

    Orbital Energies (a.u.)
    -----------------------

    Doubly Occupied:

       1A    -20.577357     2A    -11.293041     3A    -11.277937
       4A    -11.231402     5A    -11.230054     6A    -11.222199
       7A    -11.218213     8A    -11.217559     9A     -1.416511
      10A     -1.151077    11A     -1.024992    12A     -1.016888
      13A     -0.943259    14A     -0.835153    15A     -0.808545
      16A     -0.724988    17A     -0.667676    18A     -0.666596
      19A     -0.656898    20A     -0.618796    21A     -0.591445
      22A     -0.582072    23A     -0.527765    24A     -0.521316
      25A     -0.512232    26A     -0.482084    27A     -0.461484
      28A     -0.339673    29A     -0.311165

  @DF-RHF Final Energy:  -344.70180069008325

   => Energetics <=

    Nuclear Repulsion Energy =            348.6758279844691515
    One-Electron Energy =               -1158.4984993208561264
    Two-Electron Energy =                 465.1208706463038425
    DFT Exchange-Correlation Energy =       0.0000000000000000
    Empirical Dispersion Energy =           0.0000000000000000
    PCM Polarization Energy =               0.0000000000000000
    EFP Energy =                            0.0000000000000000
    Total Energy =                       -344.7018006900831324
    Molecular point group: c1
  Basis Set: CC-PVTZ
  Basis Set:

  -Total Gradient:
     Atom            X                  Y                   Z
    ------   -----------------  -----------------  -----------------
       1       -0.000010270175    -0.000027528932     0.000008810469
       2        0.000105018774     0.000105930010    -0.000077180891
       3       -0.000011498091     0.000018152246     0.000183378002
       4       -0.000105955000    -0.000075818898    -0.000058747187
       5       -0.000000359196     0.000002442737    -0.000015483075
       6       -0.000073165103    -0.000113656338    -0.000086535762
       7        0.000014162800     0.000002738200     0.000018678476
       8       -0.000001447299    -0.000021949548     0.000138692578
       9       -0.000004799294     0.000003854090     0.000011317569
      10       -0.002148897106     0.001535138814     0.000427942592
      11        0.000012217814     0.000015886440     0.000002795793
      12        0.003922700538    -0.002507132419    -0.001436461017
      13       -0.003606998165     0.002303598029     0.002949615415
      14        0.001949235890    -0.001190812982    -0.002114584032
      15       -0.000040673316    -0.000059388115     0.000021598671
      16        0.000000726930     0.000008546666     0.000026162403

  **** Optimization is complete! (in 7 steps) ****
    Final optimized geometry and variables:
    Molecular point group: c1

    Geometry (in Angstrom), charge = 0, multiplicity = 1:

    H           -1.559654782223    -1.285163790483    -2.663681773908
    C           -1.073466809387    -0.908355451635    -1.785107989288
    C           -1.522599449144    -1.268398285799    -0.523758219039
    C            0.008291080729    -0.063322829644    -1.891924675459
    H           -2.363747597353    -1.927705417335    -0.422256957346
    C           -0.904404531494    -0.785105760310     0.606126733404
    H            0.374884880762     0.219568937571    -2.860533349547
    C            0.645219535304     0.427854726540    -0.762658244265
    H           -1.245142493722    -1.055331572530     1.586192612719
    C            0.183122180838     0.071479087049     0.491421749790
    H            1.496354413306     1.068801894833    -0.873018959890
    O            0.748019335339     0.476532269952     1.644004783148
    C            1.511591361733     1.648520843552     1.683809240047
    H            1.172327435773     2.372779084184     0.954913428669
    H            2.557035638117     1.432589376084     1.490770165587
    H            1.415936070954     2.057738821665     2.677854429515

  Mulliken Charges: (a.u.)
   Center  Symbol    Alpha    Beta     Spin     Total
       1     H     0.42435  0.42435  0.00000  0.15130
       2     C     3.09946  3.09946  0.00000 -0.19891
       3     C     3.05900  3.05900  0.00000 -0.11800
       4     C     3.06302  3.06302  0.00000 -0.12604
       5     H     0.42291  0.42291  0.00000  0.15419
       6     C     3.11006  3.11006  0.00000 -0.22012
       7     H     0.42315  0.42315  0.00000  0.15370
       8     C     3.13683  3.13683  0.00000 -0.27367
       9     H     0.42011  0.42011  0.00000  0.15978
      10     C     2.85473  2.85473  0.00000  0.29053
      11     H     0.42321  0.42321  0.00000  0.15359
      12     O     4.15650  4.15650  0.00000 -0.31300
      13     C     3.04243  3.04243  0.00000 -0.08486
      14     H     0.46380  0.46380  0.00000  0.07239
      15     H     0.45852  0.45852  0.00000  0.08295
      16     H     0.44192  0.44192  0.00000  0.11617

   Total alpha = 29.00000, Total beta = 29.00000, Total charge = -0.00000
