                              Psi4 1.0.54 Driver

  ==> Input File <==

--------------------------------------------------------------------------
set {
	reference rhf
	basis cc-pvtz
}

set_num_threads( 4 )
memory 2 gb

molecule MOL {
0 1

H	 -3.436473	 1.252944	 -1.023892
O	 -3.458596	 0.315260	 -0.960865
C	 -3.176635	 -0.080824	 0.355601
C	 -1.763371	 0.265266	 0.799691
H	 -3.321825	 -1.153438	 0.379502
H	 -3.895468	 0.357385	 1.043382
C	 -0.673390	 -0.426948	 -0.013392
H	 -1.631049	 1.344913	 0.747560
H	 -1.664587	 -0.001624	 1.849167
C	 0.737842	 -0.043159	 0.423759
H	 -0.806103	 -0.190518	 -1.063345
H	 -0.797221	 -1.503753	 0.074146
C	 1.824000	 -0.743224	 -0.390623
H	 0.850588	 1.033777	 0.343840
H	 0.868587	 -0.286314	 1.476203
C	 1.413896	 -2.091082	 -0.986394
H	 2.705631	 -0.880654	 0.231221
H	 2.126445	 -0.086594	 -1.201785
C	 1.144127	 -3.187650	 0.041179
H	 2.203390	 -2.426068	 -1.652171
H	 0.532413	 -1.955074	 -1.607611
H	 2.007036	 -3.341827	 0.681253
H	 0.926071	 -4.129272	 -0.449781
H	 0.299609	 -2.949672	 0.676601

	symmetry c1
}
set optking {
	frozen_dihedral = ("
		17 13 10 7
	")
}

ee,wfn = optimize('scf', return_wfn=True)
oeprop( wfn, 'DIPOLE', 'QUADRUPOLE', 'MULLIKEN_CHARGES')
f=open( 'psi4out.xyz', 'w' )
f.write( "24  " )
f.write( str(ee) + "\n" )
f.write( MOL.save_string_xyz() )
f.close()
--------------------------------------------------------------------------

    Molecular point group: c1
  Charge       = 0
  Multiplicity = 1
  Basis Set: CC-PVTZ
  Basis Set:
  @DF-RHF Final Energy:  -349.36956971874400
    Total Energy =                       -349.3695697187440601
    Molecular point group: c1
  Basis Set: CC-PVTZ
  Basis Set:
  Basis Set: CC-PVTZ
  Basis Set:
  @DF-RHF Final Energy:  -349.33201591137822
    Total Energy =                       -349.3320159113786758
  Basis Set: CC-PVTZ
  Basis Set:
  Basis Set: CC-PVTZ
  Basis Set:
  @DF-RHF Final Energy:  -349.37142080279671
    Total Energy =                       -349.3714208027964219
  Basis Set: CC-PVTZ
  Basis Set:
  Basis Set: CC-PVTZ
  Basis Set:
  @DF-RHF Final Energy:  -349.37346515166581
    Total Energy =                       -349.3734651516655276
  Basis Set: CC-PVTZ
  Basis Set:
  Basis Set: CC-PVTZ
  Basis Set:
  @DF-RHF Final Energy:  -349.37374450452654
    Total Energy =                       -349.3737445045264849
  Basis Set: CC-PVTZ
  Basis Set:
  Basis Set: CC-PVTZ
  Basis Set:
  @DF-RHF Final Energy:  -349.37375735233684
    Total Energy =                       -349.3737573523368383
  Basis Set: CC-PVTZ
  Basis Set:
  Basis Set: CC-PVTZ
  Basis Set:
  @DF-RHF Final Energy:  -349.37376011466739
    Total Energy =                       -349.3737601146675047
  Basis Set: CC-PVTZ
  Basis Set:
  Charge       = 0
  Multiplicity = 1
  Basis Set: CC-PVTZ
  Basis Set:

    Orbital Energies (a.u.)
    -----------------------

    Doubly Occupied:

       1A    -20.546410     2A    -11.265647     3A    -11.215265
       4A    -11.211215     5A    -11.210424     6A    -11.209814
       7A    -11.208844     8A    -11.204744     9A     -1.364252
      10A     -1.088634    11A     -1.046818    12A     -0.983931
      13A     -0.918713    14A     -0.852788    15A     -0.811835
      16A     -0.760251    17A     -0.683011    18A     -0.654473
      19A     -0.621938    20A     -0.620522    21A     -0.612216
      22A     -0.577542    23A     -0.553687    24A     -0.544573
      25A     -0.520637    26A     -0.512027    27A     -0.495025
      28A     -0.479901    29A     -0.469333    30A     -0.461260
      31A     -0.447999    32A     -0.442942    33A     -0.423021

  @DF-RHF Final Energy:  -349.37376178056854

   => Energetics <=

    Nuclear Repulsion Energy =            393.9178509244821953
    One-Electron Energy =               -1254.5438457743966865
    Two-Electron Energy =                 511.2522330693459480
    DFT Exchange-Correlation Energy =       0.0000000000000000
    Empirical Dispersion Energy =           0.0000000000000000
    PCM Polarization Energy =               0.0000000000000000
    EFP Energy =                            0.0000000000000000
    Total Energy =                       -349.3737617805685431
    Molecular point group: c1
  Basis Set: CC-PVTZ
  Basis Set:

  -Total Gradient:
     Atom            X                  Y                   Z
    ------   -----------------  -----------------  -----------------
       1       -0.000000116311     0.000000496538     0.000009177120
       2       -0.000007232439    -0.000023569053    -0.000029614211
       3        0.000008437406     0.000035628448     0.000023086867
       4        0.000003946293    -0.000018903950     0.000012647414
       5       -0.000001876196     0.000008063682    -0.000012229964
       6        0.000002905207    -0.000011487534     0.000004417652
       7       -0.000473634179    -0.002993973173     0.004785878543
       8       -0.000000685248    -0.000003050279     0.000000119887
       9        0.000001362213     0.000002796833    -0.000001719847
      10       -0.000072992275     0.003209978762    -0.006078429858
      11       -0.000004225812    -0.000006631528     0.000004629631
      12        0.000006866335    -0.000007980524     0.000001857742
      13        0.004030895661     0.005083780774    -0.002783615950
      14        0.000001019033     0.000002542203    -0.000000608387
      15        0.000000572813    -0.000001460350     0.000004537846
      16       -0.000016941601    -0.000014143470    -0.000002552298
      17       -0.003479065281    -0.005263700819     0.004075798423
      18       -0.000000818251     0.000005235999    -0.000007498510
      19        0.000019455035    -0.000003279356     0.000003935758
      20        0.000014726584    -0.000002122197    -0.000010929994
      21       -0.000013056869    -0.000006883990    -0.000002649579
      22       -0.000009976883    -0.000001366060    -0.000002132420
      23       -0.000001359304     0.000008066047    -0.000005258891
      24       -0.000008205944     0.000001962998     0.000011153026

  **** Optimization is complete! (in 8 steps) ****
    Final optimized geometry and variables:
    Molecular point group: c1

    Geometry (in Angstrom), charge = 0, multiplicity = 1:

    H           -2.611221098835     2.180113289947    -1.443174116044
    O           -2.818967026278     1.348312614427    -1.057635102085
    C           -2.476648827836     1.355209950429     0.303303196449
    C           -0.981471426639     1.491618883513     0.548533242669
    H           -2.835339876841     0.415055824750     0.702871354312
    H           -3.007865576675     2.149398139463     0.821836645443
    C           -0.155282255062     0.338947012172    -0.016566884017
    H           -0.638117513647     2.433744507414     0.124260389585
    H           -0.821414656222     1.566964639616     1.621554345855
    C            1.340591505127     0.520272552609     0.239800597384
    H           -0.347813014383     0.256147071152    -1.080907925424
    H           -0.502150481658    -0.586432963119     0.428211986858
    C            2.283749435429    -0.553182994493    -0.344379485065
    H            1.651939013854     1.489742548241    -0.136626553719
    H            1.486027375634     0.566083228249     1.316118647803
    C            1.728611939793    -1.978904675187    -0.457467225968
    H            3.152111705521    -0.626870719690     0.303695487779
    H            2.626242828438    -0.238529956970    -1.323846671066
    C            1.528286588154    -2.675650185003     0.886837660391
    H            2.432268214486    -2.563398524171    -1.042559597232
    H            0.800383511494    -1.984159571602    -1.017322794724
    H            2.468043113899    -2.752723528879     1.424173219751
    H            1.144286264087    -3.680282344354     0.750455002540
    H            0.832097735191    -2.143192189132     1.524048352991

  Mulliken Charges: (a.u.)
   Center  Symbol    Alpha    Beta     Spin     Total
       1     H     0.39517  0.39517  0.00000  0.20966
       2     O     4.20393  4.20393  0.00000 -0.40786
       3     C     2.97732  2.97732  0.00000  0.04535
       4     C     3.10526  3.10526  0.00000 -0.21053
       5     H     0.45897  0.45897  0.00000  0.08206
       6     H     0.46005  0.46005  0.00000  0.07991
       7     C     3.09094  3.09094  0.00000 -0.18188
       8     H     0.45788  0.45788  0.00000  0.08425
       9     H     0.45319  0.45319  0.00000  0.09361
      10     C     3.10509  3.10509  0.00000 -0.21018
      11     H     0.44484  0.44484  0.00000  0.11033
      12     H     0.45073  0.45073  0.00000  0.09855
      13     C     3.09618  3.09618  0.00000 -0.19235
      14     H     0.44674  0.44674  0.00000  0.10652
      15     H     0.45256  0.45256  0.00000  0.09488
      16     C     3.10082  3.10082  0.00000 -0.20164
      17     H     0.45263  0.45263  0.00000  0.09474
      18     H     0.44697  0.44697  0.00000  0.10605
      19     C     3.14953  3.14953  0.00000 -0.29905
      20     H     0.44433  0.44433  0.00000  0.11135
      21     H     0.44914  0.44914  0.00000  0.10173
      22     H     0.45422  0.45422  0.00000  0.09157
      23     H     0.44731  0.44731  0.00000  0.10538
      24     H     0.45621  0.45621  0.00000  0.08758

   Total alpha = 33.00000, Total beta = 33.00000, Total charge = -0.00000

*** Psi4 exiting successfully. Buy a developer a beer!
