  ==> Input File <==

--------------------------------------------------------------------------
set {
	reference rhf
	basis 6-31G*
}

set_num_threads( 1 )
memory 2 gb

molecule MOL {
0 1

H	 2.176868	 -0.646004	 -0.217325
O	 1.337496	 -0.537251	 0.205931
C	 0.702312	 0.627605	 -0.264544
C	 -0.714990	 0.596302	 0.266387
H	 0.682322	 0.642550	 -1.350929
H	 1.215941	 1.520383	 0.085680
O	 -1.405996	 -0.526611	 -0.195820
H	 -1.257453	 1.468809	 -0.075599
H	 -0.688972	 0.618407	 1.353696
H	 -2.320071	 -0.417816	 0.033623

	symmetry c1
}
set optking {
	frozen_dihedral = ("
		5 3 4 7
	")
}

ee = energy('scf')
oeprop('DIPOLE', 'QUADRUPOLE', 'MULLIKEN_CHARGES')
f=open( 'psi4out.xyz', 'w' )
f.write( "10  " )
f.write( str(ee) + "\n" )
f.write( MOL.save_string_xyz() )
f.close()
--------------------------------------------------------------------------

    Molecular point group: c1

    Geometry (in Angstrom), charge = 0, multiplicity = 1:

       Center              X                  Y                   Z               Mass
    ------------   -----------------  -----------------  -----------------  -----------------
           H          2.200090515771    -0.660217572621    -0.217512786081     1.007825032070
           O          1.360718515771    -0.551464572621     0.205743213919    15.994914619560
           C          0.725534515771     0.613391427379    -0.264731786081    12.000000000000
           C         -0.691767484229     0.582088427379     0.266199213919    12.000000000000
           H          0.705544515771     0.628336427379    -1.351116786081     1.007825032070
           H          1.239163515771     1.506169427379     0.085492213919     1.007825032070
           O         -1.382773484229    -0.540824572621    -0.196007786081    15.994914619560
           H         -1.234230484229     1.454595427379    -0.075786786081     1.007825032070
           H         -0.665749484229     0.604193427379     1.353508213919     1.007825032070
           H         -2.296848484229    -0.432029572621     0.033435213919     1.007825032070

  Charge       = 0
  Multiplicity = 1
  Basis Set: 6-31G*
  Basis Set:

    Orbital Energies (a.u.)
    -----------------------

    Doubly Occupied:

       1A    -20.551096     2A    -20.550597     3A    -11.272609
       4A    -11.269135     5A     -1.370022     6A     -1.347756
       7A     -1.000222     8A     -0.831003     9A     -0.718192
      10A     -0.696023    11A     -0.624064    12A     -0.596530
      13A     -0.583712    14A     -0.520051    15A     -0.477394
      16A     -0.440586    17A     -0.434762

  @DF-RHF Final Energy:  -228.91701439957251

   => Energetics <=

    Nuclear Repulsion Energy =            133.6650108198575708
    One-Electron Energy =                -578.5965550067185177
    Two-Electron Energy =                 216.0145297872881542
    DFT Exchange-Correlation Energy =       0.0000000000000000
    Empirical Dispersion Energy =           0.0000000000000000
    PCM Polarization Energy =               0.0000000000000000
    EFP Energy =                            0.0000000000000000
    Total Energy =                       -228.9170143995727926

  Mulliken Charges: (a.u.)
   Center  Symbol    Alpha    Beta     Spin     Total
       1     H     0.28034  0.28034  0.00000  0.43932
       2     O     4.36535  4.36535  0.00000 -0.73071
       3     C     3.00168  3.00168  0.00000 -0.00336
       4     C     2.99860  2.99860  0.00000  0.00279
       5     H     0.42434  0.42434  0.00000  0.15132
       6     H     0.42921  0.42921  0.00000  0.14158
       7     O     4.36250  4.36250  0.00000 -0.72501
       8     H     0.43346  0.43346  0.00000  0.13308
       9     H     0.42367  0.42367  0.00000  0.15266
      10     H     0.28083  0.28083  0.00000  0.43834

   Total alpha = 17.00000, Total beta = 17.00000, Total charge = -0.00000
