                              Psi4 1.0.54 Driver

  ==> Input File <==

--------------------------------------------------------------------------
set {
	reference rhf
	basis cc-pvtz
}

set_num_threads( 4 )
memory 2 gb

molecule MOL {
0 1

H	 -3.573224	 -0.922223	 0.045907
O	 -3.515113	 -0.019339	 -0.206321
C	 -2.302264	 0.528872	 0.237390
C	 -1.175688	 -0.398187	 -0.171891
H	 -2.148018	 1.514076	 -0.197759
H	 -2.310727	 0.646384	 1.319032
C	 0.196029	 0.106276	 0.266738
H	 -1.201873	 -0.515469	 -1.250677
H	 -1.365975	 -1.378728	 0.252664
C	 1.330220	 -0.826136	 -0.155230
H	 0.359542	 1.097229	 -0.145561
H	 0.212134	 0.218135	 1.348778
C	 2.719700	 -0.407669	 0.328325
H	 1.339388	 -0.911200	 -1.239363
H	 1.119001	 -1.821953	 0.224128
C	 3.241564	 0.893452	 -0.276737
H	 3.418299	 -1.204729	 0.093035
H	 2.711776	 -0.323368	 1.411960
H	 3.254204	 0.841071	 -1.360784
H	 2.634460	 1.745075	 0.005842
H	 4.254264	 1.092401	 0.054971

	symmetry c1
}
set optking {
	frozen_dihedral = ("
		1 2 3 5
	")
}

ee,wfn = optimize('scf', return_wfn=True)
oeprop( wfn, 'DIPOLE', 'QUADRUPOLE', 'MULLIKEN_CHARGES')
f=open( 'psi4out.xyz', 'w' )
f.write( "21  " )
f.write( str(ee) + "\n" )
f.write( MOL.save_string_xyz() )
f.close()
--------------------------------------------------------------------------

    Molecular point group: c1
  Charge       = 0
  Multiplicity = 1
  Basis Set: CC-PVTZ
  Basis Set:
  @DF-RHF Final Energy:  -310.33083116684043
    Total Energy =                       -310.3308311668401416
    Molecular point group: c1
  Basis Set: CC-PVTZ
  Basis Set:
  Basis Set: CC-PVTZ
  Basis Set:
  @DF-RHF Final Energy:  -310.33225636567130
    Total Energy =                       -310.3322563656711282
  Basis Set: CC-PVTZ
  Basis Set:
  Basis Set: CC-PVTZ
  Basis Set:
  @DF-RHF Final Energy:  -310.33261239358632
    Total Energy =                       -310.3326123935863734
  Basis Set: CC-PVTZ
  Basis Set:
  Basis Set: CC-PVTZ
  Basis Set:
  @DF-RHF Final Energy:  -310.33261662047693
    Total Energy =                       -310.3326166204767560
  Basis Set: CC-PVTZ
  Basis Set:
  Charge       = 0
  Multiplicity = 1
  Basis Set: CC-PVTZ
  Basis Set:

    Orbital Energies (a.u.)
    -----------------------

    Doubly Occupied:

       1A    -20.544834     2A    -11.264494     3A    -11.217696
       4A    -11.216509     5A    -11.216066     6A    -11.215276
       7A    -11.208175     8A     -1.363104     9A     -1.091138
      10A     -1.036684    11A     -0.956692    12A     -0.880894
      13A     -0.822085    14A     -0.782161    15A     -0.688865
      16A     -0.652199    17A     -0.623176    18A     -0.611652
      19A     -0.596348    20A     -0.578755    21A     -0.539960
      22A     -0.535853    23A     -0.507143    24A     -0.491289
      25A     -0.487055    26A     -0.465259    27A     -0.459687
      28A     -0.456087    29A     -0.426719

  @DF-RHF Final Energy:  -310.33261687151833

   => Energetics <=

    Nuclear Repulsion Energy =            312.8293197226649909
    One-Electron Energy =               -1040.4521659605993591
    Two-Electron Energy =                 417.2902293664160425
    DFT Exchange-Correlation Energy =       0.0000000000000000
    Empirical Dispersion Energy =           0.0000000000000000
    PCM Polarization Energy =               0.0000000000000000
    EFP Energy =                            0.0000000000000000
    Total Energy =                       -310.3326168715183258
    Molecular point group: c1
  Basis Set: CC-PVTZ
  Basis Set:

  -Total Gradient:
     Atom            X                  Y                   Z
    ------   -----------------  -----------------  -----------------
       1        0.000452077372    -0.000277700318    -0.000930809344
       2       -0.000440837383     0.000276101141     0.000997945536
       3       -0.000371687749     0.000392361680     0.000675172885
       4       -0.000042427639     0.000000750734     0.000014186963
       5        0.000390966085    -0.000396395421    -0.000732070704
       6       -0.000013597274    -0.000011510383    -0.000003569202
       7       -0.000031426467     0.000000571389    -0.000020218469
       8       -0.000001941135    -0.000001646868     0.000002421242
       9       -0.000008026440     0.000010120949    -0.000009407222
      10        0.000034895647     0.000022059629    -0.000011928609
      11       -0.000011007073    -0.000025891451     0.000004697952
      12        0.000008691312     0.000007695598    -0.000000281151
      13       -0.000002752660    -0.000005346662     0.000025077831
      14       -0.000004972856     0.000015281301    -0.000002115707
      15        0.000005400532     0.000000492492    -0.000008549209
      16        0.000007939731    -0.000001380211    -0.000007404774
      17        0.000003657069    -0.000003400732     0.000010331099
      18       -0.000000251413     0.000008029339     0.000005584746
      19       -0.000001088388     0.000005000081    -0.000006877409
      20        0.000026380097    -0.000007749578     0.000001649187
      21        0.000000008633    -0.000007442711    -0.000003835642

  **** Optimization is complete! (in 5 steps) ****
    Final optimized geometry and variables:
    Molecular point group: c1

    Geometry (in Angstrom), charge = 0, multiplicity = 1:

    H           -3.665316451915    -0.882571650551     0.045679538186
    O           -3.562867014749     0.021540101995    -0.190154348205
    C           -2.313000148008     0.488604575885     0.239649958309
    C           -1.167518919520    -0.422237575293    -0.171450407993
    H           -2.187051433082     1.463169873997    -0.214274667400
    H           -2.310170994115     0.627387987568     1.318721422219
    C            0.197175042231     0.107990921439     0.259470428459
    H           -1.194664934494    -0.548278183986    -1.249510745463
    H           -1.325119428173    -1.408699405570     0.262089535743
    C            1.347896810708    -0.808115598108    -0.153236595224
    H            0.340166526461     1.096675337041    -0.164773755321
    H            0.211433618194     0.233223846193     1.339772350955
    C            2.729106519742    -0.360766882257     0.328229453404
    H            1.359937723104    -0.902449864441    -1.236526231273
    H            1.154363149549    -1.804328716953     0.234990938225
    C            3.230088397559     0.941803886836    -0.290949506600
    H            3.441271007955    -1.148659762629     0.103257831681
    H            2.717451752245    -0.264323189060     1.410754958383
    H            3.244398580747     0.877644160503    -1.374288678453
    H            2.609374997057     1.786631115553    -0.017997070845
    H            4.239136356804     1.160457406013     0.039157716389

  Mulliken Charges: (a.u.)
   Center  Symbol    Alpha    Beta     Spin     Total
       1     H     0.39451  0.39451  0.00000  0.21097
       2     O     4.20187  4.20187  0.00000 -0.40374
       3     C     2.96199  2.96199  0.00000  0.07602
       4     C     3.09684  3.09684  0.00000 -0.19367
       5     H     0.45700  0.45700  0.00000  0.08600
       6     H     0.47264  0.47264  0.00000  0.05473
       7     C     3.10284  3.10284  0.00000 -0.20568
       8     H     0.44849  0.44849  0.00000  0.10302
       9     H     0.46270  0.46270  0.00000  0.07460
      10     C     3.09425  3.09425  0.00000 -0.18849
      11     H     0.45040  0.45040  0.00000  0.09920
      12     H     0.45427  0.45427  0.00000  0.09146
      13     C     3.09036  3.09036  0.00000 -0.18073
      14     H     0.45279  0.45279  0.00000  0.09441
      15     H     0.44948  0.44948  0.00000  0.10104
      16     C     3.15232  3.15232  0.00000 -0.30465
      17     H     0.44823  0.44823  0.00000  0.10354
      18     H     0.45468  0.45468  0.00000  0.09065
      19     H     0.45449  0.45449  0.00000  0.09102
      20     H     0.45374  0.45374  0.00000  0.09252
      21     H     0.44611  0.44611  0.00000  0.10778

   Total alpha = 29.00000, Total beta = 29.00000, Total charge = -0.00000

*** Psi4 exiting successfully. Buy a developer a beer!
