  ==> Input File <==

--------------------------------------------------------------------------
set {
	reference rhf
	basis cc-pvtz
}

set_num_threads( 4 )
memory 2 gb

molecule MOL {
0 1

H	 -1.835082	 1.385983	 0.000069
C	 -1.300516	 0.441153	 -0.000028
O	 -0.006604	 0.654344	 -0.000106
O	 -1.828920	 -0.612308	 0.000113
C	 0.852093	 -0.482521	 -0.000161
C	 0.534154	 -1.300568	 1.228828
H	 1.878684	 -0.144780	 -0.000222
H	 0.686628	 -1.045153	 -0.907921
H	 0.700573	 -0.723634	 2.129618
H	 1.172191	 -2.175700	 1.258961
H	 -0.497490	 -1.628513	 1.217371

	symmetry c1
}
set optking {
	frozen_dihedral = ("
		7 5 3 2
	")
}

ee = optimize('scf')
oeprop('DIPOLE', 'QUADRUPOLE', 'MULLIKEN_CHARGES')
f=open( 'psi4out.xyz', 'w' )
f.write( "11  " )
f.write( str(ee) + "\n" )
f.write( MOL.save_string_xyz() )
f.close()
--------------------------------------------------------------------------

    Molecular point group: c1
  Charge       = 0
  Multiplicity = 1
  Basis Set: CC-PVTZ
  Basis Set:
  @DF-RHF Final Energy:  -266.92178061817833
    Total Energy =                       -266.9217806181783317
    Molecular point group: c1
  Basis Set: CC-PVTZ
  Basis Set:
  Basis Set: CC-PVTZ
  Basis Set:
  @DF-RHF Final Energy:  -266.92802121552143
    Total Energy =                       -266.9280212155213121
  Basis Set: CC-PVTZ
  Basis Set:
  Basis Set: CC-PVTZ
  Basis Set:
  @DF-RHF Final Energy:  -266.92511535819676
    Total Energy =                       -266.9251153581969334
  Basis Set: CC-PVTZ
  Basis Set:
  Basis Set: CC-PVTZ
  Basis Set:
  @DF-RHF Final Energy:  -266.92853502193236
    Total Energy =                       -266.9285350219323618
  Basis Set: CC-PVTZ
  Basis Set:
  Basis Set: CC-PVTZ
  Basis Set:
  @DF-RHF Final Energy:  -266.92879734881478
    Total Energy =                       -266.9287973488151806
  Basis Set: CC-PVTZ
  Basis Set:
  Basis Set: CC-PVTZ
  Basis Set:
  @DF-RHF Final Energy:  -266.92879940475791
    Total Energy =                       -266.9287994047577399
  Basis Set: CC-PVTZ
  Basis Set:
  Charge       = 0
  Multiplicity = 1
  Basis Set: CC-PVTZ
  Basis Set:

    Orbital Energies (a.u.)
    -----------------------

    Doubly Occupied:

       1A    -20.604765     2A    -20.545244     3A    -11.370750
       4A    -11.292201     5A    -11.219349     6A     -1.477619
       7A     -1.377430     8A     -1.048958     9A     -0.915482
      10A     -0.795460    11A     -0.742602    12A     -0.687355
      13A     -0.660172    14A     -0.627545    15A     -0.577377
      16A     -0.542944    17A     -0.532994    18A     -0.504356
      19A     -0.462324    20A     -0.453696

  @DF-RHF Final Energy:  -266.92879979152826

   => Energetics <=

    Nuclear Repulsion Energy =            183.1265808064150349
    One-Electron Energy =                -727.2335144439493888
    Two-Electron Energy =                 277.1781338460061761
    DFT Exchange-Correlation Energy =       0.0000000000000000
    Empirical Dispersion Energy =           0.0000000000000000
    PCM Polarization Energy =               0.0000000000000000
    EFP Energy =                            0.0000000000000000
    Total Energy =                       -266.9287997915281494
    Molecular point group: c1
  Basis Set: CC-PVTZ
  Basis Set:

  -Total Gradient:
     Atom            X                  Y                   Z
    ------   -----------------  -----------------  -----------------
       1        0.000003228972    -0.000008576317    -0.000001612436
       2       -0.000073682613     0.000115876572     0.004362745270
       3        0.000076955393    -0.000102303500    -0.005517935793
       4        0.000002450173    -0.000003075681     0.000008314236
       5        0.000111001664    -0.000139153720    -0.003553734300
       6       -0.000007318810     0.000012925469    -0.000024962935
       7       -0.000110804403     0.000121303606     0.004728518080
       8       -0.000001584047    -0.000009088953     0.000010422641
       9       -0.000001721730     0.000001912772    -0.000002051891
      10       -0.000009188374     0.000003927665    -0.000001363240
      11        0.000010663777     0.000006252087    -0.000008339633

  **** Optimization is complete! (in 7 steps) ****
    Final optimized geometry and variables:
    Molecular point group: c1

    Geometry (in Angstrom), charge = 0, multiplicity = 1:

    H           -1.409978556023     1.748674019045    -0.219612905662
    C           -0.947813309233     0.767531080783    -0.271386189355
    O            0.357089984945     0.888937026970    -0.245516708469
    O           -1.557838084395    -0.237462436325    -0.357665261498
    C            1.180751976751    -0.275711914374    -0.196325015781
    C            0.977976291989    -1.112271314205     1.053666530661
    H            2.182662907202     0.123906794525    -0.184567465041
    H            1.025422257549    -0.856860187345    -1.093823511214
    H            1.091493599885    -0.499124790048     1.940179639507
    H            1.739769929309    -1.883323298398     1.080005749591
    H            0.009216588410    -1.585029624539     1.073884397250

  Mulliken Charges: (a.u.)
   Center  Symbol    Alpha    Beta     Spin     Total
       1     H     0.44623  0.44623  0.00000  0.10754
       2     C     2.84122  2.84122  0.00000  0.31757
       3     O     4.14869  4.14869  0.00000 -0.29738
       4     O     4.19777  4.19777  0.00000 -0.39555
       5     C     2.97807  2.97807  0.00000  0.04386
       6     C     3.15360  3.15360  0.00000 -0.30720
       7     H     0.44470  0.44470  0.00000  0.11061
       8     H     0.45149  0.45149  0.00000  0.09701
       9     H     0.45239  0.45239  0.00000  0.09522
      10     H     0.45021  0.45021  0.00000  0.09958
      11     H     0.43563  0.43563  0.00000  0.12874

   Total alpha = 20.00000, Total beta = 20.00000, Total charge =  0.00000
