  ==> Input File <==

--------------------------------------------------------------------------
set {
	reference rhf
	basis cc-pvtz
}

set_num_threads( 4 )
memory 2 gb

molecule MOL {
0 1

H	 2.270473	 -0.004426	 -0.525714
O	 1.512471	 -0.568669	 -0.548719
C	 0.489979	 0.078084	 0.002623
C	 -0.763662	 -0.754014	 0.000816
O	 0.592690	 1.177659	 0.424875
C	 -2.038001	 0.074705	 -0.000833
H	 -0.712945	 -1.405886	 -0.864342
H	 -0.715137	 -1.405770	 0.866182
H	 -2.087267	 0.710831	 -0.874232
H	 -2.903419	 -0.576199	 -0.001922
H	 -2.089467	 0.710909	 0.872389

	symmetry c1
}
set optking {
	frozen_dihedral = ("
		2 3 4 7
	")
}

ee = optimize('scf')
oeprop('DIPOLE', 'QUADRUPOLE', 'MULLIKEN_CHARGES')
f=open( 'psi4out.xyz', 'w' )
f.write( "11  " )
f.write( str(ee) + "\n" )
f.write( MOL.save_string_xyz() )
f.close()
--------------------------------------------------------------------------

    Molecular point group: c1
  Charge       = 0
  Multiplicity = 1
  Basis Set: CC-PVTZ
  Basis Set:
  @DF-RHF Final Energy:  -266.95241254512274
    Total Energy =                       -266.9524125451226837
    Molecular point group: c1
  Basis Set: CC-PVTZ
  Basis Set:
  Basis Set: CC-PVTZ
  Basis Set:
  @DF-RHF Final Energy:  -266.95237263135033
    Total Energy =                       -266.9523726313503857
  Basis Set: CC-PVTZ
  Basis Set:
  Basis Set: CC-PVTZ
  Basis Set:
  @DF-RHF Final Energy:  -266.95232586477766
    Total Energy =                       -266.9523258647775492
  Basis Set: CC-PVTZ
  Basis Set:
  Basis Set: CC-PVTZ
  Basis Set:
  @DF-RHF Final Energy:  -266.95264050988828
    Total Energy =                       -266.9526405098883970
  Basis Set: CC-PVTZ
  Basis Set:
  Charge       = 0
  Multiplicity = 1
  Basis Set: CC-PVTZ
  Basis Set:

    Orbital Energies (a.u.)
    -----------------------

    Doubly Occupied:

       1A    -20.606101     2A    -20.540573     3A    -11.374535
       4A    -11.242629     5A    -11.220281     6A     -1.479014
       7A     -1.370042     8A     -1.066458     9A     -0.918493
      10A     -0.806005    11A     -0.706493    12A     -0.693250
      13A     -0.661388    14A     -0.601644    15A     -0.596591
      16A     -0.534837    17A     -0.527541    18A     -0.507137
      19A     -0.483414    20A     -0.448067

  @DF-RHF Final Energy:  -266.95264193137871

   => Energetics <=

    Nuclear Repulsion Energy =            180.1046613435896404
    One-Electron Energy =                -721.3456195501114507
    Two-Electron Energy =                 274.2883162751429040
    DFT Exchange-Correlation Energy =       0.0000000000000000
    Empirical Dispersion Energy =           0.0000000000000000
    PCM Polarization Energy =               0.0000000000000000
    EFP Energy =                            0.0000000000000000
    Total Energy =                       -266.9526419313788779
    Molecular point group: c1
  Basis Set: CC-PVTZ
  Basis Set:

  -Total Gradient:
     Atom            X                  Y                   Z
    ------   -----------------  -----------------  -----------------
       1       -0.000001556883     0.000008645231    -0.000004689947
       2       -0.000218524087     0.000356049911    -0.001029832188
       3        0.000406497237    -0.000631712117     0.001594176134
       4       -0.000868245134     0.001333932607    -0.001276005891
       5        0.000004850292    -0.000089985972    -0.000035571810
       6        0.000035583579    -0.000025795447    -0.000014035894
       7        0.000617466296    -0.000938832800     0.000750285614
       8        0.000011546416    -0.000008371907     0.000008278599
       9        0.000001170509    -0.000000139561    -0.000003319967
      10        0.000002249263    -0.000000493505     0.000001118453
      11        0.000008962515    -0.000003296440     0.000009596895

  **** Optimization is complete! (in 5 steps) ****
    Final optimized geometry and variables:
    Molecular point group: c1

    Geometry (in Angstrom), charge = 0, multiplicity = 1:

    H            2.290992823725    -0.012366534157    -0.439499998714
    O            1.529342775086    -0.568519753198    -0.508464264947
    C            0.493478202806     0.070626558927     0.025082709573
    C           -0.760136945045    -0.763443731454     0.011161179532
    O            0.587051818310     1.163798013020     0.466267849802
    C           -2.033667799248     0.068466667651     0.040984480946
    H           -0.723410500268    -1.428269315216    -0.841199044244
    H           -0.702064961935    -1.399871113311     0.889962059925
    H           -2.112569622042     0.692203646689    -0.840741677637
    H           -2.900187148580    -0.579926299589     0.074715325801
    H           -2.051884571781     0.714766149571     0.906906092680

  Mulliken Charges: (a.u.)
   Center  Symbol    Alpha    Beta     Spin     Total
       1     H     0.38094  0.38094  0.00000  0.23813
       2     O     4.15975  4.15975  0.00000 -0.31950
       3     C     2.80454  2.80454  0.00000  0.39092
       4     C     3.09701  3.09701  0.00000 -0.19402
       5     O     4.19305  4.19305  0.00000 -0.38611
       6     C     3.14051  3.14051  0.00000 -0.28103
       7     H     0.43691  0.43691  0.00000  0.12618
       8     H     0.44346  0.44346  0.00000  0.11308
       9     H     0.45142  0.45142  0.00000  0.09716
      10     H     0.44933  0.44933  0.00000  0.10134
      11     H     0.44307  0.44307  0.00000  0.11385

   Total alpha = 20.00000, Total beta = 20.00000, Total charge =  0.00000
