  ==> Input File <==

--------------------------------------------------------------------------
set {
	reference rhf
	basis 6-31G*
}

set_num_threads( 1 )
memory 2 gb

molecule MOL {
0 1

H	 -2.159756	 -1.093876	 0.544784
O	 -2.347518	 -0.290803	 0.079804
C	 -1.184022	 0.487508	 -0.006784
C	 0.062599	 -0.378592	 0.031606
H	 -1.176523	 1.099369	 -0.904519
H	 -1.187323	 1.153111	 0.844927
O	 1.171513	 0.459272	 -0.058250
H	 0.050699	 -1.089204	 -0.797170
H	 0.078739	 -0.954914	 0.954740
C	 2.397842	 -0.198080	 -0.002151
H	 2.508049	 -0.905315	 -0.822092
H	 3.173794	 0.550865	 -0.078850
H	 2.517602	 -0.735921	 0.936026

	symmetry c1
}
set optking {
	frozen_dihedral = ("
		8 4 3 5,
		10 7 4 8,
		4 7 10 13
	")
}

ee = energy('scf')
oeprop('DIPOLE', 'QUADRUPOLE', 'MULLIKEN_CHARGES')
f=open( 'psi4out.xyz', 'w' )
f.write( "13  " )
f.write( str(ee) + "\n" )
f.write( MOL.save_string_xyz() )
f.close()
--------------------------------------------------------------------------

    Molecular point group: c1

    Geometry (in Angstrom), charge = 0, multiplicity = 1:

       Center              X                  Y                   Z               Mass
    ------------   -----------------  -----------------  -----------------  -----------------
           H         -2.164252712083    -1.089054758984     0.527691100207     1.007825032070
           O         -2.352014712083    -0.285981758984     0.062711100207    15.994914619560
           C         -1.188518712083     0.492329241016    -0.023876899793    12.000000000000
           C          0.058102287917    -0.373770758984     0.014513100207    12.000000000000
           H         -1.181019712083     1.104190241016    -0.921611899793     1.007825032070
           H         -1.191819712083     1.157932241016     0.827834100207     1.007825032070
           O          1.167016287917     0.464093241016    -0.075342899793    15.994914619560
           H          0.046202287917    -1.084382758984    -0.814262899793     1.007825032070
           H          0.074242287917    -0.950092758984     0.937647100207     1.007825032070
           C          2.393345287917    -0.193258758984    -0.019243899793    12.000000000000
           H          2.503552287917    -0.900493758984    -0.839184899793     1.007825032070
           H          3.169297287917     0.555686241016    -0.095942899793     1.007825032070
           H          2.513105287917    -0.731099758984     0.918933100207     1.007825032070

  Charge       = 0
  Multiplicity = 1
  Basis Set: 6-31G*
  Basis Set:

    Orbital Energies (a.u.)
    -----------------------

    Doubly Occupied:

       1A    -20.567847     2A    -20.557350     3A    -11.279582
       4A    -11.274009     5A    -11.268633     6A     -1.393893
       7A     -1.364653     8A     -1.021712     9A     -0.915468
      10A     -0.851509    11A     -0.698047    12A     -0.682722
      13A     -0.670489    14A     -0.630047    15A     -0.604947
      16A     -0.579374    17A     -0.547527    18A     -0.496723
      19A     -0.473984    20A     -0.438420    21A     -0.427321

  @DF-RHF Final Energy:  -267.94632537184816

   => Energetics <=

    Nuclear Repulsion Energy =            190.5555146582783266
    One-Electron Energy =                -743.5150403033835573
    Two-Electron Energy =                 285.0132002732573824
    DFT Exchange-Correlation Energy =       0.0000000000000000
    Empirical Dispersion Energy =           0.0000000000000000
    PCM Polarization Energy =               0.0000000000000000
    EFP Energy =                            0.0000000000000000
    Total Energy =                       -267.9463253718478768

  Mulliken Charges: (a.u.)
   Center  Symbol    Alpha    Beta     Spin     Total
       1     H     0.28096  0.28096  0.00000  0.43809
       2     O     4.37543  4.37543  0.00000 -0.75086
       3     C     2.98759  2.98759  0.00000  0.02483
       4     C     3.01173  3.01173  0.00000 -0.02347
       5     H     0.41058  0.41058  0.00000  0.17884
       6     H     0.42082  0.42082  0.00000  0.15836
       7     O     4.30553  4.30553  0.00000 -0.61106
       8     H     0.42508  0.42508  0.00000  0.14983
       9     H     0.43556  0.43556  0.00000  0.12889
      10     C     3.08138  3.08138  0.00000 -0.16275
      11     H     0.42771  0.42771  0.00000  0.14458
      12     H     0.40924  0.40924  0.00000  0.18152
      13     H     0.42839  0.42839  0.00000  0.14321

   Total alpha = 21.00000, Total beta = 21.00000, Total charge =  0.00000
