  ==> Input File <==

--------------------------------------------------------------------------
set {
	reference rhf
	basis 6-31G*
}

set_num_threads( 1 )
memory 2 gb

molecule MOL {
0 1

O	 -1.819391	 -0.780955	 -0.071511
C	 -1.083277	 0.139568	 0.115197
C	 0.323299	 -0.082943	 0.642902
C	 -1.516086	 1.566724	 -0.137254
C	 1.355627	 -0.005344	 -0.493127
H	 0.396251	 -1.044647	 1.143147
H	 0.528637	 0.693580	 1.371677
C	 2.786168	 -0.195604	 0.007473
H	 1.132807	 -0.760304	 -1.243899
H	 1.259610	 0.958506	 -0.981915
H	 3.495561	 -0.130713	 -0.811210
H	 2.912696	 -1.165395	 0.480041
H	 3.049284	 0.565503	 0.735850
H	 -1.317575	 2.188753	 0.730698
H	 -2.569693	 1.596708	 -0.377565
H	 -0.945550	 1.980055	 -0.964811

	symmetry c1
}
set optking {
	frozen_dihedral = ("
		9 5 3 2
	")
}

ee = energy('scf')
oeprop('DIPOLE', 'QUADRUPOLE', 'MULLIKEN_CHARGES')
f=open( 'psi4out.xyz', 'w' )
f.write( "16  " )
f.write( str(ee) + "\n" )
f.write( MOL.save_string_xyz() )
f.close()
--------------------------------------------------------------------------

    Molecular point group: c1

    Geometry (in Angstrom), charge = 0, multiplicity = 1:

       Center              X                  Y                   Z               Mass
    ------------   -----------------  -----------------  -----------------  -----------------
           O         -1.834400822401    -0.891300095668    -0.078030272475    15.994914619560
           C         -1.098286822401     0.029222904332     0.108677727525    12.000000000000
           C          0.308289177599    -0.193288095668     0.636382727525    12.000000000000
           C         -1.531095822401     1.456378904332    -0.143773272475    12.000000000000
           C          1.340617177599    -0.115689095668    -0.499646272475    12.000000000000
           H          0.381241177599    -1.154992095668     1.136627727525     1.007825032070
           H          0.513627177599     0.583234904332     1.365157727525     1.007825032070
           C          2.771158177599    -0.305949095668     0.000953727525    12.000000000000
           H          1.117797177599    -0.870649095668    -1.250418272475     1.007825032070
           H          1.244600177599     0.848160904332    -0.988434272475     1.007825032070
           H          3.480551177599    -0.241058095668    -0.817729272475     1.007825032070
           H          2.897686177599    -1.275740095668     0.473521727525     1.007825032070
           H          3.034274177599     0.455157904332     0.729330727525     1.007825032070
           H         -1.332584822401     2.078407904332     0.724178727525     1.007825032070
           H         -2.584702822401     1.486362904332    -0.384084272475     1.007825032070
           H         -0.960559822401     1.869709904332    -0.971330272475     1.007825032070

  Charge       = 0
  Multiplicity = 1
  Basis Set: 6-31G*
  Basis Set:

    Orbital Energies (a.u.)
    -----------------------

    Doubly Occupied:

       1A    -20.547550     2A    -11.324239     3A    -11.234984
       4A    -11.229799     5A    -11.229124     6A    -11.220629
       7A     -1.392905     8A     -1.084848     9A     -1.012791
      10A     -0.949943    11A     -0.830787    12A     -0.735839
      13A     -0.658773    14A     -0.649776    15A     -0.611935
      16A     -0.609256    17A     -0.576842    18A     -0.557016
      19A     -0.536078    20A     -0.520397    21A     -0.506138
      22A     -0.486072    23A     -0.471513    24A     -0.397421

  @DF-RHF Final Energy:  -270.02915217300347

   => Energetics <=

    Nuclear Repulsion Energy =            237.1781873520221495
    One-Electron Energy =                -835.6654305354209100
    Two-Electron Energy =                 328.4580910103952647
    DFT Exchange-Correlation Energy =       0.0000000000000000
    Empirical Dispersion Energy =           0.0000000000000000
    PCM Polarization Energy =               0.0000000000000000
    EFP Energy =                            0.0000000000000000
    Total Energy =                       -270.0291521730034674

  Mulliken Charges: (a.u.)
   Center  Symbol    Alpha    Beta     Spin     Total
       1     O     4.26029  4.26029  0.00000 -0.52059
       2     C     2.73883  2.73883  0.00000  0.52233
       3     C     3.19750  3.19750  0.00000 -0.39499
       4     C     3.28965  3.28965  0.00000 -0.57929
       5     C     3.16420  3.16420  0.00000 -0.32840
       6     H     0.39975  0.39975  0.00000  0.20051
       7     H     0.41750  0.41750  0.00000  0.16500
       8     C     3.23926  3.23926  0.00000 -0.47851
       9     H     0.40898  0.40898  0.00000  0.18204
      10     H     0.41956  0.41956  0.00000  0.16087
      11     H     0.41559  0.41559  0.00000  0.16883
      12     H     0.41710  0.41710  0.00000  0.16580
      13     H     0.42031  0.42031  0.00000  0.15938
      14     H     0.40956  0.40956  0.00000  0.18087
      15     H     0.39549  0.39549  0.00000  0.20903
      16     H     0.40644  0.40644  0.00000  0.18713

   Total alpha = 24.00000, Total beta = 24.00000, Total charge = -0.00000
