  ==> Input File <==

--------------------------------------------------------------------------
set {
	reference rhf
	basis 6-31G*
}

set_num_threads( 4 )
memory 2 gb

molecule MOL {
0 1

O	 -1.995050	 1.857034	 -0.948247
C	 -1.943270	 0.747973	 -0.510369
C	 -0.816500	 -0.191821	 -0.902141
C	 -2.969747	 0.234579	 0.474591
C	 0.464791	 0.131264	 -0.116614
H	 -0.633137	 -0.061119	 -1.963083
H	 -1.104786	 -1.225485	 -0.733448
C	 1.631333	 -0.777471	 -0.511575
H	 0.715145	 1.171571	 -0.291165
H	 0.275947	 0.028177	 0.950840
C	 2.915987	 -0.544314	 0.291766
H	 1.842303	 -0.648794	 -1.571603
H	 1.326703	 -1.814294	 -0.384896
C	 3.373361	 0.914346	 0.347591
H	 3.708709	 -1.142521	 -0.150311
H	 2.780642	 -0.921148	 1.303579
H	 3.506512	 1.320010	 -0.651625
H	 4.322697	 0.999599	 0.867103
H	 2.660624	 1.545032	 0.868198
H	 -3.548476	 -0.563225	 0.016501
H	 -3.633234	 1.035677	 0.769230
H	 -2.485007	 -0.184628	 1.351573

	symmetry c1
}
set optking {
	frozen_dihedral = ("
		12 8 11 15
	")
}

ee = optimize('scf')
oeprop('DIPOLE', 'QUADRUPOLE', 'MULLIKEN_CHARGES')
f=open( 'psi4out.xyz', 'w' )
f.write( "22  " )
f.write( str(ee) + "\n" )
f.write( MOL.save_string_xyz() )
f.close()
--------------------------------------------------------------------------

    Molecular point group: c1
  Charge       = 0
  Multiplicity = 1
  Basis Set: 6-31G*
  Basis Set:
  @DF-RHF Final Energy:  -348.09741485995920
    Total Energy =                       -348.0974148599592581
    Molecular point group: c1
  Basis Set: 6-31G*
  Basis Set:
  Basis Set: 6-31G*
  Basis Set:
  @DF-RHF Final Energy:  -348.09725205003230
    Total Energy =                       -348.0972520500319547
  Basis Set: 6-31G*
  Basis Set:
  Basis Set: 6-31G*
  Basis Set:
  @DF-RHF Final Energy:  -348.09661966328764
    Total Energy =                       -348.0966196632875267
  Basis Set: 6-31G*
  Basis Set:
  Basis Set: 6-31G*
  Basis Set:
  @DF-RHF Final Energy:  -348.09754867146006
    Total Energy =                       -348.0975486714604585
  Basis Set: 6-31G*
  Basis Set:
  @DF-RHF Final Energy:  -348.09735588010005
    Total Energy =                       -348.0973558801002810
  Basis Set: 6-31G*
  Basis Set:
  @DF-RHF Final Energy:  -348.09745020929529
    Total Energy =                       -348.0974502092950047
  Basis Set: 6-31G*
  Basis Set:
  Basis Set: 6-31G*
  Basis Set:
  @DF-RHF Final Energy:  -348.09761978388150
    Total Energy =                       -348.0976197838813277
  Basis Set: 6-31G*
  Basis Set:
  Basis Set: 6-31G*
  Basis Set:
  @DF-RHF Final Energy:  -348.09762265819717
    Total Energy =                       -348.0976226581971105
  Basis Set: 6-31G*
  Basis Set:
  Charge       = 0
  Multiplicity = 1
  Basis Set: 6-31G*
  Basis Set:

    Orbital Energies (a.u.)
    -----------------------

    Doubly Occupied:

       1A    -20.547384     2A    -11.324504     3A    -11.229652
       4A    -11.229063     5A    -11.228237     6A    -11.222327
       7A    -11.220759     8A    -11.210922     9A     -1.393152
      10A     -1.095651    11A     -1.044040    12A     -0.999324
      13A     -0.937435    14A     -0.859993    15A     -0.783551
      16A     -0.733093    17A     -0.663372    18A     -0.643738
      19A     -0.627816    20A     -0.619180    21A     -0.595447
      22A     -0.584949    23A     -0.562160    24A     -0.539073
      25A     -0.534728    26A     -0.522858    27A     -0.496892
      28A     -0.488176    29A     -0.468213    30A     -0.464662
      31A     -0.460026    32A     -0.396293

  @DF-RHF Final Energy:  -348.09762348226695

   => Energetics <=

    Nuclear Repulsion Energy =            373.5514257807228660
    One-Electron Energy =               -1211.8447614234858065
    Two-Electron Energy =                 490.1957121604962140
    DFT Exchange-Correlation Energy =       0.0000000000000000
    Empirical Dispersion Energy =           0.0000000000000000
    PCM Polarization Energy =               0.0000000000000000
    EFP Energy =                            0.0000000000000000
    Total Energy =                       -348.0976234822667266
    Molecular point group: c1
  Basis Set: 6-31G*
  Basis Set:

  -Total Gradient:
     Atom            X                  Y                   Z
    ------   -----------------  -----------------  -----------------
       1       -0.000014667722     0.000013477802    -0.000015252453
       2        0.000070755818     0.000038410238     0.000011860249
       3        0.000001965680    -0.000017580984    -0.000013466717
       4       -0.000008558209    -0.000023300874    -0.000029878873
       5        0.000013732427    -0.000027391679    -0.000021480440
       6       -0.000012807600    -0.000011020192     0.000007584184
       7       -0.000010454795    -0.000011289859     0.000018774320
       8       -0.000584939462     0.003956808475    -0.000017572862
       9       -0.000084118364     0.000000680327     0.000004940212
      10        0.000072123477     0.000027054900     0.000019343129
      11       -0.000763462911    -0.003339171759     0.001953049318
      12        0.000659851737    -0.002787687493    -0.000232940887
      13       -0.000020631244    -0.000000238924    -0.000000285260
      14       -0.000051976853     0.000013111908     0.000026379227
      15        0.000739172721     0.002164128402    -0.001706273554
      16       -0.000014456061    -0.000002712120    -0.000024338315
      17       -0.000003443254    -0.000006812761    -0.000001979888
      18       -0.000000838295    -0.000015582780     0.000001800672
      19       -0.000002039118     0.000024165004     0.000007123702
      20        0.000006615683     0.000001459019     0.000006901993
      21        0.000009289306     0.000003411297    -0.000001663915
      22       -0.000001112960     0.000000082054     0.000007376159

  **** Optimization is complete! (in 9 steps) ****
    Final optimized geometry and variables:
    Molecular point group: c1

    Geometry (in Angstrom), charge = 0, multiplicity = 1:

    O           -2.107464808539     1.524523649811    -0.748642388993
    C           -2.040616374051     0.425814816853    -0.287483945229
    C           -0.906441677721    -0.510291670058    -0.666715922741
    C           -3.058994532583    -0.080214582103     0.709778545395
    C            0.375605211629    -0.158904386669     0.104961186496
    H           -0.730031064097    -0.398437187149    -1.731053093282
    H           -1.183613158270    -1.543206776802    -0.476459934484
    C            1.551766141262    -1.051661391871    -0.293479289931
    H            0.607458321210     0.883430830778    -0.081280969479
    H            0.197687155095    -0.254828863820     1.175212959834
    C            2.828846045657    -0.851075271028     0.532413207355
    H            1.779893602569    -0.913998889771    -1.348739605207
    H            1.248419061262    -2.092749465145    -0.196382125366
    C            3.330351188889     0.594083647693     0.592001145161
    H            3.613659054138    -1.459653561760     0.090669165418
    H            2.671946567987    -1.221057860747     1.542849119696
    H            3.462769573504     1.004071926198    -0.405682310143
    H            4.289036479998     0.644708233655     1.098703865968
    H            2.645209356489     1.242414979055     1.127623058368
    H           -3.628950546405    -0.893908100911     0.269076737461
    H           -3.731349832261     0.718704773755     0.989785541198
    H           -2.567486332573    -0.475879405901     1.593902090754

  Mulliken Charges: (a.u.)
   Center  Symbol    Alpha    Beta     Spin     Total
       1     O     4.26237  4.26237  0.00000 -0.52475
       2     C     2.73725  2.73725  0.00000  0.52550
       3     C     3.19964  3.19964  0.00000 -0.39928
       4     C     3.28952  3.28952  0.00000 -0.57904
       5     C     3.16473  3.16473  0.00000 -0.32947
       6     H     0.40113  0.40113  0.00000  0.19773
       7     H     0.41688  0.41688  0.00000  0.16624
       8     C     3.15285  3.15285  0.00000 -0.30570
       9     H     0.40285  0.40285  0.00000  0.19431
      10     H     0.42141  0.42141  0.00000  0.15717
      11     C     3.15233  3.15233  0.00000 -0.30467
      12     H     0.42010  0.42010  0.00000  0.15979
      13     H     0.42237  0.42237  0.00000  0.15526
      14     C     3.24327  3.24327  0.00000 -0.48655
      15     H     0.41962  0.41962  0.00000  0.16077
      16     H     0.42254  0.42254  0.00000  0.15492
      17     H     0.42048  0.42048  0.00000  0.15904
      18     H     0.41835  0.41835  0.00000  0.16330
      19     H     0.41857  0.41857  0.00000  0.16286
      20     H     0.40686  0.40686  0.00000  0.18628
      21     H     0.39710  0.39710  0.00000  0.20581
      22     H     0.40976  0.40976  0.00000  0.18049

   Total alpha = 32.00000, Total beta = 32.00000, Total charge =  0.00000
