                              Psi4 1.0.54 Driver

  ==> Input File <==

--------------------------------------------------------------------------
set {
	reference rhf
	basis cc-pvtz
}

set_num_threads( 4 )
memory 2 gb

molecule MOL {
0 1

H	 -1.088256	 -1.364742	 0.152233
O	 -1.432053	 -0.565244	 -0.200812
C	 -0.727158	 0.534527	 0.310686
C	 0.680222	 0.664433	 -0.252229
H	 -1.306802	 1.408001	 0.044211
H	 -0.690821	 0.490158	 1.397609
C	 1.774323	 0.662384	 0.811249
H	 0.848966	 -0.146260	 -0.953324
H	 0.729924	 1.589705	 -0.819725
H	 1.794617	 -0.272819	 1.359982
H	 2.751974	 0.790506	 0.362545
H	 1.631279	 1.468436	 1.524533

	symmetry c1
}
set optking {
	frozen_dihedral = ("
		8 4 3 2
	")
}

ee,wfn = optimize('scf', return_wfn=True)
oeprop( wfn, 'DIPOLE', 'QUADRUPOLE', 'MULLIKEN_CHARGES')
f=open( 'psi4out.xyz', 'w' )
f.write( "12  " )
f.write( str(ee) + "\n" )
f.write( MOL.save_string_xyz() )
f.close()
--------------------------------------------------------------------------

    Molecular point group: c1
  Charge       = 0
  Multiplicity = 1
  Basis Set: CC-PVTZ
  Basis Set:
  @DF-RHF Final Energy:  -193.18408490453089
    Total Energy =                       -193.1840849045310620
    Molecular point group: c1
  Basis Set: CC-PVTZ
  Basis Set:
  Basis Set: CC-PVTZ
  Basis Set:
  @DF-RHF Final Energy:  -193.18449959558004
    Total Energy =                       -193.1844995955800357
  Basis Set: CC-PVTZ
  Basis Set:
  Basis Set: CC-PVTZ
  Basis Set:
  @DF-RHF Final Energy:  -193.18457977225236
    Total Energy =                       -193.1845797722524196
  Basis Set: CC-PVTZ
  Basis Set:
  Basis Set: CC-PVTZ
  Basis Set:
  @DF-RHF Final Energy:  -193.18458529923126
    Total Energy =                       -193.1845852992312871
  Basis Set: CC-PVTZ
  Basis Set:
  Charge       = 0
  Multiplicity = 1
  Basis Set: CC-PVTZ
  Basis Set:

    Orbital Energies (a.u.)
    -----------------------

    Doubly Occupied:

       1A    -20.545567     2A    -11.265953     3A    -11.217018
       4A    -11.214652     5A     -1.363229     6A     -1.050730
       7A     -0.921030     8A     -0.818304     9A     -0.694129
      10A     -0.639192    11A     -0.596092    12A     -0.572985
      13A     -0.566569    14A     -0.509360    15A     -0.488406
      16A     -0.464438    17A     -0.432131

  @DF-RHF Final Energy:  -193.18458580648291

   => Energetics <=

    Nuclear Repulsion Energy =            131.1891018453105744
    One-Electron Energy =                -522.0278126591981618
    Two-Electron Energy =                 197.6541250074047298
    DFT Exchange-Correlation Energy =       0.0000000000000000
    Empirical Dispersion Energy =           0.0000000000000000
    PCM Polarization Energy =               0.0000000000000000
    EFP Energy =                            0.0000000000000000
    Total Energy =                       -193.1845858064828576
    Molecular point group: c1
  Basis Set: CC-PVTZ
  Basis Set:

  -Total Gradient:
     Atom            X                  Y                   Z
    ------   -----------------  -----------------  -----------------
       1       -0.000031102536     0.000040103584    -0.000023459087
       2        0.000050030990    -0.000158670396     0.000138714354
       3       -0.000067997375     0.000165942156    -0.000167980561
       4        0.000127463788    -0.000132594433     0.000200431290
       5        0.000023228756     0.000012794297    -0.000009678423
       6       -0.000001573934    -0.000030779332    -0.000022651360
       7        0.000003843683    -0.000026841380    -0.000042949062
       8       -0.000057254080     0.000097025483    -0.000099774874
       9       -0.000032032431     0.000019025824     0.000021662307
      10       -0.000003268833     0.000006445814     0.000005778787
      11        0.000004102098    -0.000014800470     0.000011656393
      12       -0.000015440127     0.000022348852    -0.000011749764

  **** Optimization is complete! (in 5 steps) ****
    Final optimized geometry and variables:
    Molecular point group: c1

    Geometry (in Angstrom), charge = 0, multiplicity = 1:

    H           -1.105781295504    -1.628075659046    -0.114830966418
    O           -1.503118340543    -0.816344495566    -0.372695377785
    C           -0.771037630513     0.262317364118     0.147572991799
    C            0.653483469133     0.372587782341    -0.424949419744
    H           -1.346964832312     1.143712301679    -0.095497498256
    H           -0.732848603866     0.196078641231     1.232029734400
    C            1.747912407549     0.326367193615     0.637453732763
    H            0.793348033665    -0.435645059863    -1.133928129016
    H            0.749230265291     1.289832083950    -0.995374433832
    H            1.707972903549    -0.598927527840     1.203727060686
    H            2.732242802572     0.397888810681     0.189880420163
    H            1.645983246933     1.145410888818     1.341561134736

  Mulliken Charges: (a.u.)
   Center  Symbol    Alpha    Beta     Spin     Total
       1     H     0.39502  0.39502  0.00000  0.20996
       2     O     4.20133  4.20133  0.00000 -0.40266
       3     C     2.97053  2.97053  0.00000  0.05895
       4     C     3.09719  3.09719  0.00000 -0.19438
       5     H     0.45428  0.45428  0.00000  0.09143
       6     H     0.47079  0.47079  0.00000  0.05843
       7     C     3.14943  3.14943  0.00000 -0.29885
       8     H     0.44963  0.44963  0.00000  0.10073
       9     H     0.45194  0.45194  0.00000  0.09613
      10     H     0.45754  0.45754  0.00000  0.08493
      11     H     0.44801  0.44801  0.00000  0.10399
      12     H     0.45432  0.45432  0.00000  0.09136

   Total alpha = 17.00000, Total beta = 17.00000, Total charge = -0.00000

*** Psi4 exiting successfully. Buy a developer a beer!
