                              Psi4 1.0.54 Driver

  ==> Input File <==

--------------------------------------------------------------------------
set {
	reference rhf
	basis cc-pvtz
}

set_num_threads( 4 )
memory 2 gb

molecule MOL {
0 1

H	 -1.835082	 1.385983	 0.000069
C	 -1.300516	 0.441153	 -0.000028
O	 -0.006604	 0.654344	 -0.000106
O	 -1.828920	 -0.612308	 0.000113
C	 0.852093	 -0.482521	 -0.000161
C	 1.847778	 -0.308356	 1.121882
H	 1.341648	 -0.550368	 -0.961249
H	 0.253359	 -1.372460	 0.132085
H	 2.437313	 0.588216	 0.978437
H	 2.518063	 -1.159130	 1.149383
H	 1.343550	 -0.237980	 2.077272

	symmetry c1
}
set optking {
	frozen_dihedral = ("
		7 5 3 2
	")
}

ee,wfn = optimize('scf', return_wfn=True)
oeprop( wfn, 'DIPOLE', 'QUADRUPOLE', 'MULLIKEN_CHARGES')
f=open( 'psi4out.xyz', 'w' )
f.write( "11  " )
f.write( str(ee) + "\n" )
f.write( MOL.save_string_xyz() )
f.close()
--------------------------------------------------------------------------

    Molecular point group: c1
  Charge       = 0
  Multiplicity = 1
  Basis Set: CC-PVTZ
  Basis Set:
  @DF-RHF Final Energy:  -266.92929212833735
    Total Energy =                       -266.9292921283373516
    Molecular point group: c1
  Basis Set: CC-PVTZ
  Basis Set:
  Basis Set: CC-PVTZ
  Basis Set:
  @DF-RHF Final Energy:  -266.92906026540106
    Total Energy =                       -266.9290602654011195
  Basis Set: CC-PVTZ
  Basis Set:
  Basis Set: CC-PVTZ
  Basis Set:
  @DF-RHF Final Energy:  -266.92979943552962
    Total Energy =                       -266.9297994355295032
  Basis Set: CC-PVTZ
  Basis Set:
  Basis Set: CC-PVTZ
  Basis Set:
  @DF-RHF Final Energy:  -266.92750989670719
    Total Energy =                       -266.9275098967073632
  Basis Set: CC-PVTZ
  Basis Set:
  Basis Set: CC-PVTZ
  Basis Set:
  @DF-RHF Final Energy:  -266.92990497358846
    Total Energy =                       -266.9299049735883500
  Basis Set: CC-PVTZ
  Basis Set:
  Basis Set: CC-PVTZ
  Basis Set:
  @DF-RHF Final Energy:  -266.92999473275177
    Total Energy =                       -266.9299947327517657
  Basis Set: CC-PVTZ
  Basis Set:
  Basis Set: CC-PVTZ
  Basis Set:
  @DF-RHF Final Energy:  -266.92999668979780
    Total Energy =                       -266.9299966897979175
  Basis Set: CC-PVTZ
  Basis Set:
  Charge       = 0
  Multiplicity = 1
  Basis Set: CC-PVTZ
  Basis Set:

    Orbital Energies (a.u.)
    -----------------------

    Doubly Occupied:

       1A    -20.604688     2A    -20.544735     3A    -11.371289
       4A    -11.288780     5A    -11.224938     6A     -1.476982
       7A     -1.377610     8A     -1.053028     9A     -0.907879
      10A     -0.801476    11A     -0.747063    12A     -0.687795
      13A     -0.672661    14A     -0.609175    15A     -0.572584
      16A     -0.555664    17A     -0.533029    18A     -0.505535
      19A     -0.460873    20A     -0.456488

  @DF-RHF Final Energy:  -266.92999707808804

   => Energetics <=

    Nuclear Repulsion Energy =            179.7965648187604302
    One-Electron Energy =                -720.5485793201048637
    Two-Electron Energy =                 273.8220174232563977
    DFT Exchange-Correlation Energy =       0.0000000000000000
    Empirical Dispersion Energy =           0.0000000000000000
    PCM Polarization Energy =               0.0000000000000000
    EFP Energy =                            0.0000000000000000
    Total Energy =                       -266.9299970780880358
    Molecular point group: c1
  Basis Set: CC-PVTZ
  Basis Set:

  -Total Gradient:
     Atom            X                  Y                   Z
    ------   -----------------  -----------------  -----------------
       1       -0.000016282567     0.000012246137    -0.000000672210
       2        0.000071354858    -0.000062710572     0.000517983567
       3        0.000080834436     0.000212113273    -0.000655736462
       4       -0.000033991857    -0.000046031595    -0.000013177864
       5       -0.000498897235    -0.000372394319    -0.000125063751
       6       -0.000012232741     0.000012817347     0.000002550788
       7        0.000421200476     0.000229645694     0.000287771799
       8       -0.000011886053     0.000012753946    -0.000002286534
       9       -0.000001456074    -0.000001867662    -0.000000905359
      10       -0.000002575062     0.000002480596    -0.000001000812
      11        0.000003931816     0.000000947156    -0.000009463165

  **** Optimization is complete! (in 8 steps) ****
    Final optimized geometry and variables:
    Molecular point group: c1

    Geometry (in Angstrom), charge = 0, multiplicity = 1:

    H           -1.551770067596     1.671536645233    -0.017427556423
    C           -1.143813370426     0.680634625440    -0.191514399301
    O            0.162276189293     0.713754069846    -0.067846046373
    O           -1.804954174118    -0.259919335442    -0.450117083908
    C            0.923430816213    -0.480932342584    -0.237412079803
    C            1.865169910735    -0.632460775792     0.936284257534
    H            1.473508536234    -0.373276513350    -1.162144673931
    H            0.255870480961    -1.321213782039    -0.325090592829
    H            2.508641185671     0.233103405530     1.029386340560
    H            2.487083195473    -1.508697954672     0.794524406608
    H            1.312957075254    -0.751357138652     1.860180681027

  Mulliken Charges: (a.u.)
   Center  Symbol    Alpha    Beta     Spin     Total
       1     H     0.45072  0.45072  0.00000  0.09857
       2     C     2.84001  2.84001  0.00000  0.31997
       3     O     4.14867  4.14867  0.00000 -0.29733
       4     O     4.19610  4.19610  0.00000 -0.39221
       5     C     2.98017  2.98017  0.00000  0.03966
       6     C     3.13317  3.13317  0.00000 -0.26633
       7     H     0.45269  0.45269  0.00000  0.09463
       8     H     0.44276  0.44276  0.00000  0.11449
       9     H     0.45048  0.45048  0.00000  0.09903
      10     H     0.45433  0.45433  0.00000  0.09134
      11     H     0.45091  0.45091  0.00000  0.09817

   Total alpha = 20.00000, Total beta = 20.00000, Total charge =  0.00000

*** Psi4 exiting successfully. Buy a developer a beer!
