  ==> Input File <==

--------------------------------------------------------------------------
set {
	reference rhf
	basis 6-31G*
}

set_num_threads( 4 )
memory 2 gb

molecule MOL {
0 1

H	 1.088460	 0.702114	 1.600208
C	 1.153381	 0.359165	 0.560076
C	 0.065331	 0.871482	 -0.349150
O	 2.037640	 -0.358977	 0.222324
C	 -1.339775	 0.583656	 0.198860
H	 0.205450	 0.433462	 -1.330689
H	 0.201563	 1.948239	 -0.439681
C	 -1.808407	 -0.848507	 -0.061364
H	 -2.036183	 1.280685	 -0.256307
H	 -1.360094	 0.788874	 1.267089
H	 -1.828843	 -1.063152	 -1.125336
H	 -2.808409	 -1.004529	 0.329750
H	 -1.153967	 -1.577789	 0.406873

	symmetry c1
}
set optking {
	frozen_dihedral = ("
		6 3 5 9
	")
}

ee = optimize('scf')
oeprop('DIPOLE', 'QUADRUPOLE', 'MULLIKEN_CHARGES')
f=open( 'psi4out.xyz', 'w' )
f.write( "13  " )
f.write( str(ee) + "\n" )
f.write( MOL.save_string_xyz() )
f.close()
--------------------------------------------------------------------------

    Molecular point group: c1
  Charge       = 0
  Multiplicity = 1
  Basis Set: 6-31G*
  Basis Set:
  @DF-RHF Final Energy:  -230.98397523237134
    Total Energy =                       -230.9839752323714208
    Molecular point group: c1
  Basis Set: 6-31G*
  Basis Set:
  Basis Set: 6-31G*
  Basis Set:
  @DF-RHF Final Energy:  -230.98407716968566
    Total Energy =                       -230.9840771696858042
  Basis Set: 6-31G*
  Basis Set:
  Basis Set: 6-31G*
  Basis Set:
  @DF-RHF Final Energy:  -230.98369058673151
    Total Energy =                       -230.9836905867311998
  Basis Set: 6-31G*
  Basis Set:
  Basis Set: 6-31G*
  Basis Set:
  @DF-RHF Final Energy:  -230.98411194460630
    Total Energy =                       -230.9841119446062123
  Basis Set: 6-31G*
  Basis Set:
  Basis Set: 6-31G*
  Basis Set:
  @DF-RHF Final Energy:  -230.98411924232590
    Total Energy =                       -230.9841192423258178
  Basis Set: 6-31G*
  Basis Set:
  Basis Set: 6-31G*
  Basis Set:
  @DF-RHF Final Energy:  -230.98412243452890
    Total Energy =                       -230.9841224345290129
  Basis Set: 6-31G*
  Basis Set:
  Basis Set: 6-31G*
  Basis Set:
  @DF-RHF Final Energy:  -230.98412425346331
    Total Energy =                       -230.9841242534633636
  Basis Set: 6-31G*
  Basis Set:
  Charge       = 0
  Multiplicity = 1
  Basis Set: 6-31G*
  Basis Set:

    Orbital Energies (a.u.)
    -----------------------

    Doubly Occupied:

       1A    -20.563550     2A    -11.327083     3A    -11.238912
       4A    -11.235794     5A    -11.220756     6A     -1.403356
       7A     -1.086223     8A     -0.973182     9A     -0.845437
      10A     -0.790749    11A     -0.666834    12A     -0.649261
      13A     -0.626091    14A     -0.591023    15A     -0.559422
      16A     -0.534548    17A     -0.504597    18A     -0.494745
      19A     -0.481123    20A     -0.410720

  @DF-RHF Final Energy:  -230.98412502665741

   => Energetics <=

    Nuclear Repulsion Energy =            173.5869102598357472
    One-Electron Energy =                -656.7352616486914485
    Two-Electron Energy =                 252.1642263621984057
    DFT Exchange-Correlation Energy =       0.0000000000000000
    Empirical Dispersion Energy =           0.0000000000000000
    PCM Polarization Energy =               0.0000000000000000
    EFP Energy =                            0.0000000000000000
    Total Energy =                       -230.9841250266572956
    Molecular point group: c1
  Basis Set: 6-31G*
  Basis Set:

  -Total Gradient:
     Atom            X                  Y                   Z
    ------   -----------------  -----------------  -----------------
       1       -0.000004307214    -0.000002405523    -0.000002570170
       2        0.000018538891    -0.000005020183     0.000008995194
       3       -0.001001222884     0.002969890908    -0.000906040418
       4       -0.000011388643     0.000004454483    -0.000001357799
       5       -0.000217472557    -0.002463823548    -0.001961341854
       6        0.000847908942    -0.002078339861     0.001043811064
       7        0.000001447732    -0.000001330162     0.000002357774
       8        0.000005724347     0.000014012585    -0.000004125480
       9        0.000357608786     0.001558309542     0.001823993008
      10        0.000000321970     0.000004520658    -0.000001327485
      11        0.000000974187    -0.000001765906    -0.000006118224
      12        0.000000764764     0.000002722147     0.000001190564
      13        0.000001101674    -0.000001225138     0.000002533826

  **** Optimization is complete! (in 8 steps) ****
    Final optimized geometry and variables:
    Molecular point group: c1

    Geometry (in Angstrom), charge = 0, multiplicity = 1:

    H            1.088678742697     0.617808433528     1.479618179075
    C            1.124943029092     0.253347013003     0.445527459831
    C            0.054585872605     0.804426068078    -0.463778681548
    O            1.962561085995    -0.521749642008     0.114811000399
    C           -1.355433473147     0.504296157230     0.071607860854
    H            0.205952099143     0.371355976817    -1.445754965334
    H            0.202746444345     1.880353030192    -0.529945641309
    C           -1.795439846401    -0.938859204282    -0.169636810299
    H           -2.060532005877     1.193809257926    -0.381245979075
    H           -1.385088009928     0.720619842430     1.138234551214
    H           -1.833829198148    -1.160702985628    -1.231580321142
    H           -2.782375486943    -1.117377262127     0.244442248960
    H           -1.110360955615    -1.645775959231     0.288626112324

  Mulliken Charges: (a.u.)
   Center  Symbol    Alpha    Beta     Spin     Total
       1     H     0.43213  0.43213  0.00000  0.13573
       2     C     2.83257  2.83257  0.00000  0.33486
       3     C     3.20725  3.20725  0.00000 -0.41449
       4     O     4.23630  4.23630  0.00000 -0.47259
       5     C     3.16723  3.16723  0.00000 -0.33446
       6     H     0.39947  0.39947  0.00000  0.20106
       7     H     0.40729  0.40729  0.00000  0.18542
       8     C     3.24112  3.24112  0.00000 -0.48224
       9     H     0.41165  0.41165  0.00000  0.17671
      10     H     0.41876  0.41876  0.00000  0.16249
      11     H     0.41635  0.41635  0.00000  0.16730
      12     H     0.41570  0.41570  0.00000  0.16859
      13     H     0.41419  0.41419  0.00000  0.17162

   Total alpha = 20.00000, Total beta = 20.00000, Total charge = -0.00000
