  ==> Input File <==

--------------------------------------------------------------------------
set {
	reference rhf
	basis cc-pvtz
}

set_num_threads( 4 )
memory 2 gb

molecule MOL {
0 1

H	 -3.971167	 -0.927035	 -0.815086
C	 -2.907157	 -0.789241	 -0.847825
C	 -2.330551	 -0.119216	 -1.911890
C	 -2.117125	 -1.281893	 0.173511
H	 -2.944393	 0.262901	 -2.704282
C	 -0.963229	 0.057458	 -1.953257
H	 -2.565258	 -1.801358	 0.998256
C	 -0.747861	 -1.105787	 0.133524
H	 -0.500311	 0.573732	 -2.769484
C	 -0.166874	 -0.435046	 -0.930935
H	 -0.133171	 -1.486076	 0.922869
C	 1.305382	 -0.218174	 -1.022304
O	 1.968286	 -0.725612	 -0.000027
O	 1.833790	 0.350655	 -1.918070
C	 3.373556	 -0.568203	 0.000011
H	 3.695416	 -0.031588	 -0.879663
H	 3.782700	 -1.565294	 -0.000152
H	 3.695405	 -0.031851	 0.879862

	symmetry c1
}
set optking {
	frozen_dihedral = ("
		12 13 15 16
	")
}

ee = optimize('scf')
oeprop('DIPOLE', 'QUADRUPOLE', 'MULLIKEN_CHARGES')
f=open( 'psi4out.xyz', 'w' )
f.write( "18  " )
f.write( str(ee) + "\n" )
f.write( MOL.save_string_xyz() )
f.close()
--------------------------------------------------------------------------

    Molecular point group: c1
  Charge       = 0
  Multiplicity = 1
  Basis Set: CC-PVTZ
  Basis Set:
  @DF-RHF Final Energy:  -457.50708842970539
    Total Energy =                       -457.5070884297050497
    Molecular point group: c1
  Basis Set: CC-PVTZ
  Basis Set:
  Basis Set: CC-PVTZ
  Basis Set:
  @DF-RHF Final Energy:  -457.50748261091866
    Total Energy =                       -457.5074826109184869
  Basis Set: CC-PVTZ
  Basis Set:
  Basis Set: CC-PVTZ
  Basis Set:
  @DF-RHF Final Energy:  -457.50793443879707
    Total Energy =                       -457.5079344387970650
  Basis Set: CC-PVTZ
  Basis Set:
  Basis Set: CC-PVTZ
  Basis Set:
  @DF-RHF Final Energy:  -457.50780408603163
    Total Energy =                       -457.5078040860314559
  Basis Set: CC-PVTZ
  Basis Set:
  Basis Set: CC-PVTZ
  Basis Set:
  @DF-RHF Final Energy:  -457.50809000434788
    Total Energy =                       -457.5080900043469683
  Basis Set: CC-PVTZ
  Basis Set:
  Charge       = 0
  Multiplicity = 1
  Basis Set: CC-PVTZ
  Basis Set:

    Orbital Energies (a.u.)
    -----------------------

    Doubly Occupied:

       1A    -20.599867     2A    -20.533618     3A    -11.373286
       4A    -11.279777     5A    -11.244526     6A    -11.243169
       7A    -11.242226     8A    -11.239605     9A    -11.235668
      10A    -11.234904    11A     -1.474383    12A     -1.369121
      13A     -1.170329    14A     -1.051549    15A     -1.028651
      16A     -0.981617    17A     -0.862720    18A     -0.838021
      19A     -0.780335    20A     -0.745078    21A     -0.688417
      22A     -0.679221    23A     -0.676043    24A     -0.634302
      25A     -0.629712    26A     -0.600862    27A     -0.587391
      28A     -0.571661    29A     -0.526105    30A     -0.519987
      31A     -0.510137    32A     -0.501474    33A     -0.459932
      34A     -0.450067    35A     -0.349997    36A     -0.345847

  @DF-RHF Final Energy:  -457.50809336557847

   => Energetics <=

    Nuclear Repulsion Energy =            493.6011355295456724
    One-Electron Energy =               -1601.6992510188902088
    Two-Electron Energy =                 650.5900221237653795
    DFT Exchange-Correlation Energy =       0.0000000000000000
    Empirical Dispersion Energy =           0.0000000000000000
    PCM Polarization Energy =               0.0000000000000000
    EFP Energy =                            0.0000000000000000
    Total Energy =                       -457.5080933655791569
    Molecular point group: c1
  Basis Set: CC-PVTZ
  Basis Set:

  -Total Gradient:
     Atom            X                  Y                   Z
    ------   -----------------  -----------------  -----------------
       1        0.000008251884    -0.000000589621     0.000003074816
       2        0.000008484798     0.000002761660    -0.000005710042
       3       -0.000000562768    -0.000001111159     0.000009852434
       4        0.000017864401     0.000001467906    -0.000004800694
       5        0.000008233211    -0.000000162621     0.000001075855
       6        0.000024179274     0.000002373691    -0.000001610699
       7        0.000003401770     0.000000268849     0.000000882976
       8       -0.000005584346    -0.000000484233     0.000005081789
       9        0.000000840428     0.000000861603    -0.000003555769
      10        0.000018160438    -0.000007316287    -0.000006624500
      11       -0.000002756396     0.000000905047    -0.000001286312
      12       -0.000007100605     0.000002424885     0.000038325833
      13       -0.000026624567     0.000070801733     0.000068806144
      14        0.000020812744    -0.000003804488     0.000004245512
      15       -0.000032228555    -0.000119894132    -0.000085580958
      16       -0.000017177515     0.000037229181    -0.000007654113
      17        0.000063895327     0.000003482392     0.000011247899
      18       -0.000082089518     0.000010785595    -0.000025770170

  **** Optimization is complete! (in 6 steps) ****
    Final optimized geometry and variables:
    Molecular point group: c1

    Geometry (in Angstrom), charge = 0, multiplicity = 1:

    H           -4.020795267123    -0.463353271462     0.035795462216
    C           -2.957642200727    -0.321601231917    -0.007330635495
    C           -2.393875064591     0.350897518565    -1.076756852519
    C           -2.155622662228    -0.811506972628     1.005856756767
    H           -3.016761337812     0.731055085067    -1.863084112947
    C           -1.027697165418     0.532613833359    -1.131448272002
    H           -2.593413234123    -1.332941440897     1.834956266785
    C           -0.787352566965    -0.630278472163     0.952513523963
    H           -0.575063165301     1.050867564718    -1.952156096666
    C           -0.219151513473     0.042851559186    -0.117234881026
    H           -0.163946365350    -1.008630536815     1.735811723775
    C            1.252298116877     0.266500347198    -0.225080583705
    O            1.919283243037    -0.242207291978     0.794981377761
    O            1.760832427139     0.838643896717    -1.129549854602
    C            3.328246206177    -0.115401847634     0.843694951412
    H            3.697149751066     0.415520810021    -0.016049026956
    H            3.751372674382    -1.108519177876     0.878686131538
    H            3.582708896115     0.417313859125     1.748069821874

  Mulliken Charges: (a.u.)
   Center  Symbol    Alpha    Beta     Spin     Total
       1     H     0.42035  0.42035  0.00000  0.15930
       2     C     3.06971  3.06971  0.00000 -0.13943
       3     C     3.07552  3.07552  0.00000 -0.15105
       4     C     3.07477  3.07477  0.00000 -0.14954
       5     H     0.42050  0.42050  0.00000  0.15900
       6     C     3.07600  3.07600  0.00000 -0.15200
       7     H     0.42200  0.42200  0.00000  0.15600
       8     C     3.08183  3.08183  0.00000 -0.16366
       9     H     0.40633  0.40633  0.00000  0.18734
      10     C     3.01880  3.01880  0.00000 -0.03760
      11     H     0.41125  0.41125  0.00000  0.17749
      12     C     2.77409  2.77409  0.00000  0.45182
      13     O     4.15029  4.15029  0.00000 -0.30057
      14     O     4.21150  4.21150  0.00000 -0.42300
      15     C     3.04318  3.04318  0.00000 -0.08636
      16     H     0.43908  0.43908  0.00000  0.12183
      17     H     0.45240  0.45240  0.00000  0.09520
      18     H     0.45240  0.45240  0.00000  0.09521

   Total alpha = 36.00000, Total beta = 36.00000, Total charge =  0.00000
