  ==> Input File <==

--------------------------------------------------------------------------
set {
	reference rhf
	basis 6-31G*
}

set_num_threads( 1 )
memory 2 gb

molecule MOL {
0 1

H	 -4.236494	 0.538104	 0.039757
O	 -3.517110	 -0.026191	 -0.205115
C	 -2.306886	 0.532354	 0.237577
C	 -1.177863	 -0.397191	 -0.171080
H	 -2.156308	 1.517575	 -0.201710
H	 -2.315015	 0.655684	 1.319734
C	 0.198102	 0.111031	 0.262842
H	 -1.208843	 -0.518759	 -1.250427
H	 -1.368741	 -1.376554	 0.258909
C	 1.331804	 -0.827780	 -0.158768
H	 0.361943	 1.100838	 -0.156218
H	 0.217265	 0.229072	 1.345532
C	 2.723619	 -0.410569	 0.329459
H	 1.342964	 -0.912588	 -1.244120
H	 1.116806	 -1.824343	 0.220779
C	 2.789171	 -0.022053	 1.807665
H	 3.058155	 0.434150	 -0.267721
H	 3.429041	 -1.216225	 0.135903
H	 2.084523	 0.773898	 2.033434
H	 2.561886	 -0.859609	 2.458832
H	 3.781465	 0.332546	 2.069136

	symmetry c1
}
set optking {
	frozen_dihedral = ("
		2 3 4 8,
		8 4 7 10,
		4 7 10 14,
		1 2 3 5
	")
}

ee = energy('scf')
oeprop('DIPOLE', 'QUADRUPOLE', 'MULLIKEN_CHARGES')
f=open( 'psi4out.xyz', 'w' )
f.write( "21  " )
f.write( str(ee) + "\n" )
f.write( MOL.save_string_xyz() )
f.close()
--------------------------------------------------------------------------

    Molecular point group: c1

    Geometry (in Angstrom), charge = 0, multiplicity = 1:

       Center              X                  Y                   Z               Mass
    ------------   -----------------  -----------------  -----------------  -----------------
           H         -4.169506912057     0.672519693151    -0.266069728784     1.007825032070
           O         -3.450122912057     0.108224693151    -0.510941728784    15.994914619560
           C         -2.239898912057     0.666769693151    -0.068249728784    12.000000000000
           C         -1.110875912057    -0.262775306849    -0.476906728784    12.000000000000
           H         -2.089320912057     1.651990693151    -0.507536728784     1.007825032070
           H         -2.248027912057     0.790099693151     1.013907271216     1.007825032070
           C          0.265089087943     0.245446693151    -0.042984728784    12.000000000000
           H         -1.141855912057    -0.384343306849    -1.556253728784     1.007825032070
           H         -1.301753912057    -1.242138306849    -0.046917728784     1.007825032070
           C          1.398791087943    -0.693364306849    -0.464594728784    12.000000000000
           H          0.428930087943     1.235253693151    -0.462044728784     1.007825032070
           H          0.284252087943     0.363487693151     1.039705271216     1.007825032070
           C          2.790606087943    -0.276153306849     0.023632271216    12.000000000000
           H          1.409951087943    -0.778172306849    -1.549946728784     1.007825032070
           H          1.183793087943    -1.689927306849    -0.085047728784     1.007825032070
           C          2.856158087943     0.112362693151     1.501838271216    12.000000000000
           H          3.125142087943     0.568565693151    -0.573547728784     1.007825032070
           H          3.496028087943    -1.081809306849    -0.169923728784     1.007825032070
           H          2.151510087943     0.908313693151     1.727607271216     1.007825032070
           H          2.628873087943    -0.725193306849     2.153005271216     1.007825032070
           H          3.848452087943     0.466961693151     1.763309271216     1.007825032070

  Charge       = 0
  Multiplicity = 1
  Basis Set: 6-31G*
  Basis Set:

    Orbital Energies (a.u.)
    -----------------------

    Doubly Occupied:

       1A    -20.551799     2A    -11.266995     3A    -11.215347
       4A    -11.215095     5A    -11.213498     6A    -11.210504
       7A    -11.208005     8A     -1.358619     9A     -1.087029
      10A     -1.032693    11A     -0.953176    12A     -0.878605
      13A     -0.808687    14A     -0.775077    15A     -0.692427
      16A     -0.661999    17A     -0.624439    18A     -0.607293
      19A     -0.586330    20A     -0.569881    21A     -0.537520
      22A     -0.521487    23A     -0.506971    24A     -0.487292
      25A     -0.480548    26A     -0.458916    27A     -0.454062
      28A     -0.443978    29A     -0.433914

  @DF-RHF Final Energy:  -310.21016084810367

   => Energetics <=

    Nuclear Repulsion Energy =            313.8279780634567260
    One-Electron Energy =               -1042.3926153658162548
    Two-Electron Energy =                 418.3544764542554617
    DFT Exchange-Correlation Energy =       0.0000000000000000
    Empirical Dispersion Energy =           0.0000000000000000
    PCM Polarization Energy =               0.0000000000000000
    EFP Energy =                            0.0000000000000000
    Total Energy =                       -310.2101608481040671

  Mulliken Charges: (a.u.)
   Center  Symbol    Alpha    Beta     Spin     Total
       1     H     0.28119  0.28119  0.00000  0.43763
       2     O     4.37179  4.37179  0.00000 -0.74358
       3     C     2.98969  2.98969  0.00000  0.02062
       4     C     3.15831  3.15831  0.00000 -0.31662
       5     H     0.43299  0.43299  0.00000  0.13402
       6     H     0.43294  0.43294  0.00000  0.13412
       7     C     3.16453  3.16453  0.00000 -0.32905
       8     H     0.41507  0.41507  0.00000  0.16985
       9     H     0.41471  0.41471  0.00000  0.17059
      10     C     3.15134  3.15134  0.00000 -0.30267
      11     H     0.42391  0.42391  0.00000  0.15217
      12     H     0.42034  0.42034  0.00000  0.15932
      13     C     3.15175  3.15175  0.00000 -0.30350
      14     H     0.42045  0.42045  0.00000  0.15910
      15     H     0.42329  0.42329  0.00000  0.15341
      16     C     3.24364  3.24364  0.00000 -0.48728
      17     H     0.42369  0.42369  0.00000  0.15261
      18     H     0.42016  0.42016  0.00000  0.15969
      19     H     0.41962  0.41962  0.00000  0.16076
      20     H     0.42168  0.42168  0.00000  0.15665
      21     H     0.41892  0.41892  0.00000  0.16216

   Total alpha = 29.00000, Total beta = 29.00000, Total charge = -0.00000
