                              Psi4 1.0.54 Driver

  ==> Input File <==

--------------------------------------------------------------------------
set {
	reference rhf
	basis cc-pvtz
}

set_num_threads( 4 )
memory 2 gb

molecule MOL {
0 1

H	 -1.514942	 -0.229484	 0.001247
N	 -0.625934	 -0.663929	 -0.000707
C	 -0.567170	 -2.106715	 -0.003937
C	 0.468494	 0.129045	 -0.002160
H	 -1.050809	 -2.516739	 0.874677
H	 0.467561	 -2.404074	 -0.002482
H	 -1.047171	 -2.513202	 -0.886210
C	 1.785715	 -0.615093	 0.000603
O	 0.413285	 1.323206	 0.000532
H	 1.866994	 -1.243310	 -0.878792
H	 2.591506	 0.100263	 0.006422
H	 1.860358	 -1.250360	 0.875522

	symmetry c1
}
set optking {
	frozen_dihedral = ("
		3 2 4 9
	")
}

ee,wfn = optimize('scf', return_wfn=True)
oeprop( wfn, 'DIPOLE', 'QUADRUPOLE', 'MULLIKEN_CHARGES')
f=open( 'psi4out.xyz', 'w' )
f.write( "12  " )
f.write( str(ee) + "\n" )
f.write( MOL.save_string_xyz() )
f.close()
--------------------------------------------------------------------------

    Molecular point group: c1
  Charge       = 0
  Multiplicity = 1
  Basis Set: CC-PVTZ
  Basis Set:
  @DF-RHF Final Energy:  -247.09213003091023
    Total Energy =                       -247.0921300309100843
    Molecular point group: c1
  Basis Set: CC-PVTZ
  Basis Set:
  Basis Set: CC-PVTZ
  Basis Set:
  @DF-RHF Final Energy:  -247.09355810624072
    Total Energy =                       -247.0935581062407209
  Basis Set: CC-PVTZ
  Basis Set:
  Basis Set: CC-PVTZ
  Basis Set:
  @DF-RHF Final Energy:  -247.09628748530628
    Total Energy =                       -247.0962874853062203
  Basis Set: CC-PVTZ
  Basis Set:
  Basis Set: CC-PVTZ
  Basis Set:
  @DF-RHF Final Energy:  -247.09655120851716
    Total Energy =                       -247.0965512085172691
  Basis Set: CC-PVTZ
  Basis Set:
  Basis Set: CC-PVTZ
  Basis Set:
  @DF-RHF Final Energy:  -247.09657317014629
    Total Energy =                       -247.0965731701461436
  Basis Set: CC-PVTZ
  Basis Set:
  Basis Set: CC-PVTZ
  Basis Set:
  @DF-RHF Final Energy:  -247.09657494531496
    Total Energy =                       -247.0965749453147851
  Basis Set: CC-PVTZ
  Basis Set:
  Basis Set: CC-PVTZ
  Basis Set:
  @DF-RHF Final Energy:  -247.09657875309756
    Total Energy =                       -247.0965787530974467
  Basis Set: CC-PVTZ
  Basis Set:
  Charge       = 0
  Multiplicity = 1
  Basis Set: CC-PVTZ
  Basis Set:

    Orbital Energies (a.u.)
    -----------------------

    Doubly Occupied:

       1A    -20.503632     2A    -15.574156     3A    -11.337755
       4A    -11.268991     5A    -11.228436     6A     -1.386954
       7A     -1.230948     8A     -1.006274     9A     -0.959562
      10A     -0.784442    11A     -0.675938    12A     -0.670699
      13A     -0.640639    14A     -0.589843    15A     -0.580583
      16A     -0.559795    17A     -0.558044    18A     -0.516524
      19A     -0.415357    20A     -0.386234

  @DF-RHF Final Energy:  -247.09657990836010

   => Energetics <=

    Nuclear Repulsion Energy =            181.4895107280829905
    One-Electron Energy =                -695.4225664439034063
    Two-Electron Energy =                 266.8364758074602605
    DFT Exchange-Correlation Energy =       0.0000000000000000
    Empirical Dispersion Energy =           0.0000000000000000
    PCM Polarization Energy =               0.0000000000000000
    EFP Energy =                            0.0000000000000000
    Total Energy =                       -247.0965799083601269
    Molecular point group: c1
  Basis Set: CC-PVTZ
  Basis Set:

  -Total Gradient:
     Atom            X                  Y                   Z
    ------   -----------------  -----------------  -----------------
       1       -0.000003655392    -0.000004168137    -0.000003410222
       2        0.000012770303     0.000013493486    -0.000008484653
       3       -0.000004128255    -0.000020029203     0.000021342143
       4       -0.000013991051    -0.000006916181    -0.000041170252
       5        0.000000860298     0.000000230465     0.000001599382
       6       -0.000000181630    -0.000000030192    -0.000005918800
       7        0.000000306660     0.000009938366     0.000000451680
       8        0.000004097645     0.000000350215     0.000008616988
       9        0.000002914344     0.000007659781     0.000024817617
      10        0.000001452364     0.000003232695     0.000001108653
      11        0.000000187661    -0.000001396823    -0.000003501857
      12       -0.000000632946    -0.000002364468     0.000004549320

  **** Optimization is complete! (in 8 steps) ****
    Final optimized geometry and variables:
    Molecular point group: c1

    Geometry (in Angstrom), charge = 0, multiplicity = 1:

    H           -1.734270096646     0.245708856279     0.072829478937
    N           -0.887694240440    -0.271801646420     0.036394359755
    C           -0.983247680260    -1.709552074530     0.036189166350
    C            0.215030792969     0.511134357217    -0.007644994225
    H           -1.475446903780    -2.066689673817     0.933390825725
    H           -0.003584860287    -2.155933640368    -0.001988717973
    H           -1.542143019098    -2.062503808896    -0.822829009805
    C            1.565531552846    -0.166450360776    -0.065862955005
    O            0.119667346534     1.704012869360    -0.000145394643
    H            1.652147795505    -0.788684640821    -0.948205329676
    H            2.318550226548     0.603384857683    -0.096346709298
    H            1.725984805909    -0.791445097946     0.804129352793

  Mulliken Charges: (a.u.)
   Center  Symbol    Alpha    Beta     Spin     Total
       1     H     0.40912  0.40912  0.00000  0.18176
       2     N     3.60671  3.60671  0.00000 -0.21343
       3     C     3.08117  3.08117  0.00000 -0.16233
       4     C     2.84720  2.84720  0.00000  0.30561
       5     H     0.45110  0.45110  0.00000  0.09781
       6     H     0.45087  0.45087  0.00000  0.09826
       7     H     0.45118  0.45118  0.00000  0.09765
       8     C     3.16095  3.16095  0.00000 -0.32189
       9     O     4.21357  4.21357  0.00000 -0.42714
      10     H     0.44954  0.44954  0.00000  0.10092
      11     H     0.42907  0.42907  0.00000  0.14185
      12     H     0.44953  0.44953  0.00000  0.10094

   Total alpha = 20.00000, Total beta = 20.00000, Total charge =  0.00000

*** Psi4 exiting successfully. Buy a developer a beer!
