  ==> Input File <==

--------------------------------------------------------------------------
set {
	reference rhf
	basis 6-31G*
}

set_num_threads( 4 )
memory 2 gb

molecule MOL {
0 1

O	 1.576395	 1.768323	 -0.480365
C	 0.910765	 1.502687	 -1.428780
C	 -0.395961	 0.747984	 -1.401246
O	 1.239521	 1.849479	 -2.666840
C	 -0.823008	 0.326187	 0.001381
H	 -1.146183	 1.380683	 -1.867694
H	 -0.287538	 -0.112857	 -2.055399
C	 -2.149452	 -0.435131	 -0.000098
H	 -0.903805	 1.206966	 0.630579
H	 -0.044894	 -0.288993	 0.442288
C	 -3.368779	 0.488503	 -0.000883
H	 -2.193746	 -1.087250	 -0.871175
H	 -2.195311	 -1.087803	 0.870418
C	 -4.693822	 -0.272754	 -0.001129
H	 -3.325798	 1.139422	 -0.871284
H	 -3.326423	 1.139959	 0.869145
H	 -4.781274	 -0.907928	 -0.878124
H	 -5.538651	 0.408946	 -0.001420
H	 -4.781694	 -0.907783	 0.875984
C	 2.448267	 2.567891	 -2.833489
H	 2.413345	 3.501560	 -2.290745
H	 2.537392	 2.753962	 -3.892408
H	 3.288156	 1.985028	 -2.483687

	symmetry c1
}
set optking {
	frozen_dihedral = ("
		9 5 8 12
	")
}

ee = optimize('scf')
oeprop('DIPOLE', 'QUADRUPOLE', 'MULLIKEN_CHARGES')
f=open( 'psi4out.xyz', 'w' )
f.write( "23  " )
f.write( str(ee) + "\n" )
f.write( MOL.save_string_xyz() )
f.close()
--------------------------------------------------------------------------

    Molecular point group: c1
  Charge       = 0
  Multiplicity = 1
  Basis Set: 6-31G*
  Basis Set:
  @DF-RHF Final Energy:  -422.97359742129669
    Total Energy =                       -422.9735974212962901
    Molecular point group: c1
  Basis Set: 6-31G*
  Basis Set:
  Basis Set: 6-31G*
  Basis Set:
  @DF-RHF Final Energy:  -422.97365465654048
    Total Energy =                       -422.9736546565403614
  Basis Set: 6-31G*
  Basis Set:
  Basis Set: 6-31G*
  Basis Set:
  @DF-RHF Final Energy:  -422.97270837377039
    Total Energy =                       -422.9727083737700468
  Basis Set: 6-31G*
  Basis Set:
  Basis Set: 6-31G*
  Basis Set:
  @DF-RHF Final Energy:  -422.97377245074176
    Total Energy =                       -422.9737724507417624
  Basis Set: 6-31G*
  Basis Set:
  Basis Set: 6-31G*
  Basis Set:
  @DF-RHF Final Energy:  -422.97377648322600
    Total Energy =                       -422.9737764832254925
  Basis Set: 6-31G*
  Basis Set:
  Basis Set: 6-31G*
  Basis Set:
  @DF-RHF Final Energy:  -422.97378508013185
    Total Energy =                       -422.9737850801318473
  Basis Set: 6-31G*
  Basis Set:
  Basis Set: 6-31G*
  Basis Set:
  @DF-RHF Final Energy:  -422.97378648644815
    Total Energy =                       -422.9737864864482617
  Basis Set: 6-31G*
  Basis Set:
  Charge       = 0
  Multiplicity = 1
  Basis Set: 6-31G*
  Basis Set:

    Orbital Energies (a.u.)
    -----------------------

    Doubly Occupied:

       1A    -20.603575     2A    -20.545421     3A    -11.372150
       4A    -11.280818     5A    -11.235274     6A    -11.219424
       7A    -11.218390     8A    -11.217751     9A    -11.210690
      10A     -1.469257    11A     -1.362711    12A     -1.093231
      13A     -1.042403    14A     -0.986819    15A     -0.932329
      16A     -0.848111    17A     -0.793339    18A     -0.765870
      19A     -0.701223    20A     -0.682335    21A     -0.672390
      22A     -0.631435    23A     -0.627567    24A     -0.598801
      25A     -0.575020    26A     -0.558018    27A     -0.555651
      28A     -0.528180    29A     -0.520465    30A     -0.503726
      31A     -0.493108    32A     -0.469394    33A     -0.465235
      34A     -0.458252    35A     -0.452319    36A     -0.436833

  @DF-RHF Final Energy:  -422.97378657236266

   => Energetics <=

    Nuclear Repulsion Energy =            456.6413959143329748
    One-Electron Energy =               -1480.9753309394714051
    Two-Electron Energy =                 601.3601484527761158
    DFT Exchange-Correlation Energy =       0.0000000000000000
    Empirical Dispersion Energy =           0.0000000000000000
    PCM Polarization Energy =               0.0000000000000000
    EFP Energy =                            0.0000000000000000
    Total Energy =                       -422.9737865723624282
    Molecular point group: c1
  Basis Set: 6-31G*
  Basis Set:

  -Total Gradient:
     Atom            X                  Y                   Z
    ------   -----------------  -----------------  -----------------
       1        0.000003962468    -0.000002677977    -0.000000573629
       2       -0.000016138150     0.000018266137    -0.000001226009
       3        0.000008423779    -0.000009838552     0.000004149028
       4        0.000008506047    -0.000002662166    -0.000001783676
       5        0.000719089828    -0.001240348250     0.002171805470
       6        0.000006014487     0.000001354896     0.000001673896
       7       -0.000000233045     0.000001232826     0.000001560219
       8        0.001109979905    -0.001987394654     0.001173753501
       9       -0.000763587738     0.001360532944    -0.002006450819
      10        0.000002371884     0.000004671223    -0.000005129995
      11       -0.000007879233    -0.000009778055     0.000009001634
      12       -0.001059672832     0.001855223281    -0.001345388644
      13       -0.000003337040     0.000006354373    -0.000002951643
      14       -0.000003036359     0.000007802216    -0.000005345299
      15       -0.000004947002    -0.000000497199     0.000005079625
      16       -0.000000226201    -0.000003080450     0.000001123578
      17        0.000002977652    -0.000003086663     0.000002619697
      18       -0.000002098463    -0.000000860874    -0.000003686929
      19       -0.000000405409     0.000004288546     0.000002456406
      20        0.000000076972     0.000001589825    -0.000000581693
      21       -0.000000135653    -0.000000328320    -0.000000044053
      22        0.000000035346    -0.000000490980     0.000000035956
      23        0.000000258759    -0.000000272127    -0.000000096620

  **** Optimization is complete! (in 8 steps) ****
    Final optimized geometry and variables:
    Molecular point group: c1

    Geometry (in Angstrom), charge = 0, multiplicity = 1:

    O            2.127238429728     0.809339200682     0.517346053063
    C            1.467079124251     0.535043733702    -0.432458389610
    C            0.167127394489    -0.231538811627    -0.407485132262
    O            1.799508463696     0.877112443688    -1.670960420346
    C           -0.257175884187    -0.656275034652     0.997816983671
    H           -0.583330057742     0.393206009348    -0.882589223336
    H            0.287928931494    -1.094232589159    -1.056911120094
    C           -1.599445036061    -1.402777958532     1.011726901467
    H           -0.321967473323     0.230323517060     1.620249730117
    H            0.522412783869    -1.277700960855     1.423760093829
    C           -2.820793710381    -0.477467435204     1.006344600568
    H           -1.661136280900    -2.061973735795     0.147350673807
    H           -1.648451039635    -2.038340135344     1.891898900810
    C           -4.143741516256    -1.242331393928     0.990910791058
    H           -2.781853810233     0.184103081830     0.143809407524
    H           -2.784880614644     0.164154748459     1.883803535867
    H           -4.226727876973    -1.865620096647     0.104955696081
    H           -4.990883604243    -0.563553978460     0.998011731583
    H           -4.231523769582    -1.889992736319     1.858677635046
    C            3.004166736740     1.602806457169    -1.835822086724
    H            2.960216190261     2.539405981254    -1.298826360756
    H            3.097306984325     1.783310515836    -2.895406006725
    H            3.846246177726     1.027717213789    -1.478477386766

  Mulliken Charges: (a.u.)
   Center  Symbol    Alpha    Beta     Spin     Total
       1     O     4.28597  4.28597  0.00000 -0.57194
       2     C     2.60536  2.60536  0.00000  0.78928
       3     C     3.20911  3.20911  0.00000 -0.41823
       4     O     4.30732  4.30732  0.00000 -0.61464
       5     C     3.15467  3.15467  0.00000 -0.30934
       6     H     0.40000  0.40000  0.00000  0.19999
       7     H     0.40068  0.40068  0.00000  0.19864
       8     C     3.15654  3.15654  0.00000 -0.31308
       9     H     0.41081  0.41081  0.00000  0.17838
      10     H     0.40959  0.40959  0.00000  0.18081
      11     C     3.15338  3.15338  0.00000 -0.30675
      12     H     0.42429  0.42429  0.00000  0.15141
      13     H     0.41772  0.41772  0.00000  0.16455
      14     C     3.23941  3.23941  0.00000 -0.47882
      15     H     0.42404  0.42404  0.00000  0.15192
      16     H     0.42063  0.42063  0.00000  0.15873
      17     H     0.42179  0.42179  0.00000  0.15643
      18     H     0.41862  0.41862  0.00000  0.16276
      19     H     0.42099  0.42099  0.00000  0.15802
      20     C     3.09243  3.09243  0.00000 -0.18487
      21     H     0.40909  0.40909  0.00000  0.18183
      22     H     0.40847  0.40847  0.00000  0.18306
      23     H     0.40907  0.40907  0.00000  0.18185

   Total alpha = 36.00000, Total beta = 36.00000, Total charge =  0.00000
