  ==> Input File <==

--------------------------------------------------------------------------
set {
	reference rhf
	basis cc-pvtz
}

set_num_threads( 4 )
memory 2 gb

molecule MOL {
0 1

H	 2.778157	 0.818641	 -0.020072
N	 2.326826	 -0.066186	 0.000000
C	 0.934676	 -0.005420	 0.000000
H	 2.712623	 -0.682743	 -0.676787
C	 0.226436	 -0.001077	 -1.195129
C	 0.226436	 -0.001077	 1.195129
H	 0.759091	 -0.011439	 -2.128123
C	 -1.153391	 0.009141	 -1.189028
H	 0.759091	 -0.011439	 2.128123
C	 -1.153391	 0.009141	 1.189028
H	 -1.680905	 0.012964	 -2.124348
C	 -1.857876	 0.014675	 0.000000
H	 -1.680905	 0.012964	 2.124348
H	 -2.930222	 0.022904	 0.000000

	symmetry c1
}
set optking {
	frozen_dihedral = ("
		1 2 3 5
	")
}

ee = optimize('scf')
oeprop('DIPOLE', 'QUADRUPOLE', 'MULLIKEN_CHARGES')
f=open( 'psi4out.xyz', 'w' )
f.write( "14  " )
f.write( str(ee) + "\n" )
f.write( MOL.save_string_xyz() )
f.close()
--------------------------------------------------------------------------

    Molecular point group: c1
  Charge       = 0
  Multiplicity = 1
  Basis Set: CC-PVTZ
  Basis Set:
  @DF-RHF Final Energy:  -285.82647912039329
    Total Energy =                       -285.8264791203929462
    Molecular point group: c1
  Basis Set: CC-PVTZ
  Basis Set:
  Basis Set: CC-PVTZ
  Basis Set:
  @DF-RHF Final Energy:  -285.82825879111715
    Total Energy =                       -285.8282587911170367
  Basis Set: CC-PVTZ
  Basis Set:
  Basis Set: CC-PVTZ
  Basis Set:
  @DF-RHF Final Energy:  -285.82857062371266
    Total Energy =                       -285.8285706237127215
  Basis Set: CC-PVTZ
  Basis Set:
  Basis Set: CC-PVTZ
  Basis Set:
  @DF-RHF Final Energy:  -285.82859384984226
    Total Energy =                       -285.8285938498422070
  Basis Set: CC-PVTZ
  Basis Set:
  Charge       = 0
  Multiplicity = 1
  Basis Set: CC-PVTZ
  Basis Set:

    Orbital Energies (a.u.)
    -----------------------

    Doubly Occupied:

       1A    -15.546183     2A    -11.262211     3A    -11.228680
       4A    -11.227334     5A    -11.223032     6A    -11.221717
       7A    -11.218846     8A     -1.213931     9A     -1.132184
      10A     -1.015877    11A     -0.990205    12A     -0.831602
      13A     -0.811349    14A     -0.706283    15A     -0.669663
      16A     -0.649291    17A     -0.623669    18A     -0.594343
      19A     -0.585556    20A     -0.511622    21A     -0.503752
      22A     -0.494113    23A     -0.425580    24A     -0.336722
      25A     -0.319978

  @DF-RHF Final Energy:  -285.82859624847509

   => Energetics <=

    Nuclear Repulsion Energy =            273.1229162512680091
    One-Electron Energy =                -927.2155733825527477
    Two-Electron Energy =                 368.2640608828096447
    DFT Exchange-Correlation Energy =       0.0000000000000000
    Empirical Dispersion Energy =           0.0000000000000000
    PCM Polarization Energy =               0.0000000000000000
    EFP Energy =                            0.0000000000000000
    Total Energy =                       -285.8285962484751508
    Molecular point group: c1
  Basis Set: CC-PVTZ
  Basis Set:

  -Total Gradient:
     Atom            X                  Y                   Z
    ------   -----------------  -----------------  -----------------
       1        0.000080431103     0.000039914714    -0.002897772181
       2       -0.000053370347     0.001105990387     0.003682420059
       3       -0.000146974422    -0.003385757274    -0.000558075537
       4       -0.000010938813     0.000011976571    -0.000029975228
       5       -0.000054005744     0.002287882471    -0.000102088362
       6        0.000207424460    -0.000047983352    -0.000062710044
       7        0.000000068155     0.000000773705     0.000013388030
       8        0.000118706951    -0.000077783105    -0.000063158175
       9        0.000007939302     0.000004608925     0.000007932281
      10       -0.000133358324    -0.000011720294    -0.000106189874
      11       -0.000021131289     0.000014253081     0.000011055589
      12        0.000000407218     0.000063062548     0.000137532147
      13        0.000013912174    -0.000001627035    -0.000010468559
      14       -0.000009110426    -0.000003591342    -0.000021890146

  **** Optimization is complete! (in 5 steps) ****
    Final optimized geometry and variables:
    Molecular point group: c1

    Geometry (in Angstrom), charge = 0, multiplicity = 1:

    H            2.734681026128     0.846552540009     0.055653179476
    N            2.349752456100    -0.075086447855     0.044243604191
    C            0.926466872712    -0.038737045959     0.000133445841
    H            2.722147750625    -0.537308414913    -0.757408458888
    C            0.220875534576    -0.020444348296    -1.192739116625
    C            0.225310228727    -0.004731354820     1.194019953304
    H            0.754758917315    -0.035488922258    -2.125067422949
    C           -1.160925434048     0.012830484713    -1.190797026597
    H            0.772419411268    -0.030225184284     2.116353782566
    C           -1.155129736439     0.049403226591     1.194202804671
    H           -1.692900234750     0.017801182946    -2.123282615021
    C           -1.855581509672     0.053694094940     0.002506300187
    H           -1.684303590364     0.076604083417     2.127846272730
    H           -2.928063447126     0.086007747298     0.003935405633

  Mulliken Charges: (a.u.)
   Center  Symbol    Alpha    Beta     Spin     Total
       1     H     0.42229  0.42229  0.00000  0.15543
       2     N     3.69594  3.69594  0.00000 -0.39189
       3     C     2.89649  2.89649  0.00000  0.20701
       4     H     0.42389  0.42389  0.00000  0.15222
       5     C     3.11370  3.11370  0.00000 -0.22740
       6     C     3.10463  3.10463  0.00000 -0.20925
       7     H     0.42901  0.42901  0.00000  0.14198
       8     C     3.07089  3.07089  0.00000 -0.14177
       9     H     0.41944  0.41944  0.00000  0.16111
      10     C     3.06435  3.06435  0.00000 -0.12870
      11     H     0.42368  0.42368  0.00000  0.15264
      12     C     3.08845  3.08845  0.00000 -0.17690
      13     H     0.42332  0.42332  0.00000  0.15336
      14     H     0.42392  0.42392  0.00000  0.15216

   Total alpha = 25.00000, Total beta = 25.00000, Total charge = -0.00000
