                              Psi4 1.0.54 Driver

  ==> Input File <==

--------------------------------------------------------------------------
set {
	reference rhf
	basis cc-pvtz
}

set_num_threads( 4 )
memory 2 gb

molecule MOL {
0 1

H	 1.573560	 -1.534536	 -0.316212
O	 1.675515	 -0.612943	 -0.465627
C	 1.135873	 0.113391	 0.608264
C	 0.027642	 1.012027	 0.090274
H	 1.902972	 0.727968	 1.072615
H	 0.756163	 -0.561896	 1.370018
C	 -1.138737	 0.285728	 -0.581921
H	 0.464661	 1.708096	 -0.618252
H	 -0.340737	 1.603071	 0.925246
C	 -1.933983	 -0.631436	 0.343653
H	 -0.763151	 -0.285569	 -1.422081
H	 -1.808359	 1.035291	 -0.992333
H	 -2.789188	 -1.049673	 -0.174718
H	 -1.335629	 -1.461368	 0.700418
H	 -2.305435	 -0.092167	 1.209725

	symmetry c1
}
set optking {
	frozen_dihedral = ("
		1 2 3 4
	")
}

ee,wfn = optimize('scf', return_wfn=True)
oeprop( wfn, 'DIPOLE', 'QUADRUPOLE', 'MULLIKEN_CHARGES')
f=open( 'psi4out.xyz', 'w' )
f.write( "15  " )
f.write( str(ee) + "\n" )
f.write( MOL.save_string_xyz() )
f.close()
--------------------------------------------------------------------------

    Molecular point group: c1
  Charge       = 0
  Multiplicity = 1
  Basis Set: CC-PVTZ
  Basis Set:
  @DF-RHF Final Energy:  -232.23542906784013
    Total Energy =                       -232.2354290678401867
    Molecular point group: c1
  Basis Set: CC-PVTZ
  Basis Set:
  Basis Set: CC-PVTZ
  Basis Set:
  @DF-RHF Final Energy:  -232.23578856882091
    Total Energy =                       -232.2357885688209649
  Basis Set: CC-PVTZ
  Basis Set:
  Basis Set: CC-PVTZ
  Basis Set:
  @DF-RHF Final Energy:  -232.23592307343023
    Total Energy =                       -232.2359230734302287
  Basis Set: CC-PVTZ
  Basis Set:
  Basis Set: CC-PVTZ
  Basis Set:
  @DF-RHF Final Energy:  -232.23592000621031
    Total Energy =                       -232.2359200062103355
  Basis Set: CC-PVTZ
  Basis Set:
  Basis Set: CC-PVTZ
  Basis Set:
  @DF-RHF Final Energy:  -232.23592662398926
    Total Energy =                       -232.2359266239893714
  Basis Set: CC-PVTZ
  Basis Set:
  Charge       = 0
  Multiplicity = 1
  Basis Set: CC-PVTZ
  Basis Set:

    Orbital Energies (a.u.)
    -----------------------

    Doubly Occupied:

       1A    -20.545510     2A    -11.265757     3A    -11.211892
       4A    -11.210837     5A    -11.208807     6A     -1.362795
       7A     -1.067727     8A     -0.974366     9A     -0.874029
      10A     -0.779646    11A     -0.706919    12A     -0.646697
      13A     -0.610710    14A     -0.583533    15A     -0.564746
      16A     -0.539624    17A     -0.507111    18A     -0.486559
      19A     -0.471656    20A     -0.456564    21A     -0.429025

  @DF-RHF Final Energy:  -232.23592676663483

   => Energetics <=

    Nuclear Repulsion Energy =            191.4433404730433210
    One-Electron Energy =                -694.3495157839900003
    Two-Electron Energy =                 270.6702485443120167
    DFT Exchange-Correlation Energy =       0.0000000000000000
    Empirical Dispersion Energy =           0.0000000000000000
    PCM Polarization Energy =               0.0000000000000000
    EFP Energy =                            0.0000000000000000
    Total Energy =                       -232.2359267666346341
    Molecular point group: c1
  Basis Set: CC-PVTZ
  Basis Set:

  -Total Gradient:
     Atom            X                  Y                   Z
    ------   -----------------  -----------------  -----------------
       1       -0.000180189556     0.000003630037    -0.000086165516
       2        0.000182440299    -0.000000500896     0.000119577574
       3        0.000056148457     0.000099925537    -0.000007615987
       4       -0.000067643316    -0.000102198933    -0.000018659823
       5        0.000008692380    -0.000005542024    -0.000011663744
       6        0.000000606043    -0.000006167714     0.000005229517
       7       -0.000004572461     0.000003823463    -0.000000703777
       8       -0.000010280134     0.000007615219    -0.000001711613
       9        0.000006774169    -0.000006292964    -0.000006635619
      10        0.000000063270    -0.000001181596     0.000006969244
      11       -0.000000943090     0.000008326584     0.000007280075
      12        0.000002921481    -0.000007394830     0.000003954599
      13        0.000006010051     0.000002602654     0.000003600593
      14       -0.000004729465     0.000008136003    -0.000004805930
      15        0.000004701872    -0.000004780538    -0.000008649594

  **** Optimization is complete! (in 6 steps) ****
    Final optimized geometry and variables:
    Molecular point group: c1

    Geometry (in Angstrom), charge = 0, multiplicity = 1:

    H            1.676778562159    -1.509530908145    -0.358008634723
    O            1.754445404729    -0.582084004175    -0.469191156817
    C            1.140788101491     0.101516682677     0.597223395798
    C            0.021833358137     1.001436977169     0.097098029667
    H            1.893250412048     0.708319218686     1.088655289709
    H            0.768632309741    -0.600646525747     1.335667793831
    C           -1.145244089497     0.277866463350    -0.575140510153
    H            0.453209750499     1.704679207843    -0.607916840738
    H           -0.343678014213     1.586162766706     0.938434116592
    C           -1.964300142591    -0.611647313445     0.357385582222
    H           -0.766711825539    -0.311024904146    -1.402983154803
    H           -1.802731872549     1.024337774582    -1.009220304424
    H           -2.809000318172    -1.043087436202    -0.167157551757
    H           -1.379814535404    -1.433275458678     0.755998115347
    H           -2.352580299216    -0.046247054542     1.198539670757

  Mulliken Charges: (a.u.)
   Center  Symbol    Alpha    Beta     Spin     Total
       1     H     0.39067  0.39067  0.00000  0.21866
       2     O     4.20810  4.20810  0.00000 -0.41619
       3     C     2.98212  2.98212  0.00000  0.03575
       4     C     3.08654  3.08654  0.00000 -0.17307
       5     H     0.45397  0.45397  0.00000  0.09207
       6     H     0.46903  0.46903  0.00000  0.06194
       7     C     3.09598  3.09598  0.00000 -0.19196
       8     H     0.44854  0.44854  0.00000  0.10291
       9     H     0.45559  0.45559  0.00000  0.08882
      10     C     3.15302  3.15302  0.00000 -0.30603
      11     H     0.44837  0.44837  0.00000  0.10327
      12     H     0.44873  0.44873  0.00000  0.10255
      13     H     0.44571  0.44571  0.00000  0.10858
      14     H     0.45890  0.45890  0.00000  0.08221
      15     H     0.45474  0.45474  0.00000  0.09052

   Total alpha = 21.00000, Total beta = 21.00000, Total charge = -0.00000

*** Psi4 exiting successfully. Buy a developer a beer!
