  ==> Input File <==

--------------------------------------------------------------------------
set {
	reference rhf
	basis 6-31G*
}

set_num_threads( 4 )
memory 2 gb

molecule MOL {
0 1

H	 1.148083	 -1.049780	 0.784252
O	 1.319262	 -0.618148	 -0.041729
C	 0.709265	 0.639550	 -0.033818
C	 -0.152037	 0.915326	 -1.238262
H	 1.513227	 1.365274	 0.012785
H	 0.114811	 0.775668	 0.869023
C	 -0.230015	 0.151926	 -2.309666
H	 -0.734784	 1.821882	 -1.183076
H	 0.349614	 -0.748118	 -2.406513
H	 -0.868519	 0.410177	 -3.135253

	symmetry c1
}
set optking {
	frozen_dihedral = ("
		5 3 2 1
	")
}

ee = optimize('scf')
oeprop('DIPOLE', 'QUADRUPOLE', 'MULLIKEN_CHARGES')
f=open( 'psi4out.xyz', 'w' )
f.write( "10  " )
f.write( str(ee) + "\n" )
f.write( MOL.save_string_xyz() )
f.close()
--------------------------------------------------------------------------

    Molecular point group: c1
  Charge       = 0
  Multiplicity = 1
  Basis Set: 6-31G*
  Basis Set:
  @DF-RHF Final Energy:  -191.91322621123405
    Total Energy =                       -191.9132262112339902
    Molecular point group: c1
  Basis Set: 6-31G*
  Basis Set:
  Basis Set: 6-31G*
  Basis Set:
  @DF-RHF Final Energy:  -191.91423058563515
    Total Energy =                       -191.9142305856351243
  Basis Set: 6-31G*
  Basis Set:
  Basis Set: 6-31G*
  Basis Set:
  @DF-RHF Final Energy:  -191.91450434842992
    Total Energy =                       -191.9145043484298299
  Basis Set: 6-31G*
  Basis Set:
  Basis Set: 6-31G*
  Basis Set:
  @DF-RHF Final Energy:  -191.91451542888839
    Total Energy =                       -191.9145154288884498
  Basis Set: 6-31G*
  Basis Set:
  Basis Set: 6-31G*
  Basis Set:
  @DF-RHF Final Energy:  -191.91451705288654
    Total Energy =                       -191.9145170528865094
  Basis Set: 6-31G*
  Basis Set:
  Charge       = 0
  Multiplicity = 1
  Basis Set: 6-31G*
  Basis Set:

    Orbital Energies (a.u.)
    -----------------------

    Doubly Occupied:

       1A    -20.558774     2A    -11.278730     3A    -11.223447
       4A    -11.209824     5A     -1.366959     6A     -1.053031
       7A     -0.923362     8A     -0.755409     9A     -0.705761
      10A     -0.646557    11A     -0.609820    12A     -0.579279
      13A     -0.509674    14A     -0.499631    15A     -0.446877
      16A     -0.355764

  @DF-RHF Final Energy:  -191.91451709792392

   => Energetics <=

    Nuclear Repulsion Energy =            119.2887137823178847
    One-Electron Energy =                -496.9606628432146067
    Two-Electron Energy =                 185.7574319629728166
    DFT Exchange-Correlation Energy =       0.0000000000000000
    Empirical Dispersion Energy =           0.0000000000000000
    PCM Polarization Energy =               0.0000000000000000
    EFP Energy =                            0.0000000000000000
    Total Energy =                       -191.9145170979239197
    Molecular point group: c1
  Basis Set: 6-31G*
  Basis Set:

  -Total Gradient:
     Atom            X                  Y                   Z
    ------   -----------------  -----------------  -----------------
       1       -0.000005287426    -0.000003228301    -0.000000398871
       2        0.000017058826    -0.000001586312    -0.000007153563
       3        0.000015530453     0.000015233351    -0.000000314772
       4       -0.000033997992    -0.000012704102     0.000028243932
       5        0.000005321586    -0.000007872736     0.000004615427
       6       -0.000011209821     0.000010564566    -0.000012997724
       7       -0.000029293733    -0.000017658864     0.000011860046
       8        0.000013588357     0.000003373651    -0.000007127394
       9        0.000012927564     0.000005611331    -0.000007271132
      10        0.000015362184     0.000008267415    -0.000009455949

  **** Optimization is complete! (in 6 steps) ****
    Final optimized geometry and variables:
    Molecular point group: c1

    Geometry (in Angstrom), charge = 0, multiplicity = 1:

    H            0.733127540758    -1.328183001123     1.518030018434
    O            0.900618302043    -0.811281667403     0.745557395658
    C            0.227033936596     0.415817412570     0.830235965322
    C           -0.587078195998     0.695916323950    -0.401762927827
    H            0.952869588673     1.214269910104     0.967828804942
    H           -0.427730792051     0.441101744310     1.699592232888
    C           -0.724468903182    -0.119463212551    -1.426519137790
    H           -1.076396104576     1.657855413555    -0.407152449412
    H           -0.240299848918    -1.077411331675    -1.449165150483
    H           -1.321923967810     0.153200922345    -2.278106428498

  Mulliken Charges: (a.u.)
   Center  Symbol    Alpha    Beta     Spin     Total
       1     H     0.27753  0.27753  0.00000  0.44494
       2     O     4.36991  4.36991  0.00000 -0.73981
       3     C     3.00063  3.00063  0.00000 -0.00127
       4     C     3.08902  3.08902  0.00000 -0.17803
       5     H     0.41861  0.41861  0.00000  0.16278
       6     H     0.42680  0.42680  0.00000  0.14641
       7     C     3.19084  3.19084  0.00000 -0.38169
       8     H     0.41287  0.41287  0.00000  0.17427
       9     H     0.39947  0.39947  0.00000  0.20106
      10     H     0.41432  0.41432  0.00000  0.17135

   Total alpha = 16.00000, Total beta = 16.00000, Total charge =  0.00000
