  ==> Input File <==

--------------------------------------------------------------------------
set {
	reference rhf
	basis 6-31G*
}

set_num_threads( 4 )
memory 2 gb

molecule MOL {
0 1

H	 2.418971	 -2.397923	 0.278524
O	 3.160323	 -2.179108	 -0.266992
C	 2.849053	 -2.433392	 -1.613285
C	 1.875163	 -1.421349	 -2.206609
H	 3.790296	 -2.390657	 -2.146116
H	 2.457431	 -3.443276	 -1.729674
C	 0.491044	 -1.432591	 -1.553191
H	 2.312086	 -0.429995	 -2.118956
H	 1.774659	 -1.630862	 -3.270268
C	 -0.479274	 -0.444353	 -2.206404
H	 0.592659	 -1.197175	 -0.497435
H	 0.071178	 -2.436898	 -1.611672
C	 -1.905653	 -0.476270	 -1.645364
H	 -0.079081	 0.563773	 -2.114891
H	 -0.523903	 -0.656635	 -3.272539
C	 -2.037799	 -0.007733	 -0.193645
H	 -2.533352	 0.154303	 -2.271614
H	 -2.305259	 -1.485142	 -1.736625
C	 -3.489788	 0.042957	 0.286558
H	 -1.592661	 0.981187	 -0.093646
H	 -1.473180	 -0.663944	 0.464304
C	 -4.216917	 1.317354	 -0.141063
H	 -4.025645	 -0.823308	 -0.095450
H	 -3.513059	 -0.038752	 1.371301
H	 -4.239342	 1.411634	 -1.223113
H	 -5.243387	 1.322503	 0.212445
H	 -3.726170	 2.201406	 0.256408

	symmetry c1
}
set optking {
	frozen_dihedral = ("
		20 16 19 22
	")
}

ee = optimize('scf')
oeprop('DIPOLE', 'QUADRUPOLE', 'MULLIKEN_CHARGES')
f=open( 'psi4out.xyz', 'w' )
f.write( "27  " )
f.write( str(ee) + "\n" )
f.write( MOL.save_string_xyz() )
f.close()
--------------------------------------------------------------------------

    Molecular point group: c1
  Charge       = 0
  Multiplicity = 1
  Basis Set: 6-31G*
  Basis Set:
  @DF-RHF Final Energy:  -388.27915795072312
    Total Energy =                       -388.2791579507231745
    Molecular point group: c1
  Basis Set: 6-31G*
  Basis Set:
  Basis Set: 6-31G*
  Basis Set:
  @DF-RHF Final Energy:  -388.27932652351205
    Total Energy =                       -388.2793265235122817
  Basis Set: 6-31G*
  Basis Set:
  Basis Set: 6-31G*
  Basis Set:
  @DF-RHF Final Energy:  -388.27933408295240
    Total Energy =                       -388.2793340829525732
  Basis Set: 6-31G*
  Basis Set:
  Basis Set: 6-31G*
  Basis Set:
  @DF-RHF Final Energy:  -388.27935954359339
    Total Energy =                       -388.2793595435929319
  Basis Set: 6-31G*
  Basis Set:
  Basis Set: 6-31G*
  Basis Set:
  @DF-RHF Final Energy:  -388.27936580435215
    Total Energy =                       -388.2793658043522100
  Basis Set: 6-31G*
  Basis Set:
  Charge       = 0
  Multiplicity = 1
  Basis Set: 6-31G*
  Basis Set:

    Orbital Energies (a.u.)
    -----------------------

    Doubly Occupied:

       1A    -20.552276     2A    -11.267024     3A    -11.219735
       4A    -11.217176     5A    -11.216315     6A    -11.215450
       7A    -11.215176     8A    -11.214448     9A    -11.209277
      10A     -1.359029    11A     -1.094983    12A     -1.060818
      13A     -1.009905    14A     -0.946894    15A     -0.891629
      16A     -0.825423    17A     -0.799145    18A     -0.773584
      19A     -0.693697    20A     -0.646709    21A     -0.631988
      22A     -0.617642    23A     -0.607684    24A     -0.588807
      25A     -0.578663    26A     -0.553906    27A     -0.539023
      28A     -0.527812    29A     -0.507173    30A     -0.493578
      31A     -0.486558    32A     -0.474860    33A     -0.469276
      34A     -0.461309    35A     -0.448503    36A     -0.440209
      37A     -0.423025

  @DF-RHF Final Energy:  -388.27936603641024

   => Energetics <=

    Nuclear Repulsion Energy =            461.1177256997158338
    One-Electron Energy =               -1440.2367632470525223
    Two-Electron Energy =                 590.8396715109262232
    DFT Exchange-Correlation Energy =       0.0000000000000000
    Empirical Dispersion Energy =           0.0000000000000000
    PCM Polarization Energy =               0.0000000000000000
    EFP Energy =                            0.0000000000000000
    Total Energy =                       -388.2793660364104653
    Molecular point group: c1
  Basis Set: 6-31G*
  Basis Set:

  -Total Gradient:
     Atom            X                  Y                   Z
    ------   -----------------  -----------------  -----------------
       1        0.000007050379    -0.000002538718    -0.000000377563
       2        0.000007231084    -0.000000787314    -0.000002317006
       3       -0.000004303853    -0.000009489233     0.000004480356
       4        0.000004543928     0.000011739285     0.000008846614
       5        0.000000570691    -0.000001847447     0.000002518619
       6        0.000001281476    -0.000002368553     0.000001919420
       7       -0.000001725225    -0.000020024094    -0.000014131718
       8       -0.000003021802     0.000005217288     0.000001365493
       9       -0.000001152326     0.000003245560     0.000005866526
      10       -0.000006057623     0.000036087786     0.000017392888
      11       -0.000019079397     0.000004820774    -0.000002149784
      12        0.000021705156    -0.000006340978    -0.000007009255
      13       -0.000034169418    -0.000058053564    -0.000011713671
      14        0.000019963959     0.000003436206    -0.000021436333
      15       -0.000025568340    -0.000005058725     0.000014851582
      16        0.001006365104    -0.000305179491     0.003155103526
      17        0.000012102401    -0.000012093030     0.000007395742
      18       -0.000000168961    -0.000017223245    -0.000036168138
      19       -0.000855356647    -0.000909314478    -0.002418295208
      20       -0.000650676476     0.000569346344    -0.002055169626
      21       -0.000063200495    -0.000000554486    -0.000012462401
      22        0.000543956928     0.000738819986     0.001353004973
      23        0.000017318573    -0.000005398216    -0.000005952691
      24        0.000023602523    -0.000012800219     0.000009538823
      25       -0.000022398984     0.000023934966    -0.000003873783
      26        0.000018216104    -0.000023946470     0.000005600638
      27        0.000002971234    -0.000003629938     0.000003171974

  **** Optimization is complete! (in 6 steps) ****
    Final optimized geometry and variables:
    Molecular point group: c1

    Geometry (in Angstrom), charge = 0, multiplicity = 1:

    H            2.795582664352    -1.581590169152     1.323333975299
    O            3.536181582698    -1.358186113731     0.778651055812
    C            3.229678320853    -1.619359579428    -0.567394077641
    C            2.249255676622    -0.616826222502    -1.166123762880
    H            4.171765014550    -1.570878060411    -1.098207276299
    H            2.846358221817    -2.632699461157    -0.681353479440
    C            0.863767394903    -0.636832022140    -0.515879738146
    H            2.678153368538     0.378219688170    -1.080675378553
    H            2.152836232401    -0.830498911906    -2.229317742038
    C           -0.112233218001     0.342900476532    -1.173561221964
    H            0.961418342048    -0.398220865664     0.539527850217
    H            0.451528080959    -1.644391221693    -0.572944246973
    C           -1.539575399359     0.302936478295    -0.615316880155
    H            0.281088157231     1.353953216975    -1.084021204214
    H           -0.153391876795     0.127570126829    -2.239253769886
    C           -1.671844497524     0.757889615174     0.843255900621
    H           -2.165444014262     0.932320650805    -1.243050638241
    H           -1.934911503057    -0.707166339069    -0.711629837480
    C           -3.128755147561     0.850015284804     1.321999644294
    H           -1.198223190608     1.732729300763     0.948213161751
    H           -1.128595507243     0.073616773867     1.487737417269
    C           -3.836467563057     2.141389239835     0.907492937544
    H           -3.686297572201    -0.009951941063     0.957545656597
    H           -3.149418553494     0.784401414455     2.406995478590
    H           -3.866748594382     2.260641877016    -0.171265126861
    H           -4.861293257232     2.155290918062     1.265748822228
    H           -3.329750942588     3.008510289614     1.321225969088

  Mulliken Charges: (a.u.)
   Center  Symbol    Alpha    Beta     Spin     Total
       1     H     0.27992  0.27992  0.00000  0.44017
       2     O     4.37093  4.37093  0.00000 -0.74187
       3     C     2.99738  2.99738  0.00000  0.00524
       4     C     3.16088  3.16088  0.00000 -0.32176
       5     H     0.41445  0.41445  0.00000  0.17110
       6     H     0.43205  0.43205  0.00000  0.13590
       7     C     3.16337  3.16337  0.00000 -0.32675
       8     H     0.41498  0.41498  0.00000  0.17005
       9     H     0.42434  0.42434  0.00000  0.15131
      10     C     3.15194  3.15194  0.00000 -0.30389
      11     H     0.42293  0.42293  0.00000  0.15414
      12     H     0.42546  0.42546  0.00000  0.14907
      13     C     3.15489  3.15489  0.00000 -0.30978
      14     H     0.42165  0.42165  0.00000  0.15669
      15     H     0.42162  0.42162  0.00000  0.15676
      16     C     3.15476  3.15476  0.00000 -0.30952
      17     H     0.42018  0.42018  0.00000  0.15964
      18     H     0.42432  0.42432  0.00000  0.15136
      19     C     3.15385  3.15385  0.00000 -0.30771
      20     H     0.42327  0.42327  0.00000  0.15346
      21     H     0.42136  0.42136  0.00000  0.15728
      22     C     3.24032  3.24032  0.00000 -0.48064
      23     H     0.42259  0.42259  0.00000  0.15483
      24     H     0.42080  0.42080  0.00000  0.15840
      25     H     0.42112  0.42112  0.00000  0.15776
      26     H     0.41930  0.41930  0.00000  0.16140
      27     H     0.42133  0.42133  0.00000  0.15734

   Total alpha = 37.00000, Total beta = 37.00000, Total charge =  0.00000
