                              Psi4 1.0.54 Driver

  ==> Input File <==

--------------------------------------------------------------------------
set {
	reference rhf
	basis cc-pvtz
}

set_num_threads( 4 )
memory 2 gb

molecule MOL {
0 1

H	 2.635799	 -0.494792	 -0.994742
N	 1.659728	 -0.294941	 -1.010695
C	 1.297825	 0.578208	 0.087704
C	 0.885905	 -1.520005	 -0.994578
H	 1.878667	 1.490120	 0.021448
H	 1.495767	 0.124076	 1.060433
C	 -0.180372	 0.911851	 -0.000000
H	 1.168261	 -2.128506	 -1.845080
H	 1.057822	 -2.106703	 -0.090228
C	 -0.591752	 -1.183612	 -1.080864
H	 -0.357873	 1.505767	 -0.901304
H	 -0.465765	 1.516328	 0.852805
N	 -0.976577	 -0.298712	 -0.000000
H	 -1.174599	 -2.094287	 -1.009591
H	 -0.797593	 -0.734056	 -2.056630
C	 -2.391156	 -0.021003	 -0.000000
H	 -2.853954	 -0.458728	 -0.875714
H	 -2.853954	 -0.458728	 0.875714
H	 -2.614037	 1.049773	 -0.000000

	symmetry c1
}
set optking {
	frozen_dihedral = ("
		7 13 16 19
	")
}

ee,wfn = optimize('scf', return_wfn=True)
oeprop( wfn, 'DIPOLE', 'QUADRUPOLE', 'MULLIKEN_CHARGES')
f=open( 'psi4out.xyz', 'w' )
f.write( "19  " )
f.write( str(ee) + "\n" )
f.write( MOL.save_string_xyz() )
f.close()
--------------------------------------------------------------------------

    Molecular point group: c1
  Charge       = 0
  Multiplicity = 1
  Basis Set: CC-PVTZ
  Basis Set:
  @DF-RHF Final Energy:  -305.30225587991822
    Total Energy =                       -305.3022558799179933
    Molecular point group: c1
  Basis Set: CC-PVTZ
  Basis Set:
  Basis Set: CC-PVTZ
  Basis Set:
  @DF-RHF Final Energy:  -305.30292323408673
    Total Energy =                       -305.3029232340869044
  Basis Set: CC-PVTZ
  Basis Set:
  Basis Set: CC-PVTZ
  Basis Set:
  @DF-RHF Final Energy:  -305.30305749112307
    Total Energy =                       -305.3030574911227291
  Basis Set: CC-PVTZ
  Basis Set:
  Basis Set: CC-PVTZ
  Basis Set:
  @DF-RHF Final Energy:  -305.30306726437215
    Total Energy =                       -305.3030672643726575
  Basis Set: CC-PVTZ
  Basis Set:
  Charge       = 0
  Multiplicity = 1
  Basis Set: CC-PVTZ
  Basis Set:

    Orbital Energies (a.u.)
    -----------------------

    Doubly Occupied:

       1A    -15.532524     2A    -15.530629     3A    -11.236469
       4A    -11.236446     5A    -11.235654     6A    -11.235623
       7A    -11.232952     8A     -1.246036     9A     -1.184984
      10A     -1.023622    11A     -0.964947    12A     -0.861313
      13A     -0.859047    14A     -0.756382    15A     -0.691822
      16A     -0.632175    17A     -0.624138    18A     -0.605980
      19A     -0.605572    20A     -0.582165    21A     -0.544131
      22A     -0.535593    23A     -0.512112    24A     -0.488211
      25A     -0.467594    26A     -0.457432    27A     -0.365445
      28A     -0.340258

  @DF-RHF Final Energy:  -305.30306822785150

   => Energetics <=

    Nuclear Repulsion Energy =            339.7043137178712300
    One-Electron Energy =               -1086.8362599324455005
    Two-Electron Energy =                 441.8288779867230005
    DFT Exchange-Correlation Energy =       0.0000000000000000
    Empirical Dispersion Energy =           0.0000000000000000
    PCM Polarization Energy =               0.0000000000000000
    EFP Energy =                            0.0000000000000000
    Total Energy =                       -305.3030682278513268
    Molecular point group: c1
  Basis Set: CC-PVTZ
  Basis Set:

  -Total Gradient:
     Atom            X                  Y                   Z
    ------   -----------------  -----------------  -----------------
       1        0.000007538515     0.000002257910     0.000002242339
       2       -0.000010995823     0.000007857257    -0.000001850128
       3        0.000009860768    -0.000013011065     0.000013170282
       4        0.000002574476    -0.000010161680    -0.000031738681
       5        0.000002863085     0.000000292460    -0.000001680434
       6       -0.000002283518     0.000004315764     0.000007179193
       7        0.000012948027     0.000003181956     0.001046179019
       8        0.000015702574    -0.000005650562    -0.000003330887
       9       -0.000014657684     0.000004602271    -0.000005472929
      10       -0.000012495342    -0.000026149691     0.000008109996
      11       -0.000008698211    -0.000007484471     0.000002347584
      12        0.000004745065    -0.000002099813    -0.000001236211
      13        0.000013450009     0.000036412595    -0.001826831733
      14        0.000003203383    -0.000000222053    -0.000004043383
      15        0.000007525197    -0.000003133253     0.000008806941
      16       -0.000038354311    -0.000023678417     0.002225309891
      17        0.000000862495     0.000001609594    -0.000002008723
      18        0.000036351254    -0.000006371763    -0.000034630124
      19       -0.000030139962     0.000037432959    -0.001400522012

  **** Optimization is complete! (in 5 steps) ****
    Final optimized geometry and variables:
    Molecular point group: c1

    Geometry (in Angstrom), charge = 0, multiplicity = 1:

    H            2.686661537421    -0.307972316483    -0.544980956245
    N            1.715730228490    -0.085084977441    -0.571113418575
    C            1.367618026449     0.812994056902     0.511290478435
    C            0.912821290235    -1.290785715685    -0.541032856399
    H            1.976194865843     1.706471982016     0.440447845214
    H            1.540939014416     0.365321315764     1.491912016661
    C           -0.099124549136     1.189770706914     0.403716373968
    H            1.190090503659    -1.922595440141    -1.376281418192
    H            1.060622931159    -1.863307223905     0.376771108522
    C           -0.555567064445    -0.921694820339    -0.650752310078
    H           -0.244959737713     1.790000843505    -0.499418032297
    H           -0.372961988338     1.803137506335     1.253549794737
    N           -0.928103846820     0.003066257707     0.398106649297
    H           -1.157557721458    -1.817781444781    -0.556619728484
    H           -0.742472515709    -0.500499653554    -1.643044125072
    C           -2.352848440758     0.278395384616     0.451524943762
    H           -2.865744757038    -0.098935597728    -0.428621980264
    H           -2.811736474232    -0.176610121250     1.322670104902
    H           -2.545168566466     1.344610591775     0.486753838914

  Mulliken Charges: (a.u.)
   Center  Symbol    Alpha    Beta     Spin     Total
       1     H     0.43995  0.43995  0.00000  0.12010
       2     N     3.64275  3.64275  0.00000 -0.28550
       3     C     3.04198  3.04198  0.00000 -0.08397
       4     C     3.04203  3.04203  0.00000 -0.08406
       5     H     0.45275  0.45275  0.00000  0.09450
       6     H     0.46625  0.46625  0.00000  0.06750
       7     C     3.03445  3.03445  0.00000 -0.06890
       8     H     0.45275  0.45275  0.00000  0.09450
       9     H     0.46622  0.46622  0.00000  0.06756
      10     C     3.03464  3.03464  0.00000 -0.06929
      11     H     0.46903  0.46903  0.00000  0.06194
      12     H     0.45377  0.45377  0.00000  0.09246
      13     N     3.61677  3.61677  0.00000 -0.23353
      14     H     0.45368  0.45368  0.00000  0.09264
      15     H     0.46892  0.46892  0.00000  0.06217
      16     C     3.09129  3.09129  0.00000 -0.18258
      17     H     0.46248  0.46248  0.00000  0.07503
      18     H     0.45035  0.45035  0.00000  0.09931
      19     H     0.45994  0.45994  0.00000  0.08012

   Total alpha = 28.00000, Total beta = 28.00000, Total charge =  0.00000

*** Psi4 exiting successfully. Buy a developer a beer!
