  ==> Input File <==

--------------------------------------------------------------------------
set {
	reference rhf
	basis 6-31G*
}

set_num_threads( 4 )
memory 2 gb

molecule MOL {
0 1

O	 -2.042549	 -1.228399	 -0.269030
C	 -1.653912	 -0.146171	 0.050137
C	 -0.332303	 0.024011	 0.778412
C	 -2.438579	 1.106236	 -0.272369
C	 0.845713	 -0.001731	 -0.208243
H	 -0.323783	 0.953829	 1.340327
H	 -0.235459	 -0.796807	 1.480410
C	 0.395270	 0.103242	 -1.666020
H	 1.417426	 -0.918491	 -0.074913
H	 1.514816	 0.819646	 0.030049
C	 1.565260	 0.086911	 -2.648905
H	 -0.281657	 -0.716896	 -1.895298
H	 -0.176230	 1.018848	 -1.798763
H	 2.136948	 -0.832862	 -2.563794
H	 2.242858	 0.915417	 -2.464837
H	 1.216543	 0.165695	 -3.673705
H	 -3.277823	 0.863061	 -0.908988
H	 -1.806773	 1.843019	 -0.759671
H	 -2.802853	 1.554979	 0.648059

	symmetry c1
}
set optking {
	frozen_dihedral = ("
		9 5 3 2
	")
}

ee = optimize('scf')
oeprop('DIPOLE', 'QUADRUPOLE', 'MULLIKEN_CHARGES')
f=open( 'psi4out.xyz', 'w' )
f.write( "19  " )
f.write( str(ee) + "\n" )
f.write( MOL.save_string_xyz() )
f.close()
--------------------------------------------------------------------------

    Molecular point group: c1
  Charge       = 0
  Multiplicity = 1
  Basis Set: 6-31G*
  Basis Set:
  @DF-RHF Final Energy:  -309.05202766063695
    Total Energy =                       -309.0520276606368952
    Molecular point group: c1
  Basis Set: 6-31G*
  Basis Set:
  Basis Set: 6-31G*
  Basis Set:
  @DF-RHF Final Energy:  -309.05568241098155
    Total Energy =                       -309.0556824109815466
  Basis Set: 6-31G*
  Basis Set:
  Basis Set: 6-31G*
  Basis Set:
  @DF-RHF Final Energy:  -309.05535056751120
    Total Energy =                       -309.0553505675110273
  Basis Set: 6-31G*
  Basis Set:
  Basis Set: 6-31G*
  Basis Set:
  @DF-RHF Final Energy:  -309.05664577240032
    Total Energy =                       -309.0566457724004295
  Basis Set: 6-31G*
  Basis Set:
  @DF-RHF Final Energy:  -309.05673724994028
    Total Energy =                       -309.0567372499401699
  @DF-RHF Final Energy:  -309.05675113447160
    Total Energy =                       -309.0567511344714831
  @DF-RHF Final Energy:  -309.05675764596242
    Total Energy =                       -309.0567576459623069
  @DF-RHF Final Energy:  -309.05677636472336
    Total Energy =                       -309.0567763647234187
  Basis Set: 6-31G*
  Basis Set:
  @DF-RHF Final Energy:  -309.05678552390663
    Total Energy =                       -309.0567855239071378
  Basis Set: 6-31G*
  Basis Set:
  Basis Set: 6-31G*
  Basis Set:
  @DF-RHF Final Energy:  -309.05678709928918
    Total Energy =                       -309.0567870992889539
  Basis Set: 6-31G*
  Basis Set:
  Basis Set: 6-31G*
  Basis Set:
  @DF-RHF Final Energy:  -309.05678820340393
    Total Energy =                       -309.0567882034038689
  Basis Set: 6-31G*
  Basis Set:
  Charge       = 0
  Multiplicity = 1
  Basis Set: 6-31G*
  Basis Set:

    Orbital Energies (a.u.)
    -----------------------

    Doubly Occupied:

       1A    -20.547056     2A    -11.325268     3A    -11.230319
       4A    -11.229513     5A    -11.228073     6A    -11.220383
       7A    -11.212554     8A     -1.393208     9A     -1.085190
      10A     -1.026958    11A     -0.982960    12A     -0.889798
      13A     -0.811390    14A     -0.723955    15A     -0.659148
      16A     -0.638462    17A     -0.622478    18A     -0.616763
      19A     -0.575940    20A     -0.573709    21A     -0.564735
      22A     -0.536603    23A     -0.510429    24A     -0.491182
      25A     -0.484297    26A     -0.466036    27A     -0.462861
      28A     -0.397044

  @DF-RHF Final Energy:  -309.05678823315549

   => Energetics <=

    Nuclear Repulsion Energy =            308.9274076369048885
    One-Electron Energy =               -1030.9557645958468584
    Two-Electron Energy =                 412.9715687257867671
    DFT Exchange-Correlation Energy =       0.0000000000000000
    Empirical Dispersion Energy =           0.0000000000000000
    PCM Polarization Energy =               0.0000000000000000
    EFP Energy =                            0.0000000000000000
    Total Energy =                       -309.0567882331551459
    Molecular point group: c1
  Basis Set: 6-31G*
  Basis Set:

  -Total Gradient:
     Atom            X                  Y                   Z
    ------   -----------------  -----------------  -----------------
       1       -0.000020144168     0.000004039001     0.000047071118
       2       -0.000148983372     0.002343464640    -0.000372087986
       3        0.000607585041    -0.003007644098     0.001026483674
       4        0.000023765804     0.000007129992    -0.000053979564
       5       -0.002378535766    -0.000844892955    -0.002667631702
       6       -0.000020129802     0.000005825683    -0.000003611466
       7        0.000016056896    -0.000034915362    -0.000026944360
       8        0.000001982706    -0.000024944214    -0.000009134672
       9        0.001883932561     0.001576632608     0.002054479573
      10        0.000036302479    -0.000027712550    -0.000009802928
      11       -0.000002536079    -0.000006739886     0.000005665480
      12       -0.000006967907     0.000005633639    -0.000002604159
      13        0.000015411133     0.000002042742     0.000006095346
      14        0.000002367967    -0.000000143194    -0.000000204660
      15        0.000003125912     0.000000541092    -0.000001261050
      16       -0.000002834443     0.000000092809     0.000000701085
      17       -0.000006548454     0.000003648935     0.000001422840
      18       -0.000003100648     0.000000936816     0.000004081360
      19       -0.000000749862    -0.000002995696     0.000001262070

  **** Optimization is complete! (in 12 steps) ****
    Final optimized geometry and variables:
    Molecular point group: c1

    Geometry (in Angstrom), charge = 0, multiplicity = 1:

    O           -1.580480629098    -1.180035244532     0.343889105470
    C           -1.204961591660    -0.106355836327     0.705879841376
    C            0.170715196344     0.074976128865     1.331314848621
    C           -2.083105661362     1.119118270260     0.582595165812
    C            1.365074385244    -0.014687266010     0.335743556760
    H            0.200516391898     1.029980844689     1.845246987627
    H            0.271814886050    -0.697374595749     2.084845194253
    C            1.035428959078     0.071147292969    -1.157409664393
    H            1.914302300376    -0.930282253920     0.528674171120
    H            2.056055556917     0.787500413993     0.579677366604
    C            2.295564638880     0.028456936077    -2.021217670250
    H            0.377707519333    -0.743856038864    -1.436900397421
    H            0.495387710706     0.993314788643    -1.364539306979
    H            2.847353373917    -0.893368158925    -1.861277994117
    H            2.960760612555     0.856299691559    -1.792185786809
    H            2.046852856165     0.085365295815    -3.076103556079
    H           -2.989519306574     0.871208236043     0.048040393486
    H           -1.557955652734     1.919312581663     0.069891248581
    H           -2.337401815646     1.487306405165     1.573203132255

  Mulliken Charges: (a.u.)
   Center  Symbol    Alpha    Beta     Spin     Total
       1     O     4.26241  4.26241  0.00000 -0.52482
       2     C     2.73792  2.73792  0.00000  0.52417
       3     C     3.20532  3.20532  0.00000 -0.41063
       4     C     3.28988  3.28988  0.00000 -0.57976
       5     C     3.15063  3.15063  0.00000 -0.30126
       6     H     0.41577  0.41577  0.00000  0.16846
       7     H     0.39878  0.39878  0.00000  0.20244
       8     C     3.16676  3.16676  0.00000 -0.33351
       9     H     0.41256  0.41256  0.00000  0.17488
      10     H     0.41859  0.41859  0.00000  0.16281
      11     C     3.24022  3.24022  0.00000 -0.48044
      12     H     0.40328  0.40328  0.00000  0.19343
      13     H     0.42561  0.42561  0.00000  0.14878
      14     H     0.41935  0.41935  0.00000  0.16130
      15     H     0.42237  0.42237  0.00000  0.15525
      16     H     0.41681  0.41681  0.00000  0.16637
      17     H     0.39734  0.39734  0.00000  0.20531
      18     H     0.40926  0.40926  0.00000  0.18148
      19     H     0.40714  0.40714  0.00000  0.18572

   Total alpha = 28.00000, Total beta = 28.00000, Total charge = -0.00000
