                              Psi4 1.0.54 Driver

  ==> Input File <==

--------------------------------------------------------------------------
set {
	reference rhf
	basis cc-pvtz
}

set_num_threads( 4 )
memory 2 gb

molecule MOL {
0 1

H	 2.342730	 0.877684	 -1.045694
C	 2.360424	 0.000000	 -0.411793
C	 1.173749	 0.000000	 0.526870
H	 3.286567	 0.000000	 0.151574
H	 2.342730	 -0.877684	 -1.045694
O	 0.000000	 0.000000	 -0.223739
H	 1.203779	 0.876757	 1.172538
H	 1.203779	 -0.876757	 1.172538
C	 -1.173749	 0.000000	 0.526870
C	 -1.313250	 -1.334712	 1.225703
H	 -2.031076	 0.177703	 -0.121130
H	 -1.149386	 0.807428	 1.257594
H	 -1.352807	 -2.139424	 0.502276
H	 -2.221566	 -1.357434	 1.816947
H	 -0.470185	 -1.509033	 1.882458

	symmetry c1
}
set optking {
	frozen_dihedral = ("
		11 9 6 3
	")
}

ee,wfn = optimize('scf', return_wfn=True)
oeprop( wfn, 'DIPOLE', 'QUADRUPOLE', 'MULLIKEN_CHARGES')
f=open( 'psi4out.xyz', 'w' )
f.write( "15  " )
f.write( str(ee) + "\n" )
f.write( MOL.save_string_xyz() )
f.close()
--------------------------------------------------------------------------

    Molecular point group: c1
  Charge       = 0
  Multiplicity = 1
  Basis Set: CC-PVTZ
  Basis Set:
  @DF-RHF Final Energy:  -232.22681996628722
    Total Energy =                       -232.2268199662871098
    Molecular point group: c1
  Basis Set: CC-PVTZ
  Basis Set:
  Basis Set: CC-PVTZ
  Basis Set:
  @DF-RHF Final Energy:  -230.81451713647627
    Total Energy =                       -230.8145171364759847
  Basis Set: CC-PVTZ
  Basis Set:
  Basis Set: CC-PVTZ
  Basis Set:
  @DF-RHF Final Energy:  -230.99382337607949
    Total Energy =                       -230.9938233760792912
  Basis Set: CC-PVTZ
  Basis Set:
  Basis Set: CC-PVTZ
  Basis Set:
  @DF-RHF Final Energy:  -231.33812044387787
    Total Energy =                       -231.3381204438780401
  Basis Set: CC-PVTZ
  Basis Set:
  @DF-RHF Final Energy:  -231.69502588692814
    Total Energy =                       -231.6950258869281356
  @DF-RHF Final Energy:  -231.99450239627072
    Total Energy =                       -231.9945023962706330
  @DF-RHF Final Energy:  -232.17840833762085
    Total Energy =                       -232.1784083376210788
  @DF-RHF Final Energy:  -232.22544780657554
    Total Energy =                       -232.2254478065757439
  @DF-RHF Final Energy:  -232.23013937812223
    Total Energy =                       -232.2301393781221464
  Basis Set: CC-PVTZ
  Basis Set:
  @DF-RHF Final Energy:  -232.22984919795553
    Total Energy =                       -232.2298491979555592
  Basis Set: CC-PVTZ
  Basis Set:
  Basis Set: CC-PVTZ
  Basis Set:
  @DF-RHF Final Energy:  -232.23058114572152
    Total Energy =                       -232.2305811457214304
  Basis Set: CC-PVTZ
  Basis Set:
  Basis Set: CC-PVTZ
  Basis Set:
  @DF-RHF Final Energy:  -232.23059891488822
    Total Energy =                       -232.2305989148882190
  Basis Set: CC-PVTZ
  Basis Set:
  Charge       = 0
  Multiplicity = 1
  Basis Set: CC-PVTZ
  Basis Set:

    Orbital Energies (a.u.)
    -----------------------

    Doubly Occupied:

       1A    -20.543998     2A    -11.266400     3A    -11.265398
       4A    -11.209914     5A    -11.206515     6A     -1.378253
       7A     -1.041332     8A     -0.987784     9A     -0.865665
      10A     -0.809415    11A     -0.675342    12A     -0.653063
      13A     -0.639762    14A     -0.581268    15A     -0.547447
      16A     -0.544169    17A     -0.524615    18A     -0.503738
      19A     -0.487645    20A     -0.456843    21A     -0.411175

  @DF-RHF Final Energy:  -232.23059998511485

   => Energetics <=

    Nuclear Repulsion Energy =            193.0023426670202298
    One-Electron Energy =                -697.2664040402129331
    Two-Electron Energy =                 272.0334613880777397
    DFT Exchange-Correlation Energy =       0.0000000000000000
    Empirical Dispersion Energy =           0.0000000000000000
    PCM Polarization Energy =               0.0000000000000000
    EFP Energy =                            0.0000000000000000
    Total Energy =                       -232.2305999851149636
    Molecular point group: c1
  Basis Set: CC-PVTZ
  Basis Set:

  -Total Gradient:
     Atom            X                  Y                   Z
    ------   -----------------  -----------------  -----------------
       1       -0.000005878421    -0.000011142320    -0.000013680860
       2        0.000002769963     0.000016695693    -0.000003982174
       3        0.000044887615    -0.000768677160    -0.000050009050
       4       -0.000003737923    -0.000006763549     0.000035889709
       5       -0.000001103811    -0.000004000186    -0.000014903665
       6       -0.000021027226     0.000952647046    -0.000000653517
       7       -0.000012970534     0.000010632112     0.000019696055
       8       -0.000000616547     0.000002816651    -0.000013178403
       9       -0.000044729500     0.000722940586     0.000188277171
      10       -0.000028176954    -0.000003967587    -0.000002714777
      11        0.000086595530    -0.000902678368    -0.000169815385
      12        0.000003520913     0.000034164553     0.000012390666
      13        0.000002202152    -0.000013591762    -0.000004497127
      14       -0.000016706626    -0.000013075468    -0.000002882853
      15       -0.000005028627    -0.000016000239     0.000020064210

  **** Optimization is complete! (in 13 steps) ****
    Final optimized geometry and variables:
    Molecular point group: c1

    Geometry (in Angstrom), charge = 0, multiplicity = 1:

    H            2.323527105133     1.443237574563     0.575647933533
    C            2.043223689062     0.498456366986     1.024262179285
    C            0.560103503774     0.248438742857     0.854408193115
    H            2.303339324875     0.523722340024     2.076595868670
    H            2.616008555340    -0.287160630718     0.547287921582
    O            0.266335247055     0.214257711341    -0.508570593248
    H           -0.012463995860     1.039011205968     1.338557347836
    H            0.287327466459    -0.688407448256     1.332650279893
    C           -1.084767870167     0.181912109009    -0.856726477299
    C           -1.781360769418    -1.130394048446    -0.528410540133
    H           -1.113906875370     0.339798936725    -1.926610370041
    H           -1.610179708972     1.011732870303    -0.386154589285
    H           -1.245700909341    -1.963043114198    -0.968946404400
    H           -2.787706730058    -1.119563472603    -0.932558855983
    H           -1.858046073424    -1.299493778922     0.538498136332

  Mulliken Charges: (a.u.)
   Center  Symbol    Alpha    Beta     Spin     Total
       1     H     0.45152  0.45152  0.00000  0.09697
       2     C     3.13492  3.13492  0.00000 -0.26983
       3     C     2.96685  2.96685  0.00000  0.06629
       4     H     0.45952  0.45952  0.00000  0.08095
       5     H     0.45118  0.45118  0.00000  0.09765
       6     O     4.18124  4.18124  0.00000 -0.36248
       7     H     0.47418  0.47418  0.00000  0.05164
       8     H     0.47130  0.47130  0.00000  0.05740
       9     C     2.98304  2.98304  0.00000  0.03392
      10     C     3.14954  3.14954  0.00000 -0.29908
      11     H     0.45005  0.45005  0.00000  0.09991
      12     H     0.47018  0.47018  0.00000  0.05963
      13     H     0.44990  0.44990  0.00000  0.10020
      14     H     0.45094  0.45094  0.00000  0.09812
      15     H     0.45565  0.45565  0.00000  0.08871

   Total alpha = 21.00000, Total beta = 21.00000, Total charge = -0.00000

*** Psi4 exiting successfully. Buy a developer a beer!
