                              Psi4 1.0.54 Driver

  ==> Input File <==

--------------------------------------------------------------------------
set {
	reference rhf
	basis cc-pvtz
}

set_num_threads( 4 )
memory 2 gb

molecule MOL {
0 1

H	 2.777048	 1.308001	 0.860716
O	 3.493138	 1.016388	 0.327792
C	 3.558564	 -0.385393	 0.327035
C	 2.450494	 -1.043810	 -0.481268
H	 4.518547	 -0.636051	 -0.103758
H	 3.553796	 -0.766041	 1.346611
C	 1.048863	 -0.830813	 0.086105
H	 2.494461	 -0.666870	 -1.498687
H	 2.660640	 -2.109577	 -0.530023
C	 -0.033292	 -1.533288	 -0.732617
H	 0.836874	 0.232330	 0.128437
H	 1.015448	 -1.197694	 1.110590
C	 -1.450041	 -1.414980	 -0.167747
H	 -0.018876	 -1.147266	 -1.748986
H	 0.219755	 -2.587312	 -0.806567
C	 -2.041121	 -0.006551	 -0.194127
H	 -2.100237	 -2.073043	 -0.737594
H	 -1.461523	 -1.790677	 0.852976
C	 -3.489218	 0.042606	 0.286507
H	 -1.987552	 0.385068	 -1.207652
H	 -1.445242	 0.660380	 0.421612
C	 -4.219984	 1.311773	 -0.139038
H	 -4.022855	 -0.824300	 -0.093339
H	 -3.510372	 -0.038577	 1.370031
H	 -4.244251	 1.405725	 -1.219696
H	 -5.244345	 1.313233	 0.215630
H	 -3.732090	 2.196311	 0.257073

	symmetry c1
}
set optking {
	frozen_dihedral = ("
		20 16 19 22
	")
}

ee,wfn = optimize('scf', return_wfn=True)
oeprop( wfn, 'DIPOLE', 'QUADRUPOLE', 'MULLIKEN_CHARGES')
f=open( 'psi4out.xyz', 'w' )
f.write( "27  " )
f.write( str(ee) + "\n" )
f.write( MOL.save_string_xyz() )
f.close()
--------------------------------------------------------------------------

    Molecular point group: c1
  Charge       = 0
  Multiplicity = 1
  Basis Set: CC-PVTZ
  Basis Set:
  @DF-RHF Final Energy:  -388.42654116905004
    Total Energy =                       -388.4265411690498695
    Molecular point group: c1
  Basis Set: CC-PVTZ
  Basis Set:
  Basis Set: CC-PVTZ
  Basis Set:
  @DF-RHF Final Energy:  -388.42656207693722
    Total Energy =                       -388.4265620769369889
  Basis Set: CC-PVTZ
  Basis Set:
  Basis Set: CC-PVTZ
  Basis Set:
  @DF-RHF Final Energy:  -388.42669851019195
    Total Energy =                       -388.4266985101912724
  Basis Set: CC-PVTZ
  Basis Set:
  Basis Set: CC-PVTZ
  Basis Set:
  @DF-RHF Final Energy:  -388.42668885881727
    Total Energy =                       -388.4266888588174425
  Basis Set: CC-PVTZ
  Basis Set:
  Basis Set: CC-PVTZ
  Basis Set:
  @DF-RHF Final Energy:  -388.42670515813882
    Total Energy =                       -388.4267051581389296
  Basis Set: CC-PVTZ
  Basis Set:
  Charge       = 0
  Multiplicity = 1
  Basis Set: CC-PVTZ
  Basis Set:

    Orbital Energies (a.u.)
    -----------------------

    Doubly Occupied:

       1A    -20.545393     2A    -11.265022     3A    -11.216797
       4A    -11.214769     5A    -11.213809     6A    -11.213500
       7A    -11.213278     8A    -11.211700     9A    -11.207339
      10A     -1.363285    11A     -1.096017    12A     -1.062303
      13A     -1.012566    14A     -0.949413    15A     -0.888700
      16A     -0.820888    17A     -0.801584    18A     -0.778947
      19A     -0.696310    20A     -0.651103    21A     -0.640553
      22A     -0.615848    23A     -0.600097    24A     -0.583910
      25A     -0.581805    26A     -0.554671    27A     -0.541764
      28A     -0.530842    29A     -0.508122    30A     -0.493728
      31A     -0.484066    32A     -0.476590    33A     -0.468229
      34A     -0.461080    35A     -0.452129    36A     -0.442665
      37A     -0.425645

  @DF-RHF Final Energy:  -388.42670534961439

   => Energetics <=

    Nuclear Repulsion Energy =            459.8498976888088237
    One-Electron Energy =               -1437.9842767201957940
    Two-Electron Energy =                 589.7076736817729170
    DFT Exchange-Correlation Energy =       0.0000000000000000
    Empirical Dispersion Energy =           0.0000000000000000
    PCM Polarization Energy =               0.0000000000000000
    EFP Energy =                            0.0000000000000000
    Total Energy =                       -388.4267053496140534
    Molecular point group: c1
  Basis Set: CC-PVTZ
  Basis Set:

  -Total Gradient:
     Atom            X                  Y                   Z
    ------   -----------------  -----------------  -----------------
       1       -0.000007554194     0.000005210752     0.000002829626
       2       -0.000004327737     0.000001431617     0.000001311711
       3        0.000004783995    -0.000003072946    -0.000009757007
       4        0.000003013184    -0.000003621167     0.000004974524
       5        0.000000922043    -0.000004748804    -0.000002433470
       6       -0.000000728520    -0.000000874625     0.000002545616
       7       -0.000005577094     0.000003746128    -0.000002120441
       8        0.000001700432     0.000000674706    -0.000001264735
       9        0.000002476614    -0.000005474533     0.000000500221
      10        0.000001638756     0.000000708608     0.000000014010
      11       -0.000002485393     0.000008152565     0.000002608232
      12       -0.000003786693    -0.000000516569     0.000001240664
      13       -0.000013782434    -0.000005471218    -0.000007022874
      14       -0.000004672694    -0.000001249438    -0.000000548941
      15        0.000006836917     0.000001853965     0.000001036987
      16       -0.001009745090    -0.004181364593    -0.002119128746
      17        0.000005539641    -0.000003247186    -0.000002215010
      18       -0.000004026459     0.000000557952    -0.000002458501
      19        0.001239639128     0.002262260997     0.002967190936
      20        0.000545159537     0.003025277327     0.001100492459
      21        0.000013952128     0.000012264377     0.000016495213
      22       -0.000773601641    -0.001109629829    -0.001950561932
      23        0.000003416192    -0.000020104503     0.000001812829
      24        0.000008824171     0.000009813457    -0.000002094634
      25        0.000000954358    -0.000005526302    -0.000010183820
      26       -0.000008363901    -0.000002381279     0.000006275367
      27       -0.000000205239     0.000015330546     0.000000461718

  **** Optimization is complete! (in 6 steps) ****
    Final optimized geometry and variables:
    Molecular point group: c1

    Geometry (in Angstrom), charge = 0, multiplicity = 1:

    H            2.792686674349     1.594761180362     0.946610292667
    O            3.515017610578     1.305745217245     0.420974039807
    C            3.585037557392    -0.095768916019     0.419914839253
    C            2.487733526475    -0.757214812427    -0.400368148538
    H            4.550330058392    -0.343063223398    -0.000815231907
    H            3.570675680661    -0.477026594920     1.439134286889
    C            1.079002827323    -0.544402188285     0.149136302865
    H            2.543840029699    -0.382464818349    -1.417936613980
    H            2.699713820699    -1.822818958581    -0.444173030604
    C            0.008723111193    -1.257083433951    -0.676357125414
    H            0.863387271583     0.518282053851     0.181496903461
    H            1.035113991381    -0.904038958025     1.175687138619
    C           -1.414789733404    -1.143483803250    -0.127605310125
    H            0.031623953121    -0.877812120274    -1.695101644767
    H            0.268413234371    -2.310064584291    -0.740620256493
    C           -2.021218171532     0.256004074134    -0.187711283112
    H           -2.052717222476    -1.819178181089    -0.690139377784
    H           -1.432662521432    -1.499162493677     0.900387393992
    C           -3.450463623492     0.323035251932     0.352225985333
    H           -2.002912378625     0.626594554021    -1.210007618244
    H           -1.408203438199     0.951150147788     0.378811183294
    C           -4.192513622163     1.587721714301    -0.067300027991
    H           -4.008144407495    -0.539632481732    -0.002789073083
    H           -3.432882347122     0.246040230032     1.435349593124
    H           -4.285705822127     1.641239512553    -1.146548115336
    H           -5.191053174182     1.615857723488     0.353713361559
    H           -3.670616826248     2.480537905035     0.262422313595

  Mulliken Charges: (a.u.)
   Center  Symbol    Alpha    Beta     Spin     Total
       1     H     0.39229  0.39229  0.00000  0.21542
       2     O     4.20550  4.20550  0.00000 -0.41100
       3     C     2.98002  2.98002  0.00000  0.03996
       4     C     3.08910  3.08910  0.00000 -0.17821
       5     H     0.44855  0.44855  0.00000  0.10289
       6     H     0.46968  0.46968  0.00000  0.06065
       7     C     3.10239  3.10239  0.00000 -0.20478
       8     H     0.45074  0.45074  0.00000  0.09851
       9     H     0.45523  0.45523  0.00000  0.08955
      10     C     3.09870  3.09870  0.00000 -0.19739
      11     H     0.45595  0.45595  0.00000  0.08811
      12     H     0.45382  0.45382  0.00000  0.09235
      13     C     3.09731  3.09731  0.00000 -0.19461
      14     H     0.45170  0.45170  0.00000  0.09660
      15     H     0.44795  0.44795  0.00000  0.10410
      16     C     3.08930  3.08930  0.00000 -0.17859
      17     H     0.44764  0.44764  0.00000  0.10473
      18     H     0.45386  0.45386  0.00000  0.09228
      19     C     3.08400  3.08400  0.00000 -0.16801
      20     H     0.45460  0.45460  0.00000  0.09079
      21     H     0.45466  0.45466  0.00000  0.09068
      22     C     3.14886  3.14886  0.00000 -0.29772
      23     H     0.45592  0.45592  0.00000  0.08816
      24     H     0.45321  0.45321  0.00000  0.09358
      25     H     0.45485  0.45485  0.00000  0.09030
      26     H     0.44869  0.44869  0.00000  0.10262
      27     H     0.45549  0.45549  0.00000  0.08902

   Total alpha = 37.00000, Total beta = 37.00000, Total charge = -0.00000

*** Psi4 exiting successfully. Buy a developer a beer!
