  ==> Input File <==

--------------------------------------------------------------------------
set {
	reference rhf
	basis 6-31G*
}

set_num_threads( 1 )
memory 2 gb

molecule MOL {
0 1

H	 -3.420663	 1.227371	 -1.044276
O	 -3.452007	 0.283848	 -0.965577
C	 -3.181085	 -0.079926	 0.364119
C	 -1.765924	 0.277073	 0.805136
H	 -3.327791	 -1.152017	 0.410903
H	 -3.905698	 0.375695	 1.036898
C	 -0.677594	 -0.417312	 -0.014550
H	 -1.637766	 1.358238	 0.744969
H	 -1.659588	 0.017670	 1.857098
C	 0.738335	 -0.034840	 0.421385
H	 -0.814977	 -0.178223	 -1.064632
H	 -0.802730	 -1.495410	 0.071702
C	 0.886057	 1.461235	 0.711255
H	 1.004875	 -0.612256	 1.303409
H	 1.446122	 -0.320441	 -0.355836
C	 2.308754	 1.908567	 1.066196
H	 0.210929	 1.739374	 1.519052
H	 0.557294	 2.019049	 -0.163145
C	 2.842469	 1.344532	 2.384308
H	 2.324647	 2.994424	 1.120525
H	 2.983713	 1.636165	 0.257228
H	 2.180522	 1.590809	 3.210330
H	 3.820743	 1.756800	 2.612017
H	 2.944612	 0.264840	 2.352765

	symmetry c1
}
set optking {
	frozen_dihedral = ("
		20 16 13 17,
		17 13 10 7,
		11 7 4 3,
		1 2 3 5,
		7 4 3 2
	")
}

ee = energy('scf')
oeprop('DIPOLE', 'QUADRUPOLE', 'MULLIKEN_CHARGES')
f=open( 'psi4out.xyz', 'w' )
f.write( "24  " )
f.write( str(ee) + "\n" )
f.write( MOL.save_string_xyz() )
f.close()
--------------------------------------------------------------------------

    Molecular point group: c1

    Geometry (in Angstrom), charge = 0, multiplicity = 1:

       Center              X                  Y                   Z               Mass
    ------------   -----------------  -----------------  -----------------  -----------------
           H         -3.080642079287     0.630041470623    -1.624600939171     1.007825032070
           O         -3.111986079287    -0.313481529377    -1.545901939171    15.994914619560
           C         -2.841064079287    -0.677255529377    -0.216205939171    12.000000000000
           C         -1.425903079287    -0.320256529377     0.224811060829    12.000000000000
           H         -2.987770079287    -1.749346529377    -0.169421939171     1.007825032070
           H         -3.565677079287    -0.221634529377     0.456573060829     1.007825032070
           C         -0.337573079287    -1.014641529377    -0.594874939171    12.000000000000
           H         -1.297745079287     0.760908470623     0.164644060829     1.007825032070
           H         -1.319567079287    -0.579659529377     1.276773060829     1.007825032070
           C          1.078355920713    -0.632169529377    -0.158939939171    12.000000000000
           H         -0.474956079287    -0.775552529377    -1.644956939171     1.007825032070
           H         -0.462709079287    -2.092739529377    -0.508622939171     1.007825032070
           C          1.226077920713     0.863905470623     0.130930060829    12.000000000000
           H          1.344895920713    -1.209585529377     0.723084060829     1.007825032070
           H          1.786142920713    -0.917770529377    -0.936160939171     1.007825032070
           C          2.648774920713     1.311237470623     0.485871060829    12.000000000000
           H          0.550949920713     1.142044470623     0.938727060829     1.007825032070
           H          0.897314920713     1.421719470623    -0.743469939171     1.007825032070
           C          3.182489920713     0.747202470623     1.803983060829    12.000000000000
           H          2.664667920713     2.397094470623     0.540200060829     1.007825032070
           H          3.323733920713     1.038835470623    -0.323096939171     1.007825032070
           H          2.520542920713     0.993479470623     2.630005060829     1.007825032070
           H          4.160763920713     1.159470470623     2.031692060829     1.007825032070
           H          3.284632920713    -0.332489529377     1.772440060829     1.007825032070

  Charge       = 0
  Multiplicity = 1
  Basis Set: 6-31G*
  Basis Set:

    Orbital Energies (a.u.)
    -----------------------

    Doubly Occupied:

       1A    -20.553171     2A    -11.266948     3A    -11.215954
       4A    -11.215089     5A    -11.213126     6A    -11.212178
       7A    -11.210883     8A    -11.208295     9A     -1.359690
      10A     -1.092197    11A     -1.046133    12A     -0.983863
      13A     -0.916518    14A     -0.854499    15A     -0.811914
      16A     -0.763220    17A     -0.677090    18A     -0.651629
      19A     -0.630086    20A     -0.617917    21A     -0.600995
      22A     -0.574498    23A     -0.572196    24A     -0.538196
      25A     -0.524762    26A     -0.508609    27A     -0.493004
      28A     -0.483928    29A     -0.474234    30A     -0.454171
      31A     -0.447848    32A     -0.439573    33A     -0.424216

  @DF-RHF Final Energy:  -349.24170088760945

   => Energetics <=

    Nuclear Repulsion Energy =            392.4180326547663071
    One-Electron Energy =               -1251.2462298979251045
    Two-Electron Energy =                 509.5864963555501390
    DFT Exchange-Correlation Energy =       0.0000000000000000
    Empirical Dispersion Energy =           0.0000000000000000
    PCM Polarization Energy =               0.0000000000000000
    EFP Energy =                            0.0000000000000000
    Total Energy =                       -349.2417008876086584

  Mulliken Charges: (a.u.)
   Center  Symbol    Alpha    Beta     Spin     Total
       1     H     0.28345  0.28345  0.00000  0.43311
       2     O     4.36834  4.36834  0.00000 -0.73668
       3     C     2.99507  2.99507  0.00000  0.00986
       4     C     3.17492  3.17492  0.00000 -0.34984
       5     H     0.41684  0.41684  0.00000  0.16633
       6     H     0.42853  0.42853  0.00000  0.14294
       7     C     3.15290  3.15290  0.00000 -0.30579
       8     H     0.42359  0.42359  0.00000  0.15282
       9     H     0.42287  0.42287  0.00000  0.15425
      10     C     3.15356  3.15356  0.00000 -0.30712
      11     H     0.41197  0.41197  0.00000  0.17605
      12     H     0.42144  0.42144  0.00000  0.15713
      13     C     3.15956  3.15956  0.00000 -0.31912
      14     H     0.42220  0.42220  0.00000  0.15561
      15     H     0.42101  0.42101  0.00000  0.15797
      16     C     3.15058  3.15058  0.00000 -0.30117
      17     H     0.42133  0.42133  0.00000  0.15734
      18     H     0.42353  0.42353  0.00000  0.15294
      19     C     3.24105  3.24105  0.00000 -0.48209
      20     H     0.42196  0.42196  0.00000  0.15607
      21     H     0.42332  0.42332  0.00000  0.15336
      22     H     0.42302  0.42302  0.00000  0.15397
      23     H     0.41930  0.41930  0.00000  0.16139
      24     H     0.41966  0.41966  0.00000  0.16069

   Total alpha = 33.00000, Total beta = 33.00000, Total charge = -0.00000
