  ==> Input File <==

--------------------------------------------------------------------------
set {
	reference rhf
	basis 6-31G*
}

set_num_threads( 4 )
memory 2 gb

molecule MOL {
0 1

H	 2.315949	 2.420722	 0.640698
N	 1.505237	 1.839655	 0.547685
C	 1.865559	 0.531981	 0.018834
H	 0.881090	 2.311832	 -0.078669
C	 0.645745	 -0.382037	 -0.029944
H	 2.609617	 0.101775	 0.682279
H	 2.321647	 0.581033	 -0.973122
C	 -0.679275	 0.379305	 0.025956
H	 0.698998	 -0.976915	 -0.937203
H	 0.693479	 -1.083846	 0.802235
C	 -1.903357	 -0.536963	 -0.023547
H	 -0.726309	 1.082987	 -0.803784
H	 -0.717680	 0.977832	 0.934877
C	 -3.225172	 0.228290	 0.028445
H	 -1.867824	 -1.134999	 -0.931459
H	 -1.860449	 -1.239604	 0.805977
H	 -3.313397	 0.915643	 -0.808262
H	 -4.073500	 -0.448134	 -0.008893
H	 -3.306061	 0.809945	 0.942516

	symmetry c1
}
set optking {
	frozen_dihedral = ("
		6 3 5 9
	")
}

ee = optimize('scf')
oeprop('DIPOLE', 'QUADRUPOLE', 'MULLIKEN_CHARGES')
f=open( 'psi4out.xyz', 'w' )
f.write( "19  " )
f.write( str(ee) + "\n" )
f.write( MOL.save_string_xyz() )
f.close()
--------------------------------------------------------------------------

    Molecular point group: c1
  Charge       = 0
  Multiplicity = 1
  Basis Set: 6-31G*
  Basis Set:
  @DF-RHF Final Energy:  -251.34147215279307
    Total Energy =                       -251.3414721527932443
    Molecular point group: c1
  Basis Set: 6-31G*
  Basis Set:
  Basis Set: 6-31G*
  Basis Set:
  @DF-RHF Final Energy:  -251.34171726722556
    Total Energy =                       -251.3417172672254765
  Basis Set: 6-31G*
  Basis Set:
  Basis Set: 6-31G*
  Basis Set:
  @DF-RHF Final Energy:  -251.34394144115242
    Total Energy =                       -251.3439414411524240
  Basis Set: 6-31G*
  Basis Set:
  Basis Set: 6-31G*
  Basis Set:
  @DF-RHF Final Energy:  -251.34411699179594
    Total Energy =                       -251.3441169917959428
  Basis Set: 6-31G*
  Basis Set:
  Basis Set: 6-31G*
  Basis Set:
  @DF-RHF Final Energy:  -251.34411598186659
    Total Energy =                       -251.3441159818666506
  Basis Set: 6-31G*
  Basis Set:
  Basis Set: 6-31G*
  Basis Set:
  @DF-RHF Final Energy:  -251.34412405580878
    Total Energy =                       -251.3441240558087202
  Basis Set: 6-31G*
  Basis Set:
  Charge       = 0
  Multiplicity = 1
  Basis Set: 6-31G*
  Basis Set:

    Orbital Energies (a.u.)
    -----------------------

    Doubly Occupied:

       1A    -15.531887     2A    -11.240975     3A    -11.210971
       4A    -11.210030     5A    -11.206967     6A    -11.205096
       7A     -1.175298     8A     -1.067355     9A     -0.992906
      10A     -0.905099    11A     -0.813695    12A     -0.775704
      13A     -0.665377    14A     -0.646905    15A     -0.612331
      16A     -0.582339    17A     -0.561404    18A     -0.549711
      19A     -0.524512    20A     -0.497988    21A     -0.483230
      22A     -0.461132    23A     -0.458480    24A     -0.443643
      25A     -0.377799

  @DF-RHF Final Energy:  -251.34413153129208

   => Energetics <=

    Nuclear Repulsion Energy =            249.8543369704703991
    One-Electron Energy =                -833.9952693195012898
    Two-Electron Energy =                 332.7968008177386992
    DFT Exchange-Correlation Energy =       0.0000000000000000
    Empirical Dispersion Energy =           0.0000000000000000
    PCM Polarization Energy =               0.0000000000000000
    EFP Energy =                            0.0000000000000000
    Total Energy =                       -251.3441315312921915
    Molecular point group: c1
  Basis Set: 6-31G*
  Basis Set:

  -Total Gradient:
     Atom            X                  Y                   Z
    ------   -----------------  -----------------  -----------------
       1       -0.000010508945     0.000001887952     0.000002227347
       2        0.000002771178    -0.000030924313    -0.000023543702
       3        0.001884287970    -0.002594325229    -0.006039359711
       4        0.000005669910    -0.000000769041     0.000008562930
       5        0.003045688192    -0.004304824654     0.004288551729
       6       -0.002055431429     0.002884901122     0.004464368627
       7        0.000004787977    -0.000015898178    -0.000008445321
       8        0.000034742690     0.000001611756     0.000002816704
       9       -0.002886917230     0.004061650900    -0.002701418849
      10        0.000010949769    -0.000005425199     0.000004148734
      11       -0.000022820805    -0.000003944900     0.000005155476
      12       -0.000013467056     0.000002015992     0.000003922480
      13       -0.000005522414     0.000001016326    -0.000003561487
      14        0.000002071639    -0.000001624410    -0.000002255330
      15        0.000003337390     0.000004152825     0.000000039506
      16       -0.000001212116     0.000001264897     0.000000007678
      17       -0.000001031155     0.000000453202    -0.000001109776
      18        0.000001558350    -0.000000639004    -0.000000678445
      19        0.000001046087    -0.000000580042     0.000000571411

  **** Optimization is complete! (in 7 steps) ****
    Final optimized geometry and variables:
    Molecular point group: c1

    Geometry (in Angstrom), charge = 0, multiplicity = 1:

    H            2.783316240434     1.970926255682     0.601695716147
    N            1.914494697909     1.489075788317     0.474049288258
    C            2.156314101714     0.169450593536    -0.102525187735
    H            1.359679404652     2.055675361771    -0.137434676295
    C            0.897601385386    -0.728234743700    -0.099559009212
    H            2.906074014734    -0.284490224889     0.535531497927
    H            2.567757798377     0.222916249263    -1.110736788212
    C           -0.441795777630     0.017256624086    -0.069654767305
    H            0.904628268440    -1.327210548917    -1.007123361255
    H            0.934362742479    -1.410612934352     0.743976005484
    C           -1.638752672351    -0.934786961384    -0.116293662178
    H           -0.503727408421     0.698038070387    -0.918957430157
    H           -0.499368129375     0.629624629186     0.823269529786
    C           -2.981455235672    -0.205417531509    -0.082656926431
    H           -1.583424962615    -1.546337824464    -1.014626898875
    H           -1.582449249427    -1.623155436176     0.724436723334
    H           -3.084511997365     0.466104412330    -0.930628694217
    H           -3.811087972141    -0.905208701551    -0.113163854082
    H           -3.081946507473     0.388085154531     0.821575244033

  Mulliken Charges: (a.u.)
   Center  Symbol    Alpha    Beta     Spin     Total
       1     H     0.33202  0.33202  0.00000  0.33596
       2     N     3.92407  3.92407  0.00000 -0.84815
       3     C     3.06407  3.06407  0.00000 -0.12815
       4     H     0.33345  0.33345  0.00000  0.33309
       5     C     3.15537  3.15537  0.00000 -0.31075
       6     H     0.41861  0.41861  0.00000  0.16277
       7     H     0.43157  0.43157  0.00000  0.13685
       8     C     3.15630  3.15630  0.00000 -0.31260
       9     H     0.42437  0.42437  0.00000  0.15125
      10     H     0.41895  0.41895  0.00000  0.16209
      11     C     3.15116  3.15116  0.00000 -0.30232
      12     H     0.43170  0.43170  0.00000  0.13661
      13     H     0.40718  0.40718  0.00000  0.18563
      14     C     3.23887  3.23887  0.00000 -0.47775
      15     H     0.42496  0.42496  0.00000  0.15009
      16     H     0.42293  0.42293  0.00000  0.15415
      17     H     0.42316  0.42316  0.00000  0.15368
      18     H     0.42021  0.42021  0.00000  0.15958
      19     H     0.42103  0.42103  0.00000  0.15794

   Total alpha = 25.00000, Total beta = 25.00000, Total charge =  0.00000
