  ==> Input File <==

--------------------------------------------------------------------------
set {
	reference rhf
	basis 6-31G*
}

set_num_threads( 4 )
memory 2 gb

molecule MOL {
0 1

H	 -0.575643	 1.119131	 -2.447553
C	 0.029975	 1.599435	 -1.668939
C	 0.065331	 0.871482	 -0.349150
O	 0.601040	 2.615690	 -1.898784
C	 -1.339775	 0.583656	 0.198860
H	 0.650809	 1.458134	 0.349397
H	 0.585855	 -0.070744	 -0.514762
C	 -1.808407	 -0.848507	 -0.061364
H	 -2.036183	 1.280685	 -0.256307
H	 -1.360094	 0.788874	 1.267089
H	 -1.828843	 -1.063152	 -1.125336
H	 -2.808409	 -1.004529	 0.329750
H	 -1.153967	 -1.577789	 0.406873

	symmetry c1
}
set optking {
	frozen_dihedral = ("
		6 3 5 9
	")
}

ee = optimize('scf')
oeprop('DIPOLE', 'QUADRUPOLE', 'MULLIKEN_CHARGES')
f=open( 'psi4out.xyz', 'w' )
f.write( "13  " )
f.write( str(ee) + "\n" )
f.write( MOL.save_string_xyz() )
f.close()
--------------------------------------------------------------------------

    Molecular point group: c1
  Charge       = 0
  Multiplicity = 1
  Basis Set: 6-31G*
  Basis Set:
  @DF-RHF Final Energy:  -230.98055107836663
    Total Energy =                       -230.9805510783666591
    Molecular point group: c1
  Basis Set: 6-31G*
  Basis Set:
  Basis Set: 6-31G*
  Basis Set:
  @DF-RHF Final Energy:  -230.98016522767162
    Total Energy =                       -230.9801652276716482
  Basis Set: 6-31G*
  Basis Set:
  Basis Set: 6-31G*
  Basis Set:
  @DF-RHF Final Energy:  -230.97830135064436
    Total Energy =                       -230.9783013506444433
  Basis Set: 6-31G*
  Basis Set:
  Basis Set: 6-31G*
  Basis Set:
  @DF-RHF Final Energy:  -230.98091216786159
    Total Energy =                       -230.9809121678617601
  Basis Set: 6-31G*
  Basis Set:
  @DF-RHF Final Energy:  -230.98093456018140
    Total Energy =                       -230.9809345601811970
  Basis Set: 6-31G*
  Basis Set:
  @DF-RHF Final Energy:  -230.98095734573533
    Total Energy =                       -230.9809573457350496
  Basis Set: 6-31G*
  Basis Set:
  Basis Set: 6-31G*
  Basis Set:
  @DF-RHF Final Energy:  -230.98096794558964
    Total Energy =                       -230.9809679455896401
  Basis Set: 6-31G*
  Basis Set:
  Basis Set: 6-31G*
  Basis Set:
  @DF-RHF Final Energy:  -230.98097218164574
    Total Energy =                       -230.9809721816458250
  Basis Set: 6-31G*
  Basis Set:
  Charge       = 0
  Multiplicity = 1
  Basis Set: 6-31G*
  Basis Set:

    Orbital Energies (a.u.)
    -----------------------

    Doubly Occupied:

       1A    -20.562494     2A    -11.327789     3A    -11.239034
       4A    -11.235815     5A    -11.225506     6A     -1.402884
       7A     -1.085945     8A     -0.975065     9A     -0.846528
      10A     -0.793013    11A     -0.671721    12A     -0.650006
      13A     -0.608283    14A     -0.593483    15A     -0.583767
      16A     -0.525775    17A     -0.505506    18A     -0.492102
      19A     -0.484756    20A     -0.410842

  @DF-RHF Final Energy:  -230.98097221373393

   => Energetics <=

    Nuclear Repulsion Energy =            171.1732227679834750
    One-Electron Energy =                -651.8677615004166910
    Two-Electron Energy =                 249.7135665186993947
    DFT Exchange-Correlation Energy =       0.0000000000000000
    Empirical Dispersion Energy =           0.0000000000000000
    PCM Polarization Energy =               0.0000000000000000
    EFP Energy =                            0.0000000000000000
    Total Energy =                       -230.9809722137338213
    Molecular point group: c1
  Basis Set: 6-31G*
  Basis Set:

  -Total Gradient:
     Atom            X                  Y                   Z
    ------   -----------------  -----------------  -----------------
       1        0.000000020988    -0.000002025116     0.000000215540
       2        0.000001801917     0.000011372660    -0.000001329650
       3       -0.001272047393     0.002434487255    -0.001901673099
       4       -0.000005103724    -0.000008471307     0.000001158250
       5        0.000710452978     0.001507572486     0.002720111557
       6        0.000935763039    -0.002246378069     0.001136710427
       7        0.000002912804    -0.000002202972    -0.000000451669
       8        0.000008583930     0.000004780339     0.000011590761
       9       -0.000385405448    -0.001692996750    -0.001961879375
      10        0.000000828080    -0.000006823134    -0.000006501514
      11        0.000001172966     0.000005645266     0.000002003654
      12       -0.000000217862     0.000000939146    -0.000000695626
      13        0.000001237719    -0.000005899809     0.000000740745

  **** Optimization is complete! (in 9 steps) ****
    Final optimized geometry and variables:
    Molecular point group: c1

    Geometry (in Angstrom), charge = 0, multiplicity = 1:

    H           -0.235420540388     0.275971716257    -1.615489888961
    C            0.498505056816     0.658982289684    -0.895967530727
    C            0.524813063655    -0.045628086001     0.436277737033
    O            1.207220055869     1.565080947979    -1.192570814212
    C           -0.884768359497    -0.359087585945     0.981889293619
    H            1.110100912258     0.548461677739     1.127330491158
    H            1.074491681807    -0.975297355487     0.292288780743
    C           -1.334859513590    -1.794960097920     0.706357248314
    H           -1.609777694924     0.318965023775     0.536923783306
    H           -0.905194507794    -0.172645374429     2.049587724481
    H           -1.338567185966    -2.012180309118    -0.358362478979
    H           -2.338535087272    -1.967962395709     1.080765449065
    H           -0.672300645327    -2.509510056102     1.185705658578

  Mulliken Charges: (a.u.)
   Center  Symbol    Alpha    Beta     Spin     Total
       1     H     0.43161  0.43161  0.00000  0.13679
       2     C     2.83047  2.83047  0.00000  0.33906
       3     C     3.21160  3.21160  0.00000 -0.42320
       4     O     4.23877  4.23877  0.00000 -0.47754
       5     C     3.16742  3.16742  0.00000 -0.33484
       6     H     0.39603  0.39603  0.00000  0.20793
       7     H     0.40447  0.40447  0.00000  0.19105
       8     C     3.24179  3.24179  0.00000 -0.48359
       9     H     0.41533  0.41533  0.00000  0.16934
      10     H     0.40914  0.40914  0.00000  0.18171
      11     H     0.42079  0.42079  0.00000  0.15842
      12     H     0.41478  0.41478  0.00000  0.17044
      13     H     0.41779  0.41779  0.00000  0.16442

   Total alpha = 20.00000, Total beta = 20.00000, Total charge =  0.00000
