  ==> Input File <==

--------------------------------------------------------------------------
set {
	reference rhf
	basis 6-31G*
}

set_num_threads( 1 )
memory 2 gb

molecule MOL {
0 1

O	 -0.291628	 1.323815	 -0.000732
C	 -0.449655	 0.146360	 0.000961
C	 -1.783294	 -0.549321	 -0.000296
O	 0.550821	 -0.724572	 0.000672
H	 -1.863538	 -1.185371	 -0.874187
H	 -2.574672	 0.185258	 -0.002793
H	 -1.866414	 -1.182381	 0.875436
C	 0.621849	 -1.620776	 1.095229
H	 0.734488	 -1.078578	 2.022963
H	 1.487941	 -2.238148	 0.914995
H	 -0.269050	 -2.229997	 1.145138

	symmetry c1
}
set optking {
	frozen_dihedral = ("
		2 4 8 9
	")
}

ee = energy('scf')
oeprop('DIPOLE', 'QUADRUPOLE', 'MULLIKEN_CHARGES')
f=open( 'psi4out.xyz', 'w' )
f.write( "11  " )
f.write( str(ee) + "\n" )
f.write( MOL.save_string_xyz() )
f.close()
--------------------------------------------------------------------------

    Molecular point group: c1

    Geometry (in Angstrom), charge = 0, multiplicity = 1:

       Center              X                  Y                   Z               Mass
    ------------   -----------------  -----------------  -----------------  -----------------
           O         -0.027263127879     1.627578911967    -0.233903387423    15.994914619560
           C         -0.185290127879     0.450123911967    -0.232210387423    12.000000000000
           C         -1.518929127879    -0.245557088033    -0.233467387423    12.000000000000
           O          0.815185872121    -0.420808088033    -0.232499387423    15.994914619560
           H         -1.599173127879    -0.881607088033    -1.107358387423     1.007825032070
           H         -2.310307127879     0.489021911967    -0.235964387423     1.007825032070
           H         -1.602049127879    -0.878617088033     0.642264612577     1.007825032070
           C          0.886213872121    -1.317012088033     0.862057612577    12.000000000000
           H          0.998852872121    -0.774814088033     1.789791612577     1.007825032070
           H          1.752305872121    -1.934384088033     0.681823612577     1.007825032070
           H         -0.004685127879    -1.926233088033     0.911966612577     1.007825032070

  Charge       = 0
  Multiplicity = 1
  Basis Set: 6-31G*
  Basis Set:

    Orbital Energies (a.u.)
    -----------------------

    Doubly Occupied:

       1A    -20.595113     2A    -20.554425     3A    -11.378407
       4A    -11.299272     5A    -11.237673     6A     -1.467014
       7A     -1.371196     8A     -1.024556     9A     -0.981237
      10A     -0.783959    11A     -0.695402    12A     -0.689600
      13A     -0.677586    14A     -0.621795    15A     -0.587643
      16A     -0.574858    17A     -0.550977    18A     -0.493745
      19A     -0.462990    20A     -0.439841

  @DF-RHF Final Energy:  -266.81161791024300

   => Energetics <=

    Nuclear Repulsion Energy =            183.9651786776937570
    One-Electron Energy =                -728.5790158522644333
    Two-Electron Energy =                 277.8022192643281301
    DFT Exchange-Correlation Energy =       0.0000000000000000
    Empirical Dispersion Energy =           0.0000000000000000
    PCM Polarization Energy =               0.0000000000000000
    EFP Energy =                            0.0000000000000000
    Total Energy =                       -266.8116179102425463

  Mulliken Charges: (a.u.)
   Center  Symbol    Alpha    Beta     Spin     Total
       1     O     4.25539  4.25539  0.00000 -0.51078
       2     C     2.62561  2.62561  0.00000  0.74878
       3     C     3.29877  3.29877  0.00000 -0.59755
       4     O     4.29757  4.29757  0.00000 -0.59515
       5     H     0.39785  0.39785  0.00000  0.20431
       6     H     0.39443  0.39443  0.00000  0.21113
       7     H     0.40670  0.40670  0.00000  0.18660
       8     C     3.09746  3.09746  0.00000 -0.19491
       9     H     0.41008  0.41008  0.00000  0.17984
      10     H     0.39816  0.39816  0.00000  0.20368
      11     H     0.41798  0.41798  0.00000  0.16404

   Total alpha = 20.00000, Total beta = 20.00000, Total charge = -0.00000
