                              Psi4 1.0.54 Driver

  ==> Input File <==

--------------------------------------------------------------------------
set {
	reference rhf
	basis cc-pvtz
}

set_num_threads( 4 )
memory 2 gb

molecule MOL {
0 1

H	 -2.440697	 -1.809171	 -0.004085
C	 -1.667441	 -1.070247	 -0.002355
C	 -1.963125	 0.330367	 -0.000184
C	 -0.381683	 -1.430607	 -0.002215
H	 -2.987307	 0.653179	 -0.000286
C	 -0.977437	 1.233135	 0.001946
H	 -0.081177	 -2.459604	 -0.003802
N	 0.640204	 -0.530428	 -0.000115
H	 -1.161186	 2.287742	 0.003613
C	 0.423274	 0.836600	 0.002239
C	 2.006991	 -1.033007	 -0.000020
O	 1.336088	 1.616990	 0.004196
H	 2.182444	 -1.636914	 -0.880881
H	 2.678769	 -0.195442	 -0.002236
H	 2.183828	 -1.633244	 0.883082

	symmetry c1
}
set optking {
	frozen_dihedral = ("
		10 8 11 13
	")
}

ee,wfn = optimize('scf', return_wfn=True)
oeprop( wfn, 'DIPOLE', 'QUADRUPOLE', 'MULLIKEN_CHARGES')
f=open( 'psi4out.xyz', 'w' )
f.write( "15  " )
f.write( str(ee) + "\n" )
f.write( MOL.save_string_xyz() )
f.close()
--------------------------------------------------------------------------

    Molecular point group: c1
  Charge       = 0
  Multiplicity = 1
  Basis Set: CC-PVTZ
  Basis Set:

    Orbital Energies (a.u.)
    -----------------------

    Doubly Occupied:

       1A    -20.501716     2A    -15.616412     3A    -11.339680
       4A    -11.293160     5A    -11.263341     6A    -11.258238
       7A    -11.230779     8A    -11.228401     9A     -1.390413
      10A     -1.285766    11A     -1.118842    12A     -1.028880
      13A     -0.972303    14A     -0.875744    15A     -0.838570
      16A     -0.719111    17A     -0.703202    18A     -0.663336
      19A     -0.652670    20A     -0.625126    21A     -0.611931
      22A     -0.573887    23A     -0.558536    24A     -0.550463
      25A     -0.529240    26A     -0.482650    27A     -0.420006
      28A     -0.410901    29A     -0.311075

  @DF-RHF Final Energy:  -360.72253143021089

   => Energetics <=

    Nuclear Repulsion Energy =            358.4346591037287908
    One-Electron Energy =               -1200.2056231494061649
    Two-Electron Energy =                 481.0484326154664814
    DFT Exchange-Correlation Energy =       0.0000000000000000
    Empirical Dispersion Energy =           0.0000000000000000
    PCM Polarization Energy =               0.0000000000000000
    EFP Energy =                            0.0000000000000000
    Total Energy =                       -360.7225314302108927
    Molecular point group: c1
  Basis Set: CC-PVTZ
  Basis Set:

  -Total Gradient:
     Atom            X                  Y                   Z
    ------   -----------------  -----------------  -----------------
       1       -0.000006118724     0.000020178063     0.000000418486
       2       -0.000035698161     0.000087818474    -0.000001475844
       3       -0.000020836945    -0.000172695004    -0.000002069667
       4       -0.000008870111     0.000004351719    -0.000003026178
       5        0.000002899903    -0.000012754180     0.000001014598
       6        0.000232086763     0.000082203797    -0.000007188007
       7        0.000006390357     0.000015482990     0.000000132106
       8       -0.000043552964     0.000014754160     0.000018192551
       9       -0.000015978697    -0.000054130205     0.000000513420
      10       -0.000310240295    -0.000133062002     0.000022040527
      11        0.000094360429     0.000007346899    -0.000003507317
      12        0.000167335030     0.000146385282    -0.000013201497
      13       -0.000007969774     0.000009294831     0.000011735992
      14       -0.000021507644    -0.000028414769    -0.000002745639
      15       -0.000032299165     0.000013239953    -0.000020833530

  **** Optimization is complete! (in 1 steps) ****
    Final optimized geometry and variables:
    Molecular point group: c1

    Geometry (in Angstrom), charge = 0, multiplicity = 1:

    H           -2.440696920318    -1.809170298699    -0.004578388249
    C           -1.667440920318    -1.070246298699    -0.002848388249
    C           -1.963124920318     0.330367701301    -0.000677388249
    C           -0.381682920318    -1.430606298699    -0.002708388249
    H           -2.987306920318     0.653179701301    -0.000779388249
    C           -0.977436920318     1.233135701301     0.001452611751
    H           -0.081176920318    -2.459603298699    -0.004295388249
    N            0.640204079682    -0.530427298699    -0.000608388249
    H           -1.161185920318     2.287742701301     0.003119611751
    C            0.423274079682     0.836600701301     0.001745611751
    C            2.006991079682    -1.033006298699    -0.000513388249
    O            1.336088079682     1.616990701301     0.003702611751
    H            2.182444079682    -1.636913298699    -0.881374388249
    H            2.678769079682    -0.195441298699    -0.002729388249
    H            2.183828079682    -1.633243298699     0.882588611751

  Mulliken Charges: (a.u.)
   Center  Symbol    Alpha    Beta     Spin     Total
       1     H     0.41415  0.41415  0.00000  0.17170
       2     C     3.10188  3.10188  0.00000 -0.20375
       3     C     3.06196  3.06196  0.00000 -0.12392
       4     C     3.03304  3.03304  0.00000 -0.06608
       5     H     0.41833  0.41833  0.00000  0.16334
       6     C     3.11587  3.11587  0.00000 -0.23174
       7     H     0.42020  0.42020  0.00000  0.15960
       8     N     3.51282  3.51282  0.00000 -0.02563
       9     H     0.40884  0.40884  0.00000  0.18232
      10     C     2.84560  2.84560  0.00000  0.30879
      11     C     3.11045  3.11045  0.00000 -0.22089
      12     O     4.23674  4.23674  0.00000 -0.47348
      13     H     0.44986  0.44986  0.00000  0.10028
      14     H     0.42051  0.42051  0.00000  0.15899
      15     H     0.44976  0.44976  0.00000  0.10048

   Total alpha = 29.00000, Total beta = 29.00000, Total charge = -0.00000

*** Psi4 exiting successfully. Buy a developer a beer!
