  ==> Input File <==

--------------------------------------------------------------------------
set {
	reference rhf
	basis 6-31G*
}

set_num_threads( 4 )
memory 2 gb

molecule MOL {
0 1

H	 2.749773	 0.089830	 0.891860
N	 2.332695	 -0.069570	 0.000000
C	 0.936681	 -0.007078	 0.000000
H	 2.767907	 0.494917	 -0.697655
C	 0.227108	 -0.002120	 -1.198267
C	 0.227108	 -0.002120	 1.198267
H	 0.761569	 -0.014657	 -2.132680
C	 -1.156334	 0.010459	 -1.192360
H	 0.761569	 -0.014657	 2.132680
C	 -1.156334	 0.010459	 1.192360
H	 -1.684791	 0.014915	 -2.129421
C	 -1.862085	 0.017996	 0.000000
H	 -1.684791	 0.014915	 2.129421
H	 -2.936703	 0.028387	 0.000000

	symmetry c1
}
set optking {
	frozen_dihedral = ("
		1 2 3 5
	")
}

ee = optimize('scf')
oeprop('DIPOLE', 'QUADRUPOLE', 'MULLIKEN_CHARGES')
f=open( 'psi4out.xyz', 'w' )
f.write( "14  " )
f.write( str(ee) + "\n" )
f.write( MOL.save_string_xyz() )
f.close()
--------------------------------------------------------------------------

    Molecular point group: c1
  Charge       = 0
  Multiplicity = 1
  Basis Set: 6-31G*
  Basis Set:
  @DF-RHF Final Energy:  -285.72996350201009
    Total Energy =                       -285.7299635020101505
    Molecular point group: c1
  Basis Set: 6-31G*
  Basis Set:
  Basis Set: 6-31G*
  Basis Set:
  @DF-RHF Final Energy:  -285.73002359177292
    Total Energy =                       -285.7300235917728060
  Basis Set: 6-31G*
  Basis Set:
  Basis Set: 6-31G*
  Basis Set:
  @DF-RHF Final Energy:  -285.73003813259260
    Total Energy =                       -285.7300381325926537
  Basis Set: 6-31G*
  Basis Set:
  Basis Set: 6-31G*
  Basis Set:
  @DF-RHF Final Energy:  -285.73004007386049
    Total Energy =                       -285.7300400738608346
  Basis Set: 6-31G*
  Basis Set:
  Charge       = 0
  Multiplicity = 1
  Basis Set: 6-31G*
  Basis Set:

    Orbital Energies (a.u.)
    -----------------------

    Doubly Occupied:

       1A    -15.559706     2A    -11.270434     3A    -11.228263
       4A    -11.228040     5A    -11.217589     6A    -11.216654
       7A    -11.213347     8A     -1.221056     9A     -1.124920
      10A     -1.008910    11A     -0.983536    12A     -0.828235
      13A     -0.809035    14A     -0.703066    15A     -0.683247
      16A     -0.651731    17A     -0.596275    18A     -0.590399
      19A     -0.578333    20A     -0.526050    21A     -0.502455
      22A     -0.484327    23A     -0.440911    24A     -0.330573
      25A     -0.289679

  @DF-RHF Final Energy:  -285.73004045260160

   => Energetics <=

    Nuclear Repulsion Energy =            273.0485498530013615
    One-Electron Energy =                -926.9836394161811768
    Two-Electron Energy =                 368.2050491105784431
    DFT Exchange-Correlation Energy =       0.0000000000000000
    Empirical Dispersion Energy =           0.0000000000000000
    PCM Polarization Energy =               0.0000000000000000
    EFP Energy =                            0.0000000000000000
    Total Energy =                       -285.7300404526014290
    Molecular point group: c1
  Basis Set: 6-31G*
  Basis Set:

  -Total Gradient:
     Atom            X                  Y                   Z
    ------   -----------------  -----------------  -----------------
       1       -0.000090423972    -0.001760280555     0.000345854653
       2        0.000131317407     0.001597384308    -0.000460852958
       3        0.000011823673     0.001521081530     0.000107292939
       4       -0.000012027885     0.000001608523     0.000009137053
       5       -0.000072277412    -0.001359448911     0.000004590890
       6        0.000058997003    -0.000006719979    -0.000018307722
       7        0.000011323256    -0.000002016896     0.000003897200
       8        0.000020399450     0.000015487957    -0.000021367998
       9       -0.000009663784    -0.000005296594    -0.000005511575
      10       -0.000049164956     0.000017648146    -0.000017979575
      11        0.000000678531    -0.000002344915     0.000007486454
      12        0.000011010066    -0.000015533823     0.000038543939
      13       -0.000009380971     0.000000906912    -0.000003680189
      14       -0.000002610404    -0.000002475703     0.000010896888

  **** Optimization is complete! (in 5 steps) ****
    Final optimized geometry and variables:
    Molecular point group: c1

    Geometry (in Angstrom), charge = 0, multiplicity = 1:

    H            2.760064629578     0.095863373406     0.879602695193
    N            2.332369815971    -0.066037229617    -0.006190880636
    C            0.936415826505    -0.000974778279     0.003415444793
    H            2.771185400504     0.469032143675    -0.724088660703
    C            0.229544663105    -0.000733882971    -1.197677009841
    C            0.224367469032    -0.002076556190     1.198688038293
    H            0.768914435307    -0.020729980130    -2.128844326607
    C           -1.152518396106     0.015514507310    -1.195478002178
    H            0.755217712260    -0.008495735728     2.135420827345
    C           -1.160506461148     0.001575131371     1.189609059837
    H           -1.679186154449     0.020282535226    -2.133615396589
    C           -1.861843428057     0.015156291474    -0.003680442773
    H           -1.691341256685    -0.000226456201     2.125408774722
    H           -2.936573312412     0.022941688300    -0.006868015348

  Mulliken Charges: (a.u.)
   Center  Symbol    Alpha    Beta     Spin     Total
       1     H     0.32010  0.32010  0.00000  0.35981
       2     N     3.94739  3.94739  0.00000 -0.89478
       3     C     2.85182  2.85182  0.00000  0.29635
       4     H     0.31966  0.31966  0.00000  0.36069
       5     C     3.12369  3.12369  0.00000 -0.24739
       6     C     3.12883  3.12883  0.00000 -0.25767
       7     H     0.40276  0.40276  0.00000  0.19449
       8     C     3.09039  3.09039  0.00000 -0.18077
       9     H     0.40523  0.40523  0.00000  0.18953
      10     C     3.08982  3.08982  0.00000 -0.17964
      11     H     0.40088  0.40088  0.00000  0.19824
      12     C     3.11561  3.11561  0.00000 -0.23122
      13     H     0.40096  0.40096  0.00000  0.19808
      14     H     0.40285  0.40285  0.00000  0.19429

   Total alpha = 25.00000, Total beta = 25.00000, Total charge =  0.00000
