                              Psi4 1.0.54 Driver

  ==> Input File <==

--------------------------------------------------------------------------
set {
	reference rhf
	basis cc-pvtz
}

set_num_threads( 4 )
memory 2 gb

molecule MOL {
0 1

H	 -2.516476	 -0.243356	 0.552994
N	 -1.851927	 0.161443	 -0.071573
C	 -0.561396	 -0.500007	 0.035200
H	 -1.777185	 1.128986	 0.164246
C	 0.575129	 0.507849	 -0.048832
H	 -0.478089	 -1.200753	 -0.788956
H	 -0.456191	 -1.081816	 0.952176
C	 1.951750	 -0.141983	 0.035101
H	 0.478254	 1.061643	 -0.975981
H	 0.467676	 1.231891	 0.755499
H	 2.101550	 -0.848142	 -0.774949
H	 2.738260	 0.600794	 -0.026526
H	 2.078939	 -0.679792	 0.968824

	symmetry c1
}
set optking {
	frozen_dihedral = ("
		1 2 3 6
	")
}

ee,wfn = optimize('scf', return_wfn=True)
oeprop( wfn, 'DIPOLE', 'QUADRUPOLE', 'MULLIKEN_CHARGES')
f=open( 'psi4out.xyz', 'w' )
f.write( "13  " )
f.write( str(ee) + "\n" )
f.write( MOL.save_string_xyz() )
f.close()
--------------------------------------------------------------------------

    Molecular point group: c1
  Charge       = 0
  Multiplicity = 1
  Basis Set: CC-PVTZ
  Basis Set:
  @DF-RHF Final Energy:  -173.34933913733701
    Total Energy =                       -173.3493391373370969
    Molecular point group: c1
  Basis Set: CC-PVTZ
  Basis Set:
  Basis Set: CC-PVTZ
  Basis Set:
  @DF-RHF Final Energy:  -173.34959085613286
    Total Energy =                       -173.3495908561329202
  Basis Set: CC-PVTZ
  Basis Set:
  Basis Set: CC-PVTZ
  Basis Set:
  @DF-RHF Final Energy:  -173.34963277094820
    Total Energy =                       -173.3496327709481761
  Basis Set: CC-PVTZ
  Basis Set:
  Basis Set: CC-PVTZ
  Basis Set:
  @DF-RHF Final Energy:  -173.34963398872961
    Total Energy =                       -173.3496339887294084
  Basis Set: CC-PVTZ
  Basis Set:
  Charge       = 0
  Multiplicity = 1
  Basis Set: CC-PVTZ
  Basis Set:

    Orbital Energies (a.u.)
    -----------------------

    Doubly Occupied:

       1A    -15.525117     2A    -11.238145     3A    -11.216101
       4A    -11.209895     5A     -1.177021     6A     -1.038874
       7A     -0.900489     8A     -0.806124     9A     -0.653696
      10A     -0.638097    11A     -0.604910    12A     -0.557096
      13A     -0.544890    14A     -0.496615    15A     -0.479893
      16A     -0.469949    17A     -0.383033

  @DF-RHF Final Energy:  -173.34963411811100

   => Energetics <=

    Nuclear Repulsion Energy =            132.0433660484977736
    One-Electron Energy =                -494.9061064021512948
    Two-Electron Energy =                 189.5131062355424092
    DFT Exchange-Correlation Energy =       0.0000000000000000
    Empirical Dispersion Energy =           0.0000000000000000
    PCM Polarization Energy =               0.0000000000000000
    EFP Energy =                            0.0000000000000000
    Total Energy =                       -173.3496341181111120
    Molecular point group: c1
  Basis Set: CC-PVTZ
  Basis Set:

  -Total Gradient:
     Atom            X                  Y                   Z
    ------   -----------------  -----------------  -----------------
       1        0.000769971408     0.001919734771     0.001951946900
       2       -0.000686138066    -0.001983388084    -0.002808484635
       3       -0.001143629786    -0.001727012707     0.002392963161
       4        0.000004200090     0.000000607011    -0.000011005891
       5       -0.000014877434     0.000003376110     0.000016864951
       6        0.001046319161     0.001794909404    -0.001525746400
       7        0.000012355735    -0.000004080935    -0.000004951065
       8        0.000007945328    -0.000005543363    -0.000012116420
       9        0.000002456508     0.000002790019     0.000000715273
      10       -0.000002204320    -0.000001125932    -0.000005216420
      11       -0.000002183289    -0.000002538901     0.000005284384
      12        0.000004116881     0.000000228353    -0.000000723848
      13        0.000001667784     0.000002044255     0.000000470011

  **** Optimization is complete! (in 5 steps) ****
    Final optimized geometry and variables:
    Molecular point group: c1

    Geometry (in Angstrom), charge = 0, multiplicity = 1:

    H           -2.532349017308    -0.232455089598     0.580347498099
    N           -1.866312083292     0.149502861405    -0.055808183083
    C           -0.565939036633    -0.501515820432     0.078094855292
    H           -1.796895898178     1.120718658863     0.163611581938
    C            0.575676269900     0.497814813745    -0.051450055776
    H           -0.460183102601    -1.237030359764    -0.713413522481
    H           -0.470378197997    -1.029050111253     1.024415588628
    C            1.949311162592    -0.162363498427    -0.026236653924
    H            0.451608155629     1.048867007157    -0.979174288139
    H            0.506903468108     1.224415851195     0.754522874876
    H            2.059669028913    -0.867457077459    -0.842867093126
    H            2.738121486222     0.574839745623    -0.117789410921
    H            2.108644239933    -0.702792134417     0.900905495074

  Mulliken Charges: (a.u.)
   Center  Symbol    Alpha    Beta     Spin     Total
       1     H     0.43070  0.43070  0.00000  0.13859
       2     N     3.68895  3.68895  0.00000 -0.37790
       3     C     3.01388  3.01388  0.00000 -0.02775
       4     H     0.43190  0.43190  0.00000  0.13619
       5     C     3.08497  3.08497  0.00000 -0.16995
       6     H     0.46365  0.46365  0.00000  0.07270
       7     H     0.46721  0.46721  0.00000  0.06558
       8     C     3.15195  3.15195  0.00000 -0.30390
       9     H     0.44997  0.44997  0.00000  0.10006
      10     H     0.45933  0.45933  0.00000  0.08133
      11     H     0.45366  0.45366  0.00000  0.09268
      12     H     0.44783  0.44783  0.00000  0.10434
      13     H     0.45599  0.45599  0.00000  0.08803

   Total alpha = 17.00000, Total beta = 17.00000, Total charge =  0.00000

*** Psi4 exiting successfully. Buy a developer a beer!
