  ==> Input File <==

--------------------------------------------------------------------------
set {
	reference rhf
	basis 6-31G*
}

set_num_threads( 1 )
memory 2 gb

molecule MOL {
0 1

H	 2.977463	 -0.133649	 -0.889576
N	 2.434251	 -0.367735	 -0.081097
C	 1.267428	 0.496480	 0.024474
H	 3.032726	 -0.248369	 0.714198
C	 -0.016086	 -0.325158	 -0.029487
H	 1.288818	 1.183521	 -0.816092
H	 1.267576	 1.109062	 0.929528
C	 -1.282277	 0.529072	 0.046735
H	 -0.012495	 -0.908639	 -0.945788
H	 -0.015903	 -1.041248	 0.791956
C	 -2.563920	 -0.301775	 -0.006060
H	 -1.284084	 1.244622	 -0.773004
H	 -1.271387	 1.115393	 0.963286
H	 -2.621848	 -0.873522	 -0.927727
H	 -3.445135	 0.329952	 0.047812
H	 -2.609542	 -1.004582	 0.821105

	symmetry c1
}
set optking {
	frozen_dihedral = ("
		6 3 5 9,
		12 8 5 9
	")
}

ee = energy('scf')
oeprop('DIPOLE', 'QUADRUPOLE', 'MULLIKEN_CHARGES')
f=open( 'psi4out.xyz', 'w' )
f.write( "16  " )
f.write( str(ee) + "\n" )
f.write( MOL.save_string_xyz() )
f.close()
--------------------------------------------------------------------------

    Molecular point group: c1

    Geometry (in Angstrom), charge = 0, multiplicity = 1:

       Center              X                  Y                   Z               Mass
    ------------   -----------------  -----------------  -----------------  -----------------
           H          2.974263527249    -0.139294075125    -0.878731367583     1.007825032070
           N          2.431051527249    -0.373380075125    -0.070252367583    14.003074004780
           C          1.264228527249     0.490834924875     0.035318632417    12.000000000000
           H          3.029526527249    -0.254014075125     0.725042632417     1.007825032070
           C         -0.019285472751    -0.330803075125    -0.018642367583    12.000000000000
           H          1.285618527249     1.177875924875    -0.805247367583     1.007825032070
           H          1.264376527249     1.103416924875     0.940372632417     1.007825032070
           C         -1.285476472751     0.523426924875     0.057579632417    12.000000000000
           H         -0.015694472751    -0.914284075125    -0.934943367583     1.007825032070
           H         -0.019102472751    -1.046893075125     0.802800632417     1.007825032070
           C         -2.567119472751    -0.307420075125     0.004784632417    12.000000000000
           H         -1.287283472751     1.238976924875    -0.762159367583     1.007825032070
           H         -1.274586472751     1.109747924875     0.974130632417     1.007825032070
           H         -2.625047472751    -0.879167075125    -0.916882367583     1.007825032070
           H         -3.448334472751     0.324306924875     0.058656632417     1.007825032070
           H         -2.612741472751    -1.010227075125     0.831949632417     1.007825032070

  Charge       = 0
  Multiplicity = 1
  Basis Set: 6-31G*
  Basis Set:

    Orbital Energies (a.u.)
    -----------------------

    Doubly Occupied:

       1A    -15.531807     2A    -11.240217     3A    -11.210977
       4A    -11.205120     5A    -11.202075     6A     -1.176297
       7A     -1.056162     8A     -0.956517     9A     -0.841294
      10A     -0.785660    11A     -0.676479    12A     -0.621230
      13A     -0.611180    14A     -0.575692    15A     -0.549581
      16A     -0.533062    17A     -0.487292    18A     -0.475094
      19A     -0.463759    20A     -0.457324    21A     -0.378086

  @DF-RHF Final Energy:  -212.31292291145201

   => Energetics <=

    Nuclear Repulsion Energy =            186.0692591952260386
    One-Electron Energy =                -654.6944928923521729
    Two-Electron Energy =                 256.3123107856746401
    DFT Exchange-Correlation Energy =       0.0000000000000000
    Empirical Dispersion Energy =           0.0000000000000000
    PCM Polarization Energy =               0.0000000000000000
    EFP Energy =                            0.0000000000000000
    Total Energy =                       -212.3129229114514942

  Mulliken Charges: (a.u.)
   Center  Symbol    Alpha    Beta     Spin     Total
       1     H     0.33158  0.33158  0.00000  0.33684
       2     N     3.92331  3.92331  0.00000 -0.84661
       3     C     3.07049  3.07049  0.00000 -0.14097
       4     H     0.33239  0.33239  0.00000  0.33522
       5     C     3.13675  3.13675  0.00000 -0.27349
       6     H     0.42714  0.42714  0.00000  0.14571
       7     H     0.42568  0.42568  0.00000  0.14864
       8     C     3.15766  3.15766  0.00000 -0.31531
       9     H     0.42111  0.42111  0.00000  0.15778
      10     H     0.42198  0.42198  0.00000  0.15603
      11     C     3.23791  3.23791  0.00000 -0.47583
      12     H     0.42514  0.42514  0.00000  0.14972
      13     H     0.42518  0.42518  0.00000  0.14964
      14     H     0.42144  0.42144  0.00000  0.15713
      15     H     0.42070  0.42070  0.00000  0.15860
      16     H     0.42154  0.42154  0.00000  0.15692

   Total alpha = 21.00000, Total beta = 21.00000, Total charge = -0.00000
