  ==> Input File <==

--------------------------------------------------------------------------
set {
	reference rhf
	basis cc-pvtz
}

set_num_threads( 4 )
memory 2 gb

molecule MOL {
0 1

O	 -0.562652	 0.026244	 0.531820
C	 0.485107	 0.171416	 -0.000134
C	 1.606966	 -0.836201	 0.000174
O	 0.813719	 1.257779	 -0.677198
C	 2.988788	 -0.202529	 -0.000115
H	 1.465110	 -1.474645	 -0.864821
H	 1.465209	 -1.474077	 0.865596
H	 3.131767	 0.419673	 -0.873407
H	 3.750876	 -0.972315	 0.000098
H	 3.131883	 0.420264	 0.872742
C	 -0.147638	 2.300032	 -0.765454
C	 0.458674	 3.419752	 -1.578535
H	 -0.405152	 2.628103	 0.231744
H	 -1.045067	 1.914362	 -1.228275
H	 1.356844	 3.797115	 -1.106031
H	 -0.250949	 4.234060	 -1.665540
H	 0.713229	 3.079353	 -2.574377

	symmetry c1
}
set optking {
	frozen_dihedral = ("
		4 2 3 6
	")
}

ee = optimize('scf')
oeprop('DIPOLE', 'QUADRUPOLE', 'MULLIKEN_CHARGES')
f=open( 'psi4out.xyz', 'w' )
f.write( "17  " )
f.write( str(ee) + "\n" )
f.write( MOL.save_string_xyz() )
f.close()
--------------------------------------------------------------------------

    Molecular point group: c1
  Charge       = 0
  Multiplicity = 1
  Basis Set: CC-PVTZ
  Basis Set:
  @DF-RHF Final Energy:  -345.03780930256727
    Total Energy =                       -345.0378093025673252
    Molecular point group: c1
  Basis Set: CC-PVTZ
  Basis Set:
  Basis Set: CC-PVTZ
  Basis Set:
  @DF-RHF Final Energy:  -345.03812160352555
    Total Energy =                       -345.0381216035255534
  Basis Set: CC-PVTZ
  Basis Set:
  Basis Set: CC-PVTZ
  Basis Set:
  @DF-RHF Final Energy:  -345.03844748338514
    Total Energy =                       -345.0384474833851982
  Basis Set: CC-PVTZ
  Basis Set:
  Basis Set: CC-PVTZ
  Basis Set:
  @DF-RHF Final Energy:  -345.03850771964949
    Total Energy =                       -345.0385077196492603
  Basis Set: CC-PVTZ
  Basis Set:
  Basis Set: CC-PVTZ
  Basis Set:
  @DF-RHF Final Energy:  -345.03850906761386
    Total Energy =                       -345.0385090676142568
  Basis Set: CC-PVTZ
  Basis Set:
  Basis Set: CC-PVTZ
  Basis Set:
  @DF-RHF Final Energy:  -345.03851434945472
    Total Energy =                       -345.0385143494542035
  Basis Set: CC-PVTZ
  Basis Set:
  Charge       = 0
  Multiplicity = 1
  Basis Set: CC-PVTZ
  Basis Set:

    Orbital Energies (a.u.)
    -----------------------

    Doubly Occupied:

       1A    -20.595404     2A    -20.529772     3A    -11.363388
       4A    -11.283228     5A    -11.235844     6A    -11.221072
       7A    -11.220156     8A     -1.471100     9A     -1.363393
      10A     -1.073309    11A     -1.031125    12A     -0.906987
      13A     -0.860726    14A     -0.780122    15A     -0.693661
      16A     -0.679910    17A     -0.675822    18A     -0.627873
      19A     -0.582637    20A     -0.574181    21A     -0.553633
      22A     -0.548856    23A     -0.524433    24A     -0.513642
      25A     -0.506760    26A     -0.492430    27A     -0.455373
      28A     -0.434106

  @DF-RHF Final Energy:  -345.03851437011861

   => Energetics <=

    Nuclear Repulsion Energy =            317.9437565629754090
    One-Electron Energy =               -1100.3666565477853965
    Two-Electron Energy =                 437.3843856146915527
    DFT Exchange-Correlation Energy =       0.0000000000000000
    Empirical Dispersion Energy =           0.0000000000000000
    PCM Polarization Energy =               0.0000000000000000
    EFP Energy =                            0.0000000000000000
    Total Energy =                       -345.0385143701184347
    Molecular point group: c1
  Basis Set: CC-PVTZ
  Basis Set:

  -Total Gradient:
     Atom            X                  Y                   Z
    ------   -----------------  -----------------  -----------------
       1        0.000027662258     0.000011179514    -0.000012147170
       2       -0.000400142012    -0.000438288409    -0.000554618372
       3        0.000540122068     0.000586810189    -0.000279389147
       4        0.000220160607     0.000276192905     0.000483847232
       5       -0.000001485230     0.000001144168    -0.000003063564
       6       -0.000388611434    -0.000415034371     0.000370763132
       7       -0.000001822655     0.000000982272     0.000001068889
       8        0.000001065616     0.000000815980    -0.000000745752
       9       -0.000002698310    -0.000000500865     0.000000432553
      10        0.000000504700     0.000000215243     0.000000950595
      11        0.000004226356    -0.000036887919    -0.000026087571
      12        0.000001766852     0.000005397330     0.000007230851
      13        0.000002309067     0.000001230807     0.000007586150
      14       -0.000003175143     0.000007435765     0.000002175410
      15        0.000001816979     0.000001807347    -0.000001282972
      16       -0.000000207992     0.000000339689     0.000000956451
      17       -0.000001491728    -0.000002839644     0.000002323285

  **** Optimization is complete! (in 7 steps) ****
    Final optimized geometry and variables:
    Molecular point group: c1

    Geometry (in Angstrom), charge = 0, multiplicity = 1:

    O           -1.355497131611    -0.870838969039     0.877349155720
    C           -0.302398119371    -0.702122015554     0.361471449013
    C            0.807444801764    -1.726194053889     0.373915825143
    O            0.009012300132     0.391712087138    -0.308422097323
    C            2.226425232648    -1.169186171416     0.366437983438
    H            0.645815526331    -2.355742967962    -0.496280139755
    H            0.634103392079    -2.349700156605     1.239445766865
    H            2.422970083205    -0.596100956876    -0.528412313700
    H            2.939450769829    -1.983017023458     0.413324461063
    H            2.399617682785    -0.525564535033     1.220713745346
    C           -0.980402013017     1.406229065460    -0.415651411766
    C           -0.390957242973     2.543874593254    -1.216065473663
    H           -1.266677825081     1.724714981822     0.576551093413
    H           -1.856621223419     0.994330034831    -0.895905073722
    H            0.486022536841     2.947438077804    -0.725702698772
    H           -1.122535474608     3.336878691804    -1.316645382410
    H           -0.107082494283     2.212490487226    -2.207045901729

  Mulliken Charges: (a.u.)
   Center  Symbol    Alpha    Beta     Spin     Total
       1     O     4.20146  4.20146  0.00000 -0.40292
       2     C     2.81136  2.81136  0.00000  0.37727
       3     C     3.08712  3.08712  0.00000 -0.17424
       4     O     4.15026  4.15026  0.00000 -0.30053
       5     C     3.14415  3.14415  0.00000 -0.28830
       6     H     0.44634  0.44634  0.00000  0.10733
       7     H     0.43558  0.43558  0.00000  0.12885
       8     H     0.44697  0.44697  0.00000  0.10606
       9     H     0.44888  0.44888  0.00000  0.10225
      10     H     0.45175  0.45175  0.00000  0.09650
      11     C     2.97819  2.97819  0.00000  0.04362
      12     C     3.13404  3.13404  0.00000 -0.26808
      13     H     0.45383  0.45383  0.00000  0.09235
      14     H     0.45360  0.45360  0.00000  0.09281
      15     H     0.45123  0.45123  0.00000  0.09754
      16     H     0.45366  0.45366  0.00000  0.09269
      17     H     0.45159  0.45159  0.00000  0.09682

   Total alpha = 28.00000, Total beta = 28.00000, Total charge =  0.00000
