  ==> Input File <==

--------------------------------------------------------------------------
set {
	reference rhf
	basis cc-pvtz
}

set_num_threads( 4 )
memory 2 gb

molecule MOL {
0 1

H	 -3.162190	 0.493205	 -0.000107
C	 -2.363908	 -0.234727	 0.000005
O	 -1.158738	 0.454634	 -0.000087
H	 -2.464314	 -0.863616	 -0.882153
H	 -2.464327	 -0.863359	 0.882345
C	 -0.028611	 -0.359694	 0.000037
C	 -0.414776	 -1.749435	 0.464676
H	 0.733356	 0.058341	 0.658285
H	 0.400411	 -0.403974	 -1.001273
C	 0.772820	 -2.705043	 0.492612
H	 -0.856259	 -1.673244	 1.452204
H	 -1.186511	 -2.131895	 -0.194189
H	 1.547732	 -2.353131	 1.165483
H	 0.468992	 -3.689079	 0.827846
H	 1.215083	 -2.815079	 -0.491951

	symmetry c1
}
set optking {
	frozen_dihedral = ("
		8 6 3 2
	")
}

ee = optimize('scf')
oeprop('DIPOLE', 'QUADRUPOLE', 'MULLIKEN_CHARGES')
f=open( 'psi4out.xyz', 'w' )
f.write( "15  " )
f.write( str(ee) + "\n" )
f.write( MOL.save_string_xyz() )
f.close()
--------------------------------------------------------------------------

    Molecular point group: c1
  Charge       = 0
  Multiplicity = 1
  Basis Set: CC-PVTZ
  Basis Set:
  @DF-RHF Final Energy:  -232.20470251969905
    Total Energy =                       -232.2047025196991399
    Molecular point group: c1
  Basis Set: CC-PVTZ
  Basis Set:
  Basis Set: CC-PVTZ
  Basis Set:
  @DF-RHF Final Energy:  -232.20551760998933
    Total Energy =                       -232.2055176099893856
  Basis Set: CC-PVTZ
  Basis Set:
  Basis Set: CC-PVTZ
  Basis Set:
  @DF-RHF Final Energy:  -232.21356724159509
    Total Energy =                       -232.2135672415951149
  Basis Set: CC-PVTZ
  Basis Set:
  Basis Set: CC-PVTZ
  Basis Set:
  @DF-RHF Final Energy:  -232.21715279298095
    Total Energy =                       -232.2171527929809827
  Basis Set: CC-PVTZ
  Basis Set:
  @DF-RHF Final Energy:  -232.21762081530895
    Total Energy =                       -232.2176208153088623
  Basis Set: CC-PVTZ
  Basis Set:
  @DF-RHF Final Energy:  -232.21833052951223
    Total Energy =                       -232.2183305295125137
  Basis Set: CC-PVTZ
  Basis Set:
  Basis Set: CC-PVTZ
  Basis Set:
  @DF-RHF Final Energy:  -232.21846490079864
    Total Energy =                       -232.2184649007986081
  Basis Set: CC-PVTZ
  Basis Set:
  Basis Set: CC-PVTZ
  Basis Set:
  @DF-RHF Final Energy:  -232.21847436193249
    Total Energy =                       -232.2184743619325786
  Basis Set: CC-PVTZ
  Basis Set:
  Charge       = 0
  Multiplicity = 1
  Basis Set: CC-PVTZ
  Basis Set:

    Orbital Energies (a.u.)
    -----------------------

    Doubly Occupied:

       1A    -20.540995     2A    -11.264291     3A    -11.259975
       4A    -11.220153     5A    -11.215069     6A     -1.370607
       7A     -1.060183     8A     -0.962744     9A     -0.886346
      10A     -0.797044    11A     -0.673843    12A     -0.660910
      13A     -0.627377    14A     -0.607092    15A     -0.557920
      16A     -0.543990    17A     -0.523029    18A     -0.500281
      19A     -0.492185    20A     -0.443877    21A     -0.405667

  @DF-RHF Final Energy:  -232.21847489256308

   => Energetics <=

    Nuclear Repulsion Energy =            192.3175441823604217
    One-Electron Energy =                -695.8448795283609343
    Two-Electron Energy =                 271.3088604534374326
    DFT Exchange-Correlation Energy =       0.0000000000000000
    Empirical Dispersion Energy =           0.0000000000000000
    PCM Polarization Energy =               0.0000000000000000
    EFP Energy =                            0.0000000000000000
    Total Energy =                       -232.2184748925631084
    Molecular point group: c1
  Basis Set: CC-PVTZ
  Basis Set:

  -Total Gradient:
     Atom            X                  Y                   Z
    ------   -----------------  -----------------  -----------------
       1        0.000025862861     0.000004504868     0.000000868615
       2       -0.000050006701    -0.000028829314     0.003648381763
       3       -0.000265219296    -0.000418951791    -0.004799582064
       4       -0.000014537605     0.000004296601    -0.000001108076
       5       -0.000009234779     0.000005571587    -0.000001062245
       6        0.002080375451     0.002506353508    -0.002048176434
       7        0.000013925352    -0.000016072667    -0.000002646040
       8       -0.001770119075    -0.002057767305     0.003197989177
       9       -0.000010937749     0.000015589268    -0.000006252639
      10       -0.000013234233    -0.000009697593     0.000003487063
      11       -0.000003645808    -0.000002112528    -0.000001515821
      12        0.000007192625     0.000003409495     0.000006468665
      13        0.000000675080    -0.000000966904    -0.000000080863
      14        0.000008812883    -0.000004858696     0.000001034789
      15        0.000000090993    -0.000000468527     0.000002194110

  **** Optimization is complete! (in 9 steps) ****
    Final optimized geometry and variables:
    Molecular point group: c1

    Geometry (in Angstrom), charge = 0, multiplicity = 1:

    H           -2.473946304452     1.729621607953    -0.247799911377
    C           -1.823951534973     0.866876068142    -0.215780609613
    O           -0.521255774477     1.351521268344    -0.198423745441
    H           -2.027620973854     0.256959258556    -1.092653426580
    H           -2.066683754513     0.290582531907     0.670204235298
    C            0.566560772009     0.464770044799    -0.177947908658
    C            0.294353081229    -0.957979664890     0.297648104159
    H            1.291769664092     0.898380873633     0.500878530459
    H            1.008579828774     0.430999415420    -1.170810696253
    C            1.581776341479    -1.777095102401     0.313265803126
    H           -0.130194416941    -0.935971193197     1.295707093798
    H           -0.429937167177    -1.445416814626    -0.344799502798
    H            2.319711513357    -1.338316898944     0.975986553073
    H            1.392760363845    -2.788027540287     0.653000016323
    H            2.021053432262    -1.838049986719    -0.676573278814

  Mulliken Charges: (a.u.)
   Center  Symbol    Alpha    Beta     Spin     Total
       1     H     0.44241  0.44241  0.00000  0.11518
       2     C     3.03631  3.03631  0.00000 -0.07263
       3     O     4.18074  4.18074  0.00000 -0.36149
       4     H     0.47224  0.47224  0.00000  0.05551
       5     H     0.46912  0.46912  0.00000  0.06176
       6     C     2.95830  2.95830  0.00000  0.08340
       7     C     3.10452  3.10452  0.00000 -0.20905
       8     H     0.46108  0.46108  0.00000  0.07785
       9     H     0.46798  0.46798  0.00000  0.06405
      10     C     3.15261  3.15261  0.00000 -0.30522
      11     H     0.44998  0.44998  0.00000  0.10004
      12     H     0.45074  0.45074  0.00000  0.09853
      13     H     0.45350  0.45350  0.00000  0.09300
      14     H     0.44631  0.44631  0.00000  0.10737
      15     H     0.45415  0.45415  0.00000  0.09169

   Total alpha = 21.00000, Total beta = 21.00000, Total charge = -0.00000
