  ==> Input File <==

--------------------------------------------------------------------------
set {
	reference rhf
	basis cc-pvtz
}

set_num_threads( 4 )
memory 2 gb

molecule MOL {
0 1

O	 -1.510770	 1.240811	 -0.054933
C	 -1.081510	 0.147522	 0.122720
C	 0.327029	 -0.064006	 0.641890
C	 -1.903028	 -1.084121	 -0.174656
C	 1.349460	 -0.017068	 -0.500215
H	 0.399029	 -1.014606	 1.159950
H	 0.538021	 0.726928	 1.350471
C	 0.791963	 0.647877	 -1.753527
H	 2.238201	 0.516049	 -0.175003
H	 1.660376	 -1.029826	 -0.728209
H	 1.529401	 0.657758	 -2.547325
H	 0.501228	 1.674519	 -1.558001
H	 -0.081860	 0.119678	 -2.118643
H	 -1.341891	 -1.779207	 -0.789259
H	 -2.820449	 -0.808163	 -0.671328
H	 -2.133314	 -1.593056	 0.755831

	symmetry c1
}
set optking {
	frozen_dihedral = ("
		9 5 3 2
	")
}

ee = optimize('scf')
oeprop('DIPOLE', 'QUADRUPOLE', 'MULLIKEN_CHARGES')
f=open( 'psi4out.xyz', 'w' )
f.write( "16  " )
f.write( str(ee) + "\n" )
f.write( MOL.save_string_xyz() )
f.close()
--------------------------------------------------------------------------

    Molecular point group: c1
  Charge       = 0
  Multiplicity = 1
  Basis Set: CC-PVTZ
  Basis Set:
  @DF-RHF Final Energy:  -270.11889443714460
    Total Energy =                       -270.1188944371447747
    Molecular point group: c1
  Basis Set: CC-PVTZ
  Basis Set:
  Basis Set: CC-PVTZ
  Basis Set:
  @DF-RHF Final Energy:  -270.12106310885804
    Total Energy =                       -270.1210631088581522
  Basis Set: CC-PVTZ
  Basis Set:
  Basis Set: CC-PVTZ
  Basis Set:
  @DF-RHF Final Energy:  -270.12118943935923
    Total Energy =                       -270.1211894393595117
  Basis Set: CC-PVTZ
  Basis Set:
  Basis Set: CC-PVTZ
  Basis Set:
  @DF-RHF Final Energy:  -270.12216998642054
    Total Energy =                       -270.1221699864202606
  Basis Set: CC-PVTZ
  Basis Set:
  @DF-RHF Final Energy:  -270.12235709366973
    Total Energy =                       -270.1223570936700185
  @DF-RHF Final Energy:  -270.12241941288352
    Total Energy =                       -270.1224194128835165
  Basis Set: CC-PVTZ
  Basis Set:
  @DF-RHF Final Energy:  -270.12247301727405
    Total Energy =                       -270.1224730172741033
  Basis Set: CC-PVTZ
  Basis Set:
  Basis Set: CC-PVTZ
  Basis Set:
  @DF-RHF Final Energy:  -270.12248204495194
    Total Energy =                       -270.1224820449518802
  Basis Set: CC-PVTZ
  Basis Set:
  Basis Set: CC-PVTZ
  Basis Set:
  @DF-RHF Final Energy:  -270.12248471579380
    Total Energy =                       -270.1224847157942577
  Basis Set: CC-PVTZ
  Basis Set:
  Charge       = 0
  Multiplicity = 1
  Basis Set: CC-PVTZ
  Basis Set:

    Orbital Energies (a.u.)
    -----------------------

    Doubly Occupied:

       1A    -20.537476     2A    -11.319775     3A    -11.233052
       4A    -11.228321     5A    -11.226866     6A    -11.214146
       7A     -1.397831     8A     -1.079783     9A     -1.010545
      10A     -0.951888    11A     -0.835119    12A     -0.726931
      13A     -0.656187    14A     -0.647120    15A     -0.624690
      16A     -0.611079    17A     -0.576639    18A     -0.560040
      19A     -0.539399    20A     -0.507517    21A     -0.506632
      22A     -0.478425    23A     -0.476279    24A     -0.400016

  @DF-RHF Final Energy:  -270.12248540864562

   => Energetics <=

    Nuclear Repulsion Energy =            243.6407942441658179
    One-Electron Energy =                -848.8350468341745909
    Two-Electron Energy =                 335.0717671813633842
    DFT Exchange-Correlation Energy =       0.0000000000000000
    Empirical Dispersion Energy =           0.0000000000000000
    PCM Polarization Energy =               0.0000000000000000
    EFP Energy =                            0.0000000000000000
    Total Energy =                       -270.1224854086453888
    Molecular point group: c1
  Basis Set: CC-PVTZ
  Basis Set:

  -Total Gradient:
     Atom            X                  Y                   Z
    ------   -----------------  -----------------  -----------------
       1       -0.000015384542     0.000034851231     0.000012603191
       2        0.000442980987     0.004002527882     0.000278866396
       3       -0.001054306378    -0.004737389512    -0.000805969799
       4       -0.000000955175     0.000024925472     0.000027513004
       5        0.002798198075    -0.003918732997     0.002444563884
       6       -0.000001795145     0.000007494155    -0.000011489476
       7        0.000009743699    -0.000002899901    -0.000006404288
       8       -0.000015562411    -0.000005779366     0.000013493552
       9       -0.002181395181     0.004608515940    -0.001927997589
      10       -0.000004529900    -0.000000950915     0.000008271399
      11        0.000011830479    -0.000002171514    -0.000006485213
      12        0.000002589662     0.000002914316    -0.000002296331
      13        0.000002049978     0.000006837137    -0.000008328530
      14       -0.000002123255    -0.000003705988    -0.000005974028
      15       -0.000000330968    -0.000008964385    -0.000008375483
      16        0.000008990071    -0.000007471558    -0.000001990689

  **** Optimization is complete! (in 10 steps) ****
    Final optimized geometry and variables:
    Molecular point group: c1

    Geometry (in Angstrom), charge = 0, multiplicity = 1:

    O           -1.274928604539     1.079477452303     0.507719459508
    C           -0.759072724295     0.010102540677     0.482953842291
    C            0.686975003341    -0.177084011319     0.899471264455
    C           -1.521322762333    -1.223488214686     0.057675981810
    C            1.699924936357    -0.187852703088    -0.277036977319
    H            0.784284101894    -1.092576618284     1.471615086383
    H            0.912755863871     0.650304789267     1.557734053374
    C            1.217114327592     0.472200921156    -1.569937327301
    H            2.574324506190     0.363502931176     0.045114968708
    H            2.013229568310    -1.203063231419    -0.487470611806
    H            2.017534446257     0.479799359898    -2.300264955017
    H            0.908794626675     1.495722207305    -1.397992974498
    H            0.378674337773    -0.052599441474    -2.013296171782
    H           -0.931081072601    -1.836781593722    -0.613108168407
    H           -2.451174519751    -0.943283987448    -0.413395346873
    H           -1.733401775551    -1.822716126806     0.937757534257

  Mulliken Charges: (a.u.)
   Center  Symbol    Alpha    Beta     Spin     Total
       1     O     4.17870  4.17870  0.00000 -0.35740
       2     C     2.85409  2.85409  0.00000  0.29182
       3     C     3.10514  3.10514  0.00000 -0.21028
       4     C     3.15593  3.15593  0.00000 -0.31186
       5     C     3.09996  3.09996  0.00000 -0.19992
       6     H     0.44518  0.44518  0.00000  0.10965
       7     H     0.43856  0.43856  0.00000  0.12288
       8     C     3.15115  3.15115  0.00000 -0.30229
       9     H     0.44474  0.44474  0.00000  0.11052
      10     H     0.44783  0.44783  0.00000  0.10433
      11     H     0.44713  0.44713  0.00000  0.10573
      12     H     0.44197  0.44197  0.00000  0.11605
      13     H     0.45595  0.45595  0.00000  0.08811
      14     H     0.45143  0.45143  0.00000  0.09715
      15     H     0.43610  0.43610  0.00000  0.12779
      16     H     0.44613  0.44613  0.00000  0.10774

   Total alpha = 24.00000, Total beta = 24.00000, Total charge = -0.00000
