                              Psi4 1.0.54 Driver

  ==> Input File <==

--------------------------------------------------------------------------
set {
	reference rhf
	basis cc-pvtz
}

set_num_threads( 4 )
memory 2 gb

molecule MOL {
0 1

H	 2.828711	 -0.346904	 0.001083
C	 1.876752	 0.015931	 -0.363450
C	 0.776285	 -0.474665	 0.563092
H	 1.728113	 -0.357244	 -1.367440
H	 1.906171	 1.096574	 -0.386153
N	 -0.540022	 0.017605	 0.071630
H	 0.707111	 -1.548969	 0.573035
H	 0.886169	 -0.084184	 1.560432
O	 -0.913384	 1.065943	 0.478795
O	 -1.138194	 -0.685591	 -0.671406

	symmetry c1
}
set optking {
	frozen_dihedral = ("
		9 6 3 2
	")
}

ee,wfn = optimize('scf', return_wfn=True)
oeprop( wfn, 'DIPOLE', 'QUADRUPOLE', 'MULLIKEN_CHARGES')
f=open( 'psi4out.xyz', 'w' )
f.write( "10  " )
f.write( str(ee) + "\n" )
f.write( MOL.save_string_xyz() )
f.close()
--------------------------------------------------------------------------

    Molecular point group: c1
  Charge       = 0
  Multiplicity = 1
  Basis Set: CC-PVTZ
  Basis Set:
  @DF-RHF Final Energy:  -282.81314311844471
    Total Energy =                       -282.8131431184447138
    Molecular point group: c1
  Basis Set: CC-PVTZ
  Basis Set:
  Basis Set: CC-PVTZ
  Basis Set:
  @DF-RHF Final Energy:  -282.80787971968448
    Total Energy =                       -282.8078797196845926
  Basis Set: CC-PVTZ
  Basis Set:
  Basis Set: CC-PVTZ
  Basis Set:
  @DF-RHF Final Energy:  -282.81292556405964
    Total Energy =                       -282.8129255640595829
  Basis Set: CC-PVTZ
  Basis Set:
  Basis Set: CC-PVTZ
  Basis Set:
  @DF-RHF Final Energy:  -282.81332156945405
    Total Energy =                       -282.8133215694541036
  Basis Set: CC-PVTZ
  Basis Set:
  Basis Set: CC-PVTZ
  Basis Set:
  @DF-RHF Final Energy:  -282.81335161876905
    Total Energy =                       -282.8133516187691612
  Basis Set: CC-PVTZ
  Basis Set:
  Basis Set: CC-PVTZ
  Basis Set:
  @DF-RHF Final Energy:  -282.81335493700658
    Total Energy =                       -282.8133549370065225
  Basis Set: CC-PVTZ
  Basis Set:
  Charge       = 0
  Multiplicity = 1
  Basis Set: CC-PVTZ
  Basis Set:

    Orbital Energies (a.u.)
    -----------------------

    Doubly Occupied:

       1A    -20.591931     2A    -20.591754     3A    -15.838350
       4A    -11.301794     5A    -11.251034     6A     -1.637598
       7A     -1.422053     8A     -1.126652     9A     -0.966826
      10A     -0.839841    11A     -0.763473    12A     -0.739520
      13A     -0.730099    14A     -0.660073    15A     -0.590571
      16A     -0.559912    17A     -0.550280    18A     -0.488398
      19A     -0.479329    20A     -0.454815

  @DF-RHF Final Energy:  -282.81335519331429

   => Energetics <=

    Nuclear Repulsion Energy =            186.7887902015198165
    One-Electron Energy =                -756.0356840750555421
    Two-Electron Energy =                 286.4335386802216590
    DFT Exchange-Correlation Energy =       0.0000000000000000
    Empirical Dispersion Energy =           0.0000000000000000
    PCM Polarization Energy =               0.0000000000000000
    EFP Energy =                            0.0000000000000000
    Total Energy =                       -282.8133551933141234
    Molecular point group: c1
  Basis Set: CC-PVTZ
  Basis Set:

  -Total Gradient:
     Atom            X                  Y                   Z
    ------   -----------------  -----------------  -----------------
       1       -0.000003240015     0.000000184213     0.000001696731
       2       -0.000000904290     0.000010265952     0.000000324823
       3       -0.000001861692    -0.000020906194    -0.000014745441
       4       -0.000003113949    -0.000000934776     0.000004476343
       5        0.000005612650     0.000004777133    -0.000005006358
       6       -0.000030041865     0.000027330712     0.000001607575
       7       -0.000003830001    -0.000004203167     0.000008186034
       8       -0.000006635557     0.000007231744    -0.000006847178
       9        0.000023054342    -0.000001494480     0.000016995032
      10        0.000020960372    -0.000022251136    -0.000006687561

  **** Optimization is complete! (in 7 steps) ****
    Final optimized geometry and variables:
    Molecular point group: c1

    Geometry (in Angstrom), charge = 0, multiplicity = 1:

    H            2.829479712714    -0.340753221904    -0.010637780093
    C            1.874937842313     0.017765696723    -0.372694783998
    C            0.779891538705    -0.470789602762     0.561323483045
    H            1.722510905309    -0.360663942202    -1.374045781000
    H            1.901792423931     1.098443813250    -0.400884427307
    N           -0.539726995635     0.016989561423     0.074203720327
    H            0.712772233816    -1.545286012439     0.575474770892
    H            0.893661703164    -0.076528111337     1.556616436320
    O           -0.912937859142     1.066412400852     0.478717961760
    O           -1.114169175589    -0.664237558694    -0.707031737526

  Mulliken Charges: (a.u.)
   Center  Symbol    Alpha    Beta     Spin     Total
       1     H     0.44788  0.44788  0.00000  0.10425
       2     C     3.14070  3.14070  0.00000 -0.28140
       3     C     3.03738  3.03738  0.00000 -0.07476
       4     H     0.44069  0.44069  0.00000  0.11862
       5     H     0.44094  0.44094  0.00000  0.11812
       6     N     3.27629  3.27629  0.00000  0.44742
       7     H     0.43488  0.43488  0.00000  0.13024
       8     H     0.43475  0.43475  0.00000  0.13050
       9     O     4.17311  4.17311  0.00000 -0.34621
      10     O     4.17339  4.17339  0.00000 -0.34678

   Total alpha = 20.00000, Total beta = 20.00000, Total charge =  0.00000

*** Psi4 exiting successfully. Buy a developer a beer!
