  ==> Input File <==

--------------------------------------------------------------------------
set {
	reference rhf
	basis 6-31G*
}

set_num_threads( 1 )
memory 2 gb

molecule MOL {
0 1

O	 -0.682937	 1.318834	 -0.186099
C	 -0.860635	 0.152188	 -0.042321
C	 -2.173363	 -0.477127	 0.338347
O	 0.083258	 -0.765189	 -0.202595
H	 -2.477673	 -1.180929	 -0.427595
H	 -2.923125	 0.290956	 0.455536
H	 -2.058825	 -1.029004	 1.264191
C	 0.003457	 -1.962133	 0.567959
C	 -0.914435	 -2.981484	 -0.080921
H	 -0.323934	 -1.719526	 1.567507
H	 1.019835	 -2.326601	 0.608439
H	 -0.895336	 -3.906691	 0.486844
H	 -1.934744	 -2.620069	 -0.107725
H	 -0.590559	 -3.196380	 -1.093511

	symmetry c1
}
set optking {
	frozen_dihedral = ("
		10 8 4 2
	")
}

ee = energy('scf')
oeprop('DIPOLE', 'QUADRUPOLE', 'MULLIKEN_CHARGES')
f=open( 'psi4out.xyz', 'w' )
f.write( "14  " )
f.write( str(ee) + "\n" )
f.write( MOL.save_string_xyz() )
f.close()
--------------------------------------------------------------------------

    Molecular point group: c1

    Geometry (in Angstrom), charge = 0, multiplicity = 1:

       Center              X                  Y                   Z               Mass
    ------------   -----------------  -----------------  -----------------  -----------------
           O          0.080194474514     2.115838386021    -0.253727734065    15.994914619560
           C         -0.097503525486     0.949192386021    -0.109949734065    12.000000000000
           C         -1.410231525486     0.319877386021     0.270718265935    12.000000000000
           O          0.846389474514     0.031815386021    -0.270223734065    15.994914619560
           H         -1.714541525486    -0.383924613979    -0.495223734065     1.007825032070
           H         -2.159993525486     1.087960386021     0.387907265935     1.007825032070
           H         -1.295693525486    -0.231999613979     1.196562265935     1.007825032070
           C          0.766588474514    -1.165128613979     0.500330265935    12.000000000000
           C         -0.151303525486    -2.184479613979    -0.148549734065    12.000000000000
           H          0.439197474514    -0.922521613979     1.499878265935     1.007825032070
           H          1.782966474514    -1.529596613979     0.540810265935     1.007825032070
           H         -0.132204525486    -3.109686613979     0.419215265935     1.007825032070
           H         -1.171612525486    -1.823064613979    -0.175353734065     1.007825032070
           H          0.172572474514    -2.399375613979    -1.161139734065     1.007825032070

  Charge       = 0
  Multiplicity = 1
  Basis Set: 6-31G*
  Basis Set:

    Orbital Energies (a.u.)
    -----------------------

    Doubly Occupied:

       1A    -20.600947     2A    -20.546393     3A    -11.377745
       4A    -11.304391     5A    -11.236602     6A    -11.231880
       7A     -1.465727     8A     -1.369149     9A     -1.055424
      10A     -1.026148    11A     -0.897348    12A     -0.780065
      13A     -0.708401    14A     -0.693830    15A     -0.660370
      16A     -0.632164    17A     -0.596919    18A     -0.590438
      19A     -0.563748    20A     -0.536962    21A     -0.526154
      22A     -0.491771    23A     -0.450544    24A     -0.435709

  @DF-RHF Final Energy:  -305.83521361715282

   => Energetics <=

    Nuclear Repulsion Energy =            252.8700465440059872
    One-Electron Energy =                -917.8528513377093532
    Two-Electron Energy =                 359.1475911765508044
    DFT Exchange-Correlation Energy =       0.0000000000000000
    Empirical Dispersion Energy =           0.0000000000000000
    PCM Polarization Energy =               0.0000000000000000
    EFP Energy =                            0.0000000000000000
    Total Energy =                       -305.8352136171525899

  Mulliken Charges: (a.u.)
   Center  Symbol    Alpha    Beta     Spin     Total
       1     O     4.26679  4.26679  0.00000 -0.53359
       2     C     2.60724  2.60724  0.00000  0.78551
       3     C     3.32109  3.32109  0.00000 -0.64219
       4     O     4.30090  4.30090  0.00000 -0.60181
       5     H     0.39502  0.39502  0.00000  0.20997
       6     H     0.39023  0.39023  0.00000  0.21955
       7     H     0.40365  0.40365  0.00000  0.19271
       8     C     3.01954  3.01954  0.00000 -0.03907
       9     C     3.25467  3.25467  0.00000 -0.50934
      10     H     0.41249  0.41249  0.00000  0.17502
      11     H     0.39608  0.39608  0.00000  0.20784
      12     H     0.41474  0.41474  0.00000  0.17052
      13     H     0.41205  0.41205  0.00000  0.17591
      14     H     0.40551  0.40551  0.00000  0.18897

   Total alpha = 24.00000, Total beta = 24.00000, Total charge = -0.00000
