  ==> Input File <==

--------------------------------------------------------------------------
set {
	reference rhf
	basis cc-pvtz
}

set_num_threads( 4 )
memory 2 gb

molecule MOL {
0 1

H	 2.327762	 0.716994	 1.178397
O	 1.467968	 0.327742	 1.232929
C	 1.050374	 0.054877	 0.000135
C	 -0.318151	 -0.570512	 0.000144
O	 1.707574	 0.291615	 -0.953810
C	 -1.454884	 0.441630	 -0.000560
H	 -0.371613	 -1.223646	 -0.864985
H	 -0.371920	 -1.222758	 0.865929
C	 -2.822577	 -0.232186	 0.000063
H	 -1.359760	 1.084704	 -0.867077
H	 -1.359641	 1.085996	 0.864983
H	 -2.954352	 -0.858985	 -0.875745
H	 -3.615886	 0.505352	 0.000019
H	 -2.953878	 -0.858359	 0.876394

	symmetry c1
}
set optking {
	frozen_dihedral = ("
		2 3 4 7
	")
}

ee = optimize('scf')
oeprop('DIPOLE', 'QUADRUPOLE', 'MULLIKEN_CHARGES')
f=open( 'psi4out.xyz', 'w' )
f.write( "14  " )
f.write( str(ee) + "\n" )
f.write( MOL.save_string_xyz() )
f.close()
--------------------------------------------------------------------------

    Molecular point group: c1
  Charge       = 0
  Multiplicity = 1
  Basis Set: CC-PVTZ
  Basis Set:
  @DF-RHF Final Energy:  -305.99896362365632
    Total Energy =                       -305.9989636236565502
    Molecular point group: c1
  Basis Set: CC-PVTZ
  Basis Set:
  Basis Set: CC-PVTZ
  Basis Set:
  @DF-RHF Final Energy:  -305.99954056684709
    Total Energy =                       -305.9995405668470880
  Basis Set: CC-PVTZ
  Basis Set:
  Basis Set: CC-PVTZ
  Basis Set:
  @DF-RHF Final Energy:  -305.99937965850967
    Total Energy =                       -305.9993796585097243
  Basis Set: CC-PVTZ
  Basis Set:
  Basis Set: CC-PVTZ
  Basis Set:
  @DF-RHF Final Energy:  -305.99961825421900
    Total Energy =                       -305.9996182542189445
  Basis Set: CC-PVTZ
  Basis Set:
  Basis Set: CC-PVTZ
  Basis Set:
  @DF-RHF Final Energy:  -305.99963724305326
    Total Energy =                       -305.9996372430532574
  Basis Set: CC-PVTZ
  Basis Set:
  Charge       = 0
  Multiplicity = 1
  Basis Set: CC-PVTZ
  Basis Set:

    Orbital Energies (a.u.)
    -----------------------

    Doubly Occupied:

       1A    -20.605502     2A    -20.538661     3A    -11.372715
       4A    -11.237948     5A    -11.234261     6A    -11.219385
       7A     -1.477518     8A     -1.368167     9A     -1.087692
      10A     -0.980922    11A     -0.853765    12A     -0.810178
      13A     -0.706304    14A     -0.688858    15A     -0.643133
      16A     -0.639809    17A     -0.596720    18A     -0.569451
      19A     -0.553989    20A     -0.518736    21A     -0.500567
      22A     -0.489773    23A     -0.475425    24A     -0.441768

  @DF-RHF Final Energy:  -305.99963751351379

   => Energetics <=

    Nuclear Repulsion Energy =            240.8504671424111905
    One-Electron Energy =                -894.4777197098469514
    Two-Electron Energy =                 347.6276150539222840
    DFT Exchange-Correlation Energy =       0.0000000000000000
    Empirical Dispersion Energy =           0.0000000000000000
    PCM Polarization Energy =               0.0000000000000000
    EFP Energy =                            0.0000000000000000
    Total Energy =                       -305.9996375135135054
    Molecular point group: c1
  Basis Set: CC-PVTZ
  Basis Set:

  -Total Gradient:
     Atom            X                  Y                   Z
    ------   -----------------  -----------------  -----------------
       1       -0.000039842256    -0.000005628219    -0.000035506040
       2        0.000117234435    -0.000347958068     0.000105897271
       3       -0.000094461313     0.000375319244     0.000001159600
       4       -0.000153552206     0.000337850799    -0.000257029867
       5       -0.000029734888    -0.000021722664    -0.000050872977
       6       -0.000001502805    -0.000024153439     0.000016787771
       7        0.000174529775    -0.000325721108     0.000207251904
       8        0.000008436312    -0.000002134405     0.000010549228
       9        0.000014196326     0.000002361127     0.000000241124
      10       -0.000001810239    -0.000002770808    -0.000007572621
      11       -0.000012302063     0.000005545103     0.000009950149
      12        0.000007552125     0.000001258182     0.000000350753
      13        0.000006411517     0.000004509830    -0.000002089738
      14        0.000004845282     0.000003244428     0.000000883441

  **** Optimization is complete! (in 6 steps) ****
    Final optimized geometry and variables:
    Molecular point group: c1

    Geometry (in Angstrom), charge = 0, multiplicity = 1:

    H            2.356156632040     0.689177693200     1.089649488178
    O            1.526580984761     0.241923680126     1.166496733793
    C            1.070696998997    -0.009901925045    -0.056816116311
    C           -0.277846947283    -0.675727739302    -0.048157045386
    O            1.673449203546     0.293508267509    -1.028479643985
    C           -1.405193979399     0.363950046513    -0.059717937878
    H           -0.336240187778    -1.299239813556    -0.929522705752
    H           -0.360627694017    -1.302893094703     0.829883426444
    C           -2.783648991079    -0.285847973050    -0.073024927098
    H           -1.289761456564     0.998147397156    -0.931353612456
    H           -1.311438738137     1.003361915367     0.811407120352
    H           -2.912054870986    -0.912211645278    -0.948929399987
    H           -3.563897687939     0.465545266287    -0.085264183751
    H           -2.933431394984    -0.905854335554     0.804142500161

  Mulliken Charges: (a.u.)
   Center  Symbol    Alpha    Beta     Spin     Total
       1     H     0.38020  0.38020  0.00000  0.23960
       2     O     4.16338  4.16338  0.00000 -0.32676
       3     C     2.80435  2.80435  0.00000  0.39130
       4     C     3.08718  3.08718  0.00000 -0.17436
       5     O     4.19814  4.19814  0.00000 -0.39628
       6     C     3.09395  3.09395  0.00000 -0.18789
       7     H     0.43842  0.43842  0.00000  0.12317
       8     H     0.44271  0.44271  0.00000  0.11458
       9     C     3.14987  3.14987  0.00000 -0.29974
      10     H     0.44306  0.44306  0.00000  0.11388
      11     H     0.44662  0.44662  0.00000  0.10676
      12     H     0.45269  0.45269  0.00000  0.09463
      13     H     0.44566  0.44566  0.00000  0.10867
      14     H     0.45377  0.45377  0.00000  0.09246

   Total alpha = 24.00000, Total beta = 24.00000, Total charge =  0.00000
