  ==> Input File <==

--------------------------------------------------------------------------
set {
	reference rhf
	basis 6-31G*
}

set_num_threads( 4 )
memory 2 gb

molecule MOL {
0 1

H	 2.171896	 -1.330634	 0.005549
N	 2.434251	 -0.367735	 -0.081097
C	 1.267428	 0.496480	 0.024474
H	 2.866899	 -0.265354	 -0.979567
C	 -0.016086	 -0.325158	 -0.029487
H	 1.288818	 1.183521	 -0.816092
H	 1.267576	 1.109062	 0.929528
C	 -1.282277	 0.529072	 0.046735
H	 -0.012495	 -0.908639	 -0.945788
H	 -0.015903	 -1.041248	 0.791956
C	 -2.563920	 -0.301775	 -0.006060
H	 -1.284084	 1.244622	 -0.773004
H	 -1.271387	 1.115393	 0.963286
H	 -2.621848	 -0.873522	 -0.927727
H	 -3.445135	 0.329952	 0.047812
H	 -2.609542	 -1.004582	 0.821105

	symmetry c1
}
set optking {
	frozen_dihedral = ("
		1 2 3 6
	")
}

ee = optimize('scf')
oeprop('DIPOLE', 'QUADRUPOLE', 'MULLIKEN_CHARGES')
f=open( 'psi4out.xyz', 'w' )
f.write( "16  " )
f.write( str(ee) + "\n" )
f.write( MOL.save_string_xyz() )
f.close()
--------------------------------------------------------------------------

    Molecular point group: c1
  Charge       = 0
  Multiplicity = 1
  Basis Set: 6-31G*
  Basis Set:
  @DF-RHF Final Energy:  -212.31166519551525
    Total Energy =                       -212.3116651955152747
    Molecular point group: c1
  Basis Set: 6-31G*
  Basis Set:
  Basis Set: 6-31G*
  Basis Set:
  @DF-RHF Final Energy:  -212.31275108811883
    Total Energy =                       -212.3127510881190005
  Basis Set: 6-31G*
  Basis Set:
  Basis Set: 6-31G*
  Basis Set:
  @DF-RHF Final Energy:  -212.31292863082021
    Total Energy =                       -212.3129286308202381
  Basis Set: 6-31G*
  Basis Set:
  Basis Set: 6-31G*
  Basis Set:
  @DF-RHF Final Energy:  -212.31293056255996
    Total Energy =                       -212.3129305625598704
  Basis Set: 6-31G*
  Basis Set:
  Charge       = 0
  Multiplicity = 1
  Basis Set: 6-31G*
  Basis Set:

    Orbital Energies (a.u.)
    -----------------------

    Doubly Occupied:

       1A    -15.529794     2A    -11.239747     3A    -11.218810
       4A    -11.216432     5A    -11.211269     6A     -1.173960
       7A     -1.062894     8A     -0.960649     9A     -0.847611
      10A     -0.798489    11A     -0.667700    12A     -0.633844
      13A     -0.596670    14A     -0.584966    15A     -0.564662
      16A     -0.520846    17A     -0.511248    18A     -0.476234
      19A     -0.473239    20A     -0.465688    21A     -0.374631

  @DF-RHF Final Energy:  -212.31293095337804

   => Energetics <=

    Nuclear Repulsion Energy =            186.1170621434907275
    One-Electron Energy =                -654.6012196504145777
    Two-Electron Energy =                 256.1712265535457504
    DFT Exchange-Correlation Energy =       0.0000000000000000
    Empirical Dispersion Energy =           0.0000000000000000
    PCM Polarization Energy =               0.0000000000000000
    EFP Energy =                            0.0000000000000000
    Total Energy =                       -212.3129309533780997
    Molecular point group: c1
  Basis Set: 6-31G*
  Basis Set:

  -Total Gradient:
     Atom            X                  Y                   Z
    ------   -----------------  -----------------  -----------------
       1       -0.000145615235    -0.000121392190    -0.001849006464
       2       -0.000045438847    -0.000149055516     0.002070944568
       3        0.001017023768     0.001367969644     0.000723866528
       4       -0.000006476836     0.000006578646     0.000004388598
       5        0.000070293708     0.000015824936    -0.000008797170
       6       -0.000817102603    -0.001147250936    -0.000967502442
       7       -0.000035216331     0.000015689404     0.000010866497
       8        0.000016061741    -0.000010236206     0.000015577992
       9        0.000014836196     0.000013664345     0.000004104783
      10       -0.000001193089    -0.000000389806    -0.000018907896
      11       -0.000042664614     0.000017287313     0.000012910398
      12        0.000002024550    -0.000010666268     0.000004454445
      13       -0.000008932539     0.000006256791    -0.000004447976
      14        0.000008133892     0.000005249590     0.000005148215
      15       -0.000024256096    -0.000012380052    -0.000002474418
      16       -0.000001477659     0.000002850305    -0.000001125659

  **** Optimization is complete! (in 5 steps) ****
    Final optimized geometry and variables:
    Molecular point group: c1

    Geometry (in Angstrom), charge = 0, multiplicity = 1:

    H            2.260274073479    -1.309245582251     0.055982740312
    N            2.481074997949    -0.336371874826    -0.026053699679
    C            1.272472984813     0.486683557857     0.016902106258
    H            2.962376471527    -0.226242818884    -0.895420912807
    C           -0.021816802197    -0.325165081764    -0.032252588922
    H            1.279385068955     1.180878102507    -0.819094780511
    H            1.281234141523     1.087312160679     0.922301223818
    C           -1.280266108324     0.538117783559     0.067457412130
    H           -0.045950407370    -0.901627858695    -0.955948233936
    H           -0.016446239243    -1.047396651655     0.783401726232
    C           -2.570217139576    -0.280699524846     0.029403887912
    H           -1.287778686560     1.259866917896    -0.746666911563
    H           -1.247584785124     1.116631193129     0.987885145813
    H           -2.648952147461    -0.845822444566    -0.895011581789
    H           -3.444196704563     0.359128794041     0.101144098179
    H           -2.609590375111    -0.988021093589     0.852891376986

  Mulliken Charges: (a.u.)
   Center  Symbol    Alpha    Beta     Spin     Total
       1     H     0.33204  0.33204  0.00000  0.33593
       2     N     3.92977  3.92977  0.00000 -0.85954
       3     C     3.04787  3.04787  0.00000 -0.09573
       4     H     0.33220  0.33220  0.00000  0.33560
       5     C     3.16602  3.16602  0.00000 -0.33204
       6     H     0.42652  0.42652  0.00000  0.14697
       7     H     0.41991  0.41991  0.00000  0.16017
       8     C     3.15493  3.15493  0.00000 -0.30987
       9     H     0.42522  0.42522  0.00000  0.14956
      10     H     0.42236  0.42236  0.00000  0.15529
      11     C     3.23903  3.23903  0.00000 -0.47806
      12     H     0.42253  0.42253  0.00000  0.15495
      13     H     0.42039  0.42039  0.00000  0.15921
      14     H     0.42173  0.42173  0.00000  0.15655
      15     H     0.41849  0.41849  0.00000  0.16302
      16     H     0.42101  0.42101  0.00000  0.15799

   Total alpha = 21.00000, Total beta = 21.00000, Total charge = -0.00000
