                              Psi4 1.0.54 Driver

  ==> Input File <==

--------------------------------------------------------------------------
set {
	reference rhf
	basis cc-pvtz
}

set_num_threads( 4 )
memory 2 gb

molecule MOL {
0 1

H	 -3.941973	 0.934228	 -0.390224
C	 -3.240162	 0.342701	 0.161016
C	 -2.105997	 -0.000418	 -0.398703
H	 -3.485368	 0.047206	 1.162193
O	 -1.189946	 -0.765863	 0.237511
H	 -1.846458	 0.297311	 -1.398265
C	 0.026572	 -0.995256	 -0.379403
C	 1.057223	 0.049888	 -0.004615
H	 -0.054361	 -1.010670	 -1.459674
H	 0.397526	 -1.952058	 -0.044198
F	 0.783915	 1.178846	 -0.627379
F	 1.058506	 0.296906	 1.287858
F	 2.271253	 -0.311985	 -0.341718

	symmetry c1
}
set optking {
	frozen_dihedral = ("
		11 8 7 9
	")
}

ee,wfn = optimize('scf', return_wfn=True)
oeprop( wfn, 'DIPOLE', 'QUADRUPOLE', 'MULLIKEN_CHARGES')
f=open( 'psi4out.xyz', 'w' )
f.write( "13  " )
f.write( str(ee) + "\n" )
f.write( MOL.save_string_xyz() )
f.close()
--------------------------------------------------------------------------

    Molecular point group: c1
  Charge       = 0
  Multiplicity = 1
  Basis Set: CC-PVTZ
  Basis Set:
  @DF-RHF Final Energy:  -527.74077947552155
    Total Energy =                       -527.7407794755215491
    Molecular point group: c1
  Basis Set: CC-PVTZ
  Basis Set:
  Basis Set: CC-PVTZ
  Basis Set:
  @DF-RHF Final Energy:  -527.74134694109148
    Total Energy =                       -527.7413469410917060
  Basis Set: CC-PVTZ
  Basis Set:
  Basis Set: CC-PVTZ
  Basis Set:
  @DF-RHF Final Energy:  -527.74148995236169
    Total Energy =                       -527.7414899523618033
  Basis Set: CC-PVTZ
  Basis Set:
  Basis Set: CC-PVTZ
  Basis Set:
  @DF-RHF Final Energy:  -527.74150287688667
    Total Energy =                       -527.7415028768866705
  Basis Set: CC-PVTZ
  Basis Set:
  Basis Set: CC-PVTZ
  Basis Set:
  @DF-RHF Final Energy:  -527.74150503762746
    Total Energy =                       -527.7415050376273484
  Basis Set: CC-PVTZ
  Basis Set:
  Basis Set: CC-PVTZ
  Basis Set:
  @DF-RHF Final Energy:  -527.74150619122611
    Total Energy =                       -527.7415061912264491
  Basis Set: CC-PVTZ
  Basis Set:
  Basis Set: CC-PVTZ
  Basis Set:
  @DF-RHF Final Energy:  -527.74150725771665
    Total Energy =                       -527.7415072577167621
  Basis Set: CC-PVTZ
  Basis Set:
  Charge       = 0
  Multiplicity = 1
  Basis Set: CC-PVTZ
  Basis Set:

    Orbital Energies (a.u.)
    -----------------------

    Doubly Occupied:

       1A    -26.340603     2A    -26.340326     3A    -26.339049
       4A    -20.603616     5A    -11.497910     6A    -11.320210
       7A    -11.298513     8A    -11.214159     9A     -1.750377
      10A     -1.646449    11A     -1.645572    12A     -1.444194
      13A     -1.087583    14A     -1.020636    15A     -0.932225
      16A     -0.843920    17A     -0.838883    18A     -0.827145
      19A     -0.798896    20A     -0.727530    21A     -0.719381
      22A     -0.702834    23A     -0.681968    24A     -0.667861
      25A     -0.661956    26A     -0.650800    27A     -0.641483
      28A     -0.587897    29A     -0.566575    30A     -0.528153
      31A     -0.518315    32A     -0.356976

  @DF-RHF Final Energy:  -527.74150762738100

   => Energetics <=

    Nuclear Repulsion Energy =            413.7799420420989804
    One-Electron Energy =               -1551.4389076507166010
    Two-Electron Energy =                 609.9174579812364527
    DFT Exchange-Correlation Energy =       0.0000000000000000
    Empirical Dispersion Energy =           0.0000000000000000
    PCM Polarization Energy =               0.0000000000000000
    EFP Energy =                            0.0000000000000000
    Total Energy =                       -527.7415076273811110
    Molecular point group: c1
  Basis Set: CC-PVTZ
  Basis Set:

  -Total Gradient:
     Atom            X                  Y                   Z
    ------   -----------------  -----------------  -----------------
       1       -0.000009480562    -0.000013181862    -0.000008063436
       2        0.000002188874    -0.000004321625     0.000007729753
       3        0.000006144766     0.000039293162     0.000031188512
       4       -0.000006069565     0.000001123853     0.000000565895
       5        0.000031228656     0.000011266130    -0.000001931101
       6       -0.000001495428    -0.000018277509    -0.000013247753
       7        0.002792896558    -0.002441686466    -0.000709136152
       8       -0.002282522209     0.001317837297     0.002373627518
       9       -0.001969090280     0.001834985242     0.000117090783
      10        0.000016442233    -0.000005728329    -0.000034374251
      11        0.001338235960    -0.000679738214    -0.001776921566
      12        0.000008189302    -0.000011156674     0.000021558372
      13        0.000073331692    -0.000030415004    -0.000008086579

  **** Optimization is complete! (in 8 steps) ****
    Final optimized geometry and variables:
    Molecular point group: c1

    Geometry (in Angstrom), charge = 0, multiplicity = 1:

    H           -3.901126424288     0.974280425143    -0.384976964197
    C           -3.206425287617     0.376199217618     0.168264146343
    C           -2.093400837489    -0.014078892505    -0.403040535566
    H           -3.442287362817     0.110765570594     1.180058005614
    O           -1.191580586699    -0.797047495774     0.231881717609
    H           -1.843383051560     0.253401358335    -1.413808383684
    C            0.035879144986    -1.015438938724    -0.369944794704
    C            1.048007134236     0.052399322737    -0.000520092892
    H           -0.046585382333    -1.029941491089    -1.450113661930
    H            0.413953670437    -1.964242140136    -0.022768552339
    F            0.791868219924     1.197644224758    -0.598969604695
    F            1.094331130103     0.272490789353     1.288595681959
    F            2.247776954875    -0.331700886532    -0.391604004120

  Mulliken Charges: (a.u.)
   Center  Symbol    Alpha    Beta     Spin     Total
       1     H     0.42510  0.42510  0.00000  0.14979
       2     C     3.19655  3.19655  0.00000 -0.39309
       3     C     2.96056  2.96056  0.00000  0.07888
       4     H     0.42453  0.42453  0.00000  0.15095
       5     O     4.14405  4.14405  0.00000 -0.28809
       6     H     0.43441  0.43441  0.00000  0.13118
       7     C     3.01906  3.01906  0.00000 -0.03811
       8     C     2.67638  2.67638  0.00000  0.64723
       9     H     0.45517  0.45517  0.00000  0.08966
      10     H     0.43447  0.43447  0.00000  0.13106
      11     F     4.61184  4.61184  0.00000 -0.22368
      12     F     4.60501  4.60501  0.00000 -0.21002
      13     F     4.61288  4.61288  0.00000 -0.22576

   Total alpha = 32.00000, Total beta = 32.00000, Total charge =  0.00000

*** Psi4 exiting successfully. Buy a developer a beer!
