  ==> Input File <==

--------------------------------------------------------------------------
set {
	reference rhf
	basis 6-31G*
}

set_num_threads( 1 )
memory 2 gb

molecule MOL {
0 1

H	 -3.407059	 -1.043082	 0.000000
O	 -3.119761	 -0.140267	 0.000000
C	 -1.777559	 -0.059267	 0.000000
C	 -1.104118	 1.090169	 0.402835
C	 -1.070440	 -1.178174	 -0.422013
H	 -1.659760	 1.953022	 0.728500
C	 0.274546	 1.116030	 0.382003
H	 -1.612549	 -2.052730	 -0.727861
C	 0.308146	 -1.136909	 -0.437247
H	 0.807090	 1.996137	 0.690078
C	 0.997126	 0.003899	 -0.037887
H	 0.856597	 -2.003725	 -0.764194
C	 2.472822	 0.033243	 -0.059581
O	 3.138412	 0.967213	 0.265146
H	 2.948058	 -0.890636	 -0.405654

	symmetry c1
}
set optking {
	frozen_dihedral = ("
		7 11 13 14
	")
}

ee = energy('scf')
oeprop('DIPOLE', 'QUADRUPOLE', 'MULLIKEN_CHARGES')
f=open( 'psi4out.xyz', 'w' )
f.write( "15  " )
f.write( str(ee) + "\n" )
f.write( MOL.save_string_xyz() )
f.close()
--------------------------------------------------------------------------

    Molecular point group: c1

    Geometry (in Angstrom), charge = 0, multiplicity = 1:

       Center              X                  Y                   Z               Mass
    ------------   -----------------  -----------------  -----------------  -----------------
           H         -3.402312848336    -1.121729090735    -0.013892757775     1.007825032070
           O         -3.115014848336    -0.218914090735    -0.013892757775    15.994914619560
           C         -1.772812848336    -0.137914090735    -0.013892757775    12.000000000000
           C         -1.099371848336     1.011521909265     0.388942242225    12.000000000000
           C         -1.065693848336    -1.256821090735    -0.435905757775    12.000000000000
           H         -1.655013848336     1.874374909265     0.714607242225     1.007825032070
           C          0.279292151664     1.037382909265     0.368110242225    12.000000000000
           H         -1.607802848336    -2.131377090735    -0.741753757775     1.007825032070
           C          0.312892151664    -1.215556090735    -0.451139757775    12.000000000000
           H          0.811836151664     1.917489909265     0.676185242225     1.007825032070
           C          1.001872151664    -0.074748090735    -0.051779757775    12.000000000000
           H          0.861343151664    -2.082372090735    -0.778086757775     1.007825032070
           C          2.477568151664    -0.045404090735    -0.073473757775    12.000000000000
           O          3.143158151664     0.888565909265     0.251253242225    15.994914619560
           H          2.952804151664    -0.969283090735    -0.419546757775     1.007825032070

  Charge       = 0
  Multiplicity = 1
  Basis Set: 6-31G*
  Basis Set:

    Orbital Energies (a.u.)
    -----------------------

    Doubly Occupied:

       1A    -20.607891     2A    -20.556516     3A    -11.328615
       4A    -11.323764     5A    -11.263059     6A    -11.255454
       7A    -11.243719     8A    -11.240964     9A    -11.239712
      10A     -1.430847    11A     -1.397655    12A     -1.171045
      13A     -1.042612    14A     -1.037906    15A     -0.892949
      16A     -0.858728    17A     -0.804022    18A     -0.757132
      19A     -0.698170    20A     -0.686234    21A     -0.639432
      22A     -0.626374    23A     -0.614634    24A     -0.608510
      25A     -0.577323    26A     -0.553647    27A     -0.549284
      28A     -0.505279    29A     -0.484037    30A     -0.419081
      31A     -0.358067    32A     -0.328364

  @DF-RHF Final Energy:  -418.28702564779428

   => Energetics <=

    Nuclear Repulsion Energy =            401.4193936891068688
    One-Electron Energy =               -1365.2108669313950031
    Two-Electron Energy =                 545.5044475944939677
    DFT Exchange-Correlation Energy =       0.0000000000000000
    Empirical Dispersion Energy =           0.0000000000000000
    PCM Polarization Energy =               0.0000000000000000
    EFP Energy =                            0.0000000000000000
    Total Energy =                       -418.2870256477941666

  Mulliken Charges: (a.u.)
   Center  Symbol    Alpha    Beta     Spin     Total
       1     H     0.26718  0.26718  0.00000  0.46564
       2     O     4.37644  4.37644  0.00000 -0.75288
       3     C     2.77838  2.77838  0.00000  0.44324
       4     C     3.12882  3.12882  0.00000 -0.25764
       5     C     3.15150  3.15150  0.00000 -0.30300
       6     H     0.38631  0.38631  0.00000  0.22737
       7     C     3.07875  3.07875  0.00000 -0.15750
       8     H     0.39867  0.39867  0.00000  0.20267
       9     C     3.09166  3.09166  0.00000 -0.18332
      10     H     0.37371  0.37371  0.00000  0.25259
      11     C     3.06843  3.06843  0.00000 -0.13686
      12     H     0.39057  0.39057  0.00000  0.21887
      13     C     2.83030  2.83030  0.00000  0.33939
      14     O     4.25402  4.25402  0.00000 -0.50804
      15     H     0.42526  0.42526  0.00000  0.14947

   Total alpha = 32.00000, Total beta = 32.00000, Total charge =  0.00000
