                              Psi4 1.0.54 Driver

  ==> Input File <==

--------------------------------------------------------------------------
set {
	reference rhf
	basis cc-pvtz
}

set_num_threads( 4 )
memory 2 gb

molecule MOL {
0 1

H	 3.875066	 0.390463	 -0.356483
N	 3.079974	 -0.211944	 -0.332964
C	 1.855957	 0.544155	 -0.119524
H	 3.228112	 -0.866366	 0.406721
C	 0.639151	 -0.367898	 -0.167166
H	 1.780543	 1.282712	 -0.910569
H	 1.855681	 1.093798	 0.822733
C	 -0.678115	 0.376691	 0.025731
H	 0.636448	 -0.890433	 -1.118142
H	 0.737428	 -1.130817	 0.602756
C	 -1.900706	 -0.535531	 -0.022488
H	 -0.774230	 1.141837	 -0.741255
H	 -0.662822	 0.901957	 0.977957
C	 -3.220513	 0.226854	 0.028039
H	 -1.865036	 -1.134397	 -0.928236
H	 -1.857948	 -1.236381	 0.806820
H	 -3.309098	 0.911849	 -0.808725
H	 -4.066838	 -0.449485	 -0.008086
H	 -3.301685	 0.809374	 0.939860

	symmetry c1
}
set optking {
	frozen_dihedral = ("
		12 8 11 15
	")
}

ee,wfn = optimize('scf', return_wfn=True)
oeprop( wfn, 'DIPOLE', 'QUADRUPOLE', 'MULLIKEN_CHARGES')
f=open( 'psi4out.xyz', 'w' )
f.write( "19  " )
f.write( str(ee) + "\n" )
f.write( MOL.save_string_xyz() )
f.close()
--------------------------------------------------------------------------

    Molecular point group: c1
  Charge       = 0
  Multiplicity = 1
  Basis Set: CC-PVTZ
  Basis Set:
  @DF-RHF Final Energy:  -251.44801837387948
    Total Energy =                       -251.4480183738793357
    Molecular point group: c1
  Basis Set: CC-PVTZ
  Basis Set:
  Basis Set: CC-PVTZ
  Basis Set:
  @DF-RHF Final Energy:  -251.44803389053899
    Total Energy =                       -251.4480338905391363
  Basis Set: CC-PVTZ
  Basis Set:
  Basis Set: CC-PVTZ
  Basis Set:
  @DF-RHF Final Energy:  -251.44804012421940
    Total Energy =                       -251.4480401242196876
  Basis Set: CC-PVTZ
  Basis Set:
  Charge       = 0
  Multiplicity = 1
  Basis Set: CC-PVTZ
  Basis Set:

    Orbital Energies (a.u.)
    -----------------------

    Doubly Occupied:

       1A    -15.526421     2A    -11.237943     3A    -11.211855
       4A    -11.210427     5A    -11.207756     6A    -11.205524
       7A     -1.178182     8A     -1.074250     9A     -0.999689
      10A     -0.901047    11A     -0.813446    12A     -0.789784
      13A     -0.666094    14A     -0.642788    15A     -0.617775
      16A     -0.590061    17A     -0.566047    18A     -0.548151
      19A     -0.531770    20A     -0.498389    21A     -0.481160
      22A     -0.465449    23A     -0.460806    24A     -0.451214
      25A     -0.383808

  @DF-RHF Final Energy:  -251.44804020640512

   => Energetics <=

    Nuclear Repulsion Energy =            246.0516568589725068
    One-Electron Energy =                -826.4797200807752233
    Two-Electron Energy =                 328.9800230153974780
    DFT Exchange-Correlation Energy =       0.0000000000000000
    Empirical Dispersion Energy =           0.0000000000000000
    PCM Polarization Energy =               0.0000000000000000
    EFP Energy =                            0.0000000000000000
    Total Energy =                       -251.4480402064052669
    Molecular point group: c1
  Basis Set: CC-PVTZ
  Basis Set:

  -Total Gradient:
     Atom            X                  Y                   Z
    ------   -----------------  -----------------  -----------------
       1        0.000001238485    -0.000002322346     0.000003297275
       2        0.000006981238     0.000001370343     0.000002526698
       3       -0.000005138584    -0.000003403012    -0.000006304578
       4        0.000003026180     0.000000839465     0.000000108156
       5       -0.000002523704    -0.000000255554    -0.000017226496
       6       -0.000001442817    -0.000004755177     0.000002290506
       7       -0.000001749275     0.000000638721    -0.000001293201
       8        0.000753982776    -0.000987575860    -0.000740055516
       9        0.000004454208     0.000005791464    -0.000000821952
      10       -0.000006436568     0.000006221304    -0.000000966805
      11       -0.000808306105     0.001106082041    -0.000495240074
      12       -0.000502298653     0.000644192501     0.000712506177
      13       -0.000002201921     0.000005323544     0.000004190996
      14       -0.000006461174     0.000005479080     0.000000233366
      15        0.000558213369    -0.000769304522     0.000536002656
      16       -0.000003247475     0.000000522480     0.000000901286
      17        0.000000617007    -0.000009315512     0.000008948421
      18        0.000008880738     0.000006347214     0.000000508610
      19        0.000002412270    -0.000005876176    -0.000009605526

  **** Optimization is complete! (in 4 steps) ****
    Final optimized geometry and variables:
    Molecular point group: c1

    Geometry (in Angstrom), charge = 0, multiplicity = 1:

    H            3.880545988202     0.379925795303    -0.244802553120
    N            3.084589748965    -0.221664387405    -0.230708298636
    C            1.859968298584     0.534340992715    -0.020739575364
    H            3.227033713835    -0.880843014238     0.505888780344
    C            0.642520159107    -0.376071618233    -0.082523147143
    H            1.790381888973     1.278013967811    -0.807548728304
    H            1.853807415962     1.077962242148     0.924968994827
    C           -0.675298736099     0.369003148165     0.100936650262
    H            0.647697963565    -0.895238209562    -1.035221557178
    H            0.732883785451    -1.141715635309     0.685763317865
    C           -1.898407227347    -0.543451225261     0.063715661632
    H           -0.773629150467     1.131501141866    -0.668435271429
    H           -0.661893178034     0.902653144419     1.048749656600
    C           -3.218475799574     0.216174399560     0.131377052800
    H           -1.869670578009    -1.147464024147    -0.838888550823
    H           -1.844094646849    -1.243963494102     0.892893759558
    H           -3.324276927928     0.892659853260    -0.710162022539
    H           -4.063712535424    -0.462343775716     0.118176743936
    H           -3.283629537055     0.807420147867     1.038919956878

  Mulliken Charges: (a.u.)
   Center  Symbol    Alpha    Beta     Spin     Total
       1     H     0.43023  0.43023  0.00000  0.13954
       2     N     3.68915  3.68915  0.00000 -0.37830
       3     C     3.02688  3.02688  0.00000 -0.05376
       4     H     0.43103  0.43103  0.00000  0.13794
       5     C     3.08152  3.08152  0.00000 -0.16303
       6     H     0.45704  0.45704  0.00000  0.08591
       7     H     0.46851  0.46851  0.00000  0.06298
       8     C     3.09326  3.09326  0.00000 -0.18651
       9     H     0.44884  0.44884  0.00000  0.10232
      10     H     0.46029  0.46029  0.00000  0.07941
      11     C     3.08338  3.08338  0.00000 -0.16676
      12     H     0.45530  0.45530  0.00000  0.08941
      13     H     0.45661  0.45661  0.00000  0.08678
      14     C     3.14975  3.14975  0.00000 -0.29949
      15     H     0.45407  0.45407  0.00000  0.09187
      16     H     0.45490  0.45490  0.00000  0.09020
      17     H     0.45511  0.45511  0.00000  0.08978
      18     H     0.44855  0.44855  0.00000  0.10291
      19     H     0.45559  0.45559  0.00000  0.08882

   Total alpha = 25.00000, Total beta = 25.00000, Total charge = -0.00000

*** Psi4 exiting successfully. Buy a developer a beer!
