  ==> Input File <==

--------------------------------------------------------------------------
set {
	reference rhf
	basis 6-31G*
}

set_num_threads( 4 )
memory 2 gb

molecule MOL {
0 1

H	 5.268524	 0.192471	 1.070992
C	 4.673736	 -0.214914	 0.259335
C	 3.185378	 -0.203514	 0.605509
H	 4.871837	 0.380453	 -0.627026
H	 5.025590	 -1.224632	 0.065769
C	 2.317601	 -0.778379	 -0.516234
H	 2.874655	 0.814325	 0.817774
H	 3.023650	 -0.778480	 1.515976
C	 1.423071	 0.258735	 -1.195554
H	 2.950667	 -1.241808	 -1.264635
H	 1.683257	 -1.562199	 -0.108465
C	 2.170803	 1.255961	 -2.068298
H	 0.705496	 -0.242741	 -1.843149
H	 0.829082	 0.799664	 -0.462240
C	 1.444241	 2.531641	 -2.457477
O	 3.281323	 1.042016	 -2.452197
C	 0.183509	 2.291959	 -3.301438
H	 2.150565	 3.144006	 -3.005044
H	 1.173192	 3.066239	 -1.548950
C	 -0.467597	 3.599137	 -3.757458
H	 0.444057	 1.696686	 -4.174009
H	 -0.541001	 1.712895	 -2.734658
C	 -1.723406	 3.373786	 -4.598330
H	 0.252872	 4.177739	 -4.330351
H	 -0.718416	 4.198958	 -2.885277
H	 -1.497769	 2.803742	 -5.494915
H	 -2.477573	 2.826739	 -4.039685
H	 -2.161283	 4.317314	 -4.908001

	symmetry c1
}
set optking {
	frozen_dihedral = ("
		10 6 3 2
	")
}

ee = optimize('scf')
oeprop('DIPOLE', 'QUADRUPOLE', 'MULLIKEN_CHARGES')
f=open( 'psi4out.xyz', 'w' )
f.write( "28  " )
f.write( str(ee) + "\n" )
f.write( MOL.save_string_xyz() )
f.close()
--------------------------------------------------------------------------

    Molecular point group: c1
  Charge       = 0
  Multiplicity = 1
  Basis Set: 6-31G*
  Basis Set:
  @DF-RHF Final Energy:  -426.16286704878166
    Total Energy =                       -426.1628670487820045
    Molecular point group: c1
  Basis Set: 6-31G*
  Basis Set:
  Basis Set: 6-31G*
  Basis Set:
  @DF-RHF Final Energy:  -426.16336801325428
    Total Energy =                       -426.1633680132542850
  Basis Set: 6-31G*
  Basis Set:
  Basis Set: 6-31G*
  Basis Set:
  @DF-RHF Final Energy:  -426.16121151469611
    Total Energy =                       -426.1612115146961060
  Basis Set: 6-31G*
  Basis Set:
  Basis Set: 6-31G*
  Basis Set:
  @DF-RHF Final Energy:  -426.16349371353715
    Total Energy =                       -426.1634937135369228
  Basis Set: 6-31G*
  Basis Set:
  @DF-RHF Final Energy:  -426.16344213747004
    Total Energy =                       -426.1634421374699286
  @DF-RHF Final Energy:  -426.16338869625122
    Total Energy =                       -426.1633886962511042
  Basis Set: 6-31G*
  Basis Set:
  @DF-RHF Final Energy:  -426.16353595808539
    Total Energy =                       -426.1635359580857312
  Basis Set: 6-31G*
  Basis Set:
  Basis Set: 6-31G*
  Basis Set:
  @DF-RHF Final Energy:  -426.16353757210334
    Total Energy =                       -426.1635375721034507
  Basis Set: 6-31G*
  Basis Set:
  Basis Set: 6-31G*
  Basis Set:
  @DF-RHF Final Energy:  -426.16353892469363
    Total Energy =                       -426.1635389246935119
  Basis Set: 6-31G*
  Basis Set:
  Charge       = 0
  Multiplicity = 1
  Basis Set: 6-31G*
  Basis Set:

    Orbital Energies (a.u.)
    -----------------------

    Doubly Occupied:

       1A    -20.549187     2A    -11.322822     3A    -11.232787
       4A    -11.230503     5A    -11.229283     6A    -11.226376
       7A    -11.217232     8A    -11.216548     9A    -11.213293
      10A    -11.196475    11A     -1.394146    12A     -1.095306
      13A     -1.074214    14A     -1.021494    15A     -0.988498
      16A     -0.906855    17A     -0.873701    18A     -0.809523
      19A     -0.797185    20A     -0.723115    21A     -0.668014
      22A     -0.650995    23A     -0.630357    24A     -0.623896
      25A     -0.601619    26A     -0.590012    27A     -0.577705
      28A     -0.565359    29A     -0.546584    30A     -0.529298
      31A     -0.522372    32A     -0.504700    33A     -0.502383
      34A     -0.484978    35A     -0.478374    36A     -0.474534
      37A     -0.467270    38A     -0.459667    39A     -0.452501
      40A     -0.392940

  @DF-RHF Final Energy:  -426.16353964268910

   => Energetics <=

    Nuclear Repulsion Energy =            536.8026857661382110
    One-Electron Energy =               -1641.8482527029259472
    Two-Electron Energy =                 678.8820272940988616
    DFT Exchange-Correlation Energy =       0.0000000000000000
    Empirical Dispersion Energy =           0.0000000000000000
    PCM Polarization Energy =               0.0000000000000000
    EFP Energy =                            0.0000000000000000
    Total Energy =                       -426.1635396426888747
    Molecular point group: c1
  Basis Set: 6-31G*
  Basis Set:

  -Total Gradient:
     Atom            X                  Y                   Z
    ------   -----------------  -----------------  -----------------
       1        0.000008772335    -0.000009173178    -0.000003228363
       2       -0.000011341928     0.000602618705    -0.000272908689
       3        0.000017393522    -0.001009601205     0.000476998322
       4       -0.000013898892     0.000018922768     0.000009510598
       5        0.000002291389    -0.000006301731     0.000000471409
       6        0.000070178212     0.001278141038    -0.000694629364
       7        0.000017214005    -0.000004672811     0.000003045770
       8        0.000000663258     0.000006022278    -0.000003925482
       9        0.000064740851    -0.000058422509    -0.000043632939
      10       -0.000067776586    -0.000819086814     0.000466862669
      11       -0.000024375209    -0.000003797503    -0.000035626323
      12       -0.000025724377    -0.000035734203     0.000083378201
      13       -0.000009832387    -0.000004465771     0.000020767257
      14       -0.000006262290     0.000030500765     0.000003400015
      15       -0.000049198768     0.000006663589    -0.000033566257
      16        0.000000494528    -0.000009986326     0.000023813810
      17        0.000005914202     0.000008927026     0.000008776377
      18        0.000010946026    -0.000007629092    -0.000013302790
      19       -0.000005497138     0.000005253014    -0.000007883754
      20        0.000002545004     0.000006043635     0.000020809876
      21        0.000013449303     0.000003319033    -0.000000973802
      22       -0.000000425512     0.000001058225    -0.000005178473
      23        0.000000925064    -0.000002225245    -0.000001291063
      24       -0.000000110609     0.000000619008    -0.000001291662
      25       -0.000000732625     0.000002714689    -0.000000648534
      26       -0.000000742249    -0.000000874596     0.000001029234
      27       -0.000000652602     0.000001043592     0.000000345092
      28        0.000001043469     0.000000123620    -0.000001121137

  **** Optimization is complete! (in 10 steps) ****
    Final optimized geometry and variables:
    Molecular point group: c1

    Geometry (in Angstrom), charge = 0, multiplicity = 1:

    H            3.636026765619    -1.151992847398     3.064726734524
    C            3.056280389871    -1.571258119293     2.247283142948
    C            1.559484632413    -1.516259821057     2.557420711267
    H            3.287898923605    -1.021149804895     1.344262211416
    H            3.382986886384    -2.598028773237     2.105919131515
    C            0.660414944812    -2.092294191897     1.437860001713
    H            1.278867942557    -0.484726973174     2.760028619783
    H            1.373004614389    -2.056765448864     3.481148792494
    C           -0.229011930039    -1.061782062703     0.740299272124
    H            1.268241773954    -2.597349623709     0.695887992773
    H            0.003732200627    -2.849195293929     1.857030005600
    C            0.513628842249    -0.052851086906    -0.121079240010
    H           -0.931726183139    -1.571669474125     0.082543037292
    H           -0.839820283276    -0.529973136122     1.466135092095
    C           -0.221608812630     1.220068078357    -0.503078296118
    O            1.625827697703    -0.255614810052    -0.506671139361
    C           -1.478256368376     0.976567756505    -1.352012970642
    H            0.481328348556     1.841453635072    -1.044781073835
    H           -0.499160168564     1.746407506267     0.408300396192
    C           -2.139493701450     2.282009985601    -1.798287839025
    H           -1.210332414315     0.391170573989    -2.228987676319
    H           -2.199040138881     0.386372708400    -0.792030225858
    C           -3.390955721209     2.053094104165    -2.644659202267
    H           -1.422540475954     2.871905292058    -2.364020793733
    H           -2.397962486671     2.871860423839    -0.921546978399
    H           -3.157913357947     1.492723368005    -3.545428768143
    H           -4.141946419366     1.494844845678    -2.092874137009
    H           -3.836049395882     2.995478893721    -2.947495738673

  Mulliken Charges: (a.u.)
   Center  Symbol    Alpha    Beta     Spin     Total
       1     H     0.42490  0.42490  0.00000  0.15020
       2     C     3.24320  3.24320  0.00000 -0.48640
       3     C     3.15614  3.15614  0.00000 -0.31228
       4     H     0.40108  0.40108  0.00000  0.19785
       5     H     0.42462  0.42462  0.00000  0.15075
       6     C     3.15190  3.15190  0.00000 -0.30380
       7     H     0.42569  0.42569  0.00000  0.14861
       8     H     0.42105  0.42105  0.00000  0.15791
       9     C     3.21223  3.21223  0.00000 -0.42447
      10     H     0.40569  0.40569  0.00000  0.18861
      11     H     0.41926  0.41926  0.00000  0.16149
      12     C     2.73082  2.73082  0.00000  0.53836
      13     H     0.40410  0.40410  0.00000  0.19181
      14     H     0.41298  0.41298  0.00000  0.17404
      15     C     3.20187  3.20187  0.00000 -0.40374
      16     O     4.26626  4.26626  0.00000 -0.53253
      17     C     3.16389  3.16389  0.00000 -0.32779
      18     H     0.39973  0.39973  0.00000  0.20054
      19     H     0.41288  0.41288  0.00000  0.17423
      20     C     3.15182  3.15182  0.00000 -0.30363
      21     H     0.41372  0.41372  0.00000  0.17257
      22     H     0.41850  0.41850  0.00000  0.16299
      23     C     3.24035  3.24035  0.00000 -0.48069
      24     H     0.41835  0.41835  0.00000  0.16329
      25     H     0.42139  0.42139  0.00000  0.15722
      26     H     0.41959  0.41959  0.00000  0.16083
      27     H     0.42117  0.42117  0.00000  0.15767
      28     H     0.41683  0.41683  0.00000  0.16634

   Total alpha = 40.00000, Total beta = 40.00000, Total charge =  0.00000
