  ==> Input File <==

--------------------------------------------------------------------------
set {
	reference rhf
	basis 6-31G*
}

set_num_threads( 1 )
memory 2 gb

molecule MOL {
0 1

H	 2.591676	 2.013956	 0.335017
O	 3.341076	 1.666752	 -0.126416
C	 3.569581	 0.339145	 0.272707
C	 4.686164	 0.204663	 1.302214
H	 2.635986	 -0.004840	 0.699028
H	 3.780103	 -0.288086	 -0.592765
C	 6.064480	 0.621907	 0.783540
H	 4.427119	 0.802771	 2.172001
H	 4.721990	 -0.832970	 1.629936
C	 7.171939	 0.424218	 1.822420
H	 6.031773	 1.665197	 0.482140
H	 6.305267	 0.044802	 -0.109383
C	 8.585972	 0.746606	 1.325510
H	 6.952033	 1.029845	 2.699748
H	 7.152190	 -0.610985	 2.156583
C	 8.833495	 2.221871	 0.998703
H	 9.295645	 0.437118	 2.089969
H	 8.805178	 0.140904	 0.447495
C	 10.284756	 2.510758	 0.609059
H	 8.566262	 2.830435	 1.861459
H	 8.182402	 2.539995	 0.188038
C	 10.533112	 3.981518	 0.276123
H	 10.942401	 2.208981	 1.421415
H	 10.556602	 1.896420	 -0.246846
H	 10.301359	 4.619970	 1.123999
H	 11.570320	 4.154389	 0.006033
H	 9.916280	 4.304741	 -0.557789

	symmetry c1
}
set optking {
	frozen_dihedral = ("
		14 10 7 4,
		14 10 13 16,
		10 7 4 8,
		8 4 3 2,
		10 13 16 20,
		20 16 19 22
	")
}

ee = energy('scf')
oeprop('DIPOLE', 'QUADRUPOLE', 'MULLIKEN_CHARGES')
f=open( 'psi4out.xyz', 'w' )
f.write( "27  " )
f.write( str(ee) + "\n" )
f.write( MOL.save_string_xyz() )
f.close()
--------------------------------------------------------------------------

    Molecular point group: c1

    Geometry (in Angstrom), charge = 0, multiplicity = 1:

       Center              X                  Y                   Z               Mass
    ------------   -----------------  -----------------  -----------------  -----------------
           H         -4.354665387262     0.581364921399    -0.453321699861     1.007825032070
           O         -3.605265387262     0.234160921399    -0.914754699861    15.994914619560
           C         -3.376760387262    -1.093446078601    -0.515631699861    12.000000000000
           C         -2.260177387262    -1.227928078601     0.513875300139    12.000000000000
           H         -4.310355387262    -1.437431078601    -0.089310699861     1.007825032070
           H         -3.166238387262    -1.720677078601    -1.381103699861     1.007825032070
           C         -0.881861387262    -0.810684078601    -0.004798699861    12.000000000000
           H         -2.519222387262    -0.629820078601     1.383662300139     1.007825032070
           H         -2.224351387262    -2.265561078601     0.841597300139     1.007825032070
           C          0.225597612738    -1.008373078601     1.034081300139    12.000000000000
           H         -0.914568387262     0.232605921399    -0.306198699861     1.007825032070
           H         -0.641074387262    -1.387789078601    -0.897721699861     1.007825032070
           C          1.639630612738    -0.685985078601     0.537171300139    12.000000000000
           H          0.005691612738    -0.402746078601     1.911409300139     1.007825032070
           H          0.205848612738    -2.043576078601     1.368244300139     1.007825032070
           C          1.887153612738     0.789279921399     0.210364300139    12.000000000000
           H          2.349303612738    -0.995473078601     1.301630300139     1.007825032070
           H          1.858836612738    -1.291687078601    -0.340843699861     1.007825032070
           C          3.338414612738     1.078166921399    -0.179279699861    12.000000000000
           H          1.619920612738     1.397843921399     1.073120300139     1.007825032070
           H          1.236060612738     1.107403921399    -0.600300699861     1.007825032070
           C          3.586770612738     2.548926921399    -0.512215699861    12.000000000000
           H          3.996059612738     0.776389921399     0.633076300139     1.007825032070
           H          3.610260612738     0.463828921399    -1.035184699861     1.007825032070
           H          3.355017612738     3.187378921399     0.335660300139     1.007825032070
           H          4.623978612738     2.721797921399    -0.782305699861     1.007825032070
           H          2.969938612738     2.872149921399    -1.346127699861     1.007825032070

  Charge       = 0
  Multiplicity = 1
  Basis Set: 6-31G*
  Basis Set:

    Orbital Energies (a.u.)
    -----------------------

    Doubly Occupied:

       1A    -20.551295     2A    -11.268467     3A    -11.213337
       4A    -11.211106     5A    -11.210335     6A    -11.209662
       7A    -11.208095     8A    -11.208076     9A    -11.204958
      10A     -1.359270    11A     -1.088680    12A     -1.056358
      13A     -1.007718    14A     -0.943187    15A     -0.880799
      16A     -0.815230    17A     -0.797284    18A     -0.772029
      19A     -0.692831    20A     -0.649264    21A     -0.639959
      22A     -0.607403    23A     -0.595312    24A     -0.584444
      25A     -0.569064    26A     -0.550284    27A     -0.536050
      28A     -0.519699    29A     -0.507045    30A     -0.493100
      31A     -0.476106    32A     -0.468068    33A     -0.461532
      34A     -0.455490    35A     -0.447942    36A     -0.435725
      37A     -0.419647

  @DF-RHF Final Energy:  -388.27924092821866

   => Energetics <=

    Nuclear Repulsion Energy =            458.6152495012881900
    One-Electron Energy =               -1435.5592253183729099
    Two-Electron Energy =                 588.6647348888677698
    DFT Exchange-Correlation Energy =       0.0000000000000000
    Empirical Dispersion Energy =           0.0000000000000000
    PCM Polarization Energy =               0.0000000000000000
    EFP Energy =                            0.0000000000000000
    Total Energy =                       -388.2792409282169501

  Mulliken Charges: (a.u.)
   Center  Symbol    Alpha    Beta     Spin     Total
       1     H     0.27946  0.27946  0.00000  0.44107
       2     O     4.37152  4.37152  0.00000 -0.74304
       3     C     2.99845  2.99845  0.00000  0.00311
       4     C     3.15789  3.15789  0.00000 -0.31578
       5     H     0.43121  0.43121  0.00000  0.13759
       6     H     0.42030  0.42030  0.00000  0.15940
       7     C     3.15642  3.15642  0.00000 -0.31285
       8     H     0.42447  0.42447  0.00000  0.15106
       9     H     0.42550  0.42550  0.00000  0.14901
      10     C     3.15291  3.15291  0.00000 -0.30583
      11     H     0.40821  0.40821  0.00000  0.18359
      12     H     0.42556  0.42556  0.00000  0.14887
      13     C     3.15274  3.15274  0.00000 -0.30549
      14     H     0.42459  0.42459  0.00000  0.15082
      15     H     0.42428  0.42428  0.00000  0.15144
      16     C     3.15305  3.15305  0.00000 -0.30611
      17     H     0.42293  0.42293  0.00000  0.15414
      18     H     0.42422  0.42422  0.00000  0.15155
      19     C     3.15102  3.15102  0.00000 -0.30204
      20     H     0.42511  0.42511  0.00000  0.14978
      21     H     0.41999  0.41999  0.00000  0.16003
      22     C     3.23910  3.23910  0.00000 -0.47820
      23     H     0.42397  0.42397  0.00000  0.15205
      24     H     0.42335  0.42335  0.00000  0.15330
      25     H     0.42224  0.42224  0.00000  0.15553
      26     H     0.42014  0.42014  0.00000  0.15971
      27     H     0.42136  0.42136  0.00000  0.15728

   Total alpha = 37.00000, Total beta = 37.00000, Total charge =  0.00000
