  ==> Input File <==

--------------------------------------------------------------------------
set {
	reference rhf
	basis 6-31G*
}

set_num_threads( 4 )
memory 2 gb

molecule MOL {
0 1

O	 -2.821601	 1.309235	 -0.001213
C	 -2.668563	 0.129746	 -0.000350
C	 -3.801572	 -0.864014	 -0.000442
O	 -1.481751	 -0.454642	 0.000584
H	 -4.417280	 -0.689587	 -0.874708
H	 -3.443784	 -1.883046	 -0.000565
H	 -4.417179	 -0.689832	 0.873954
C	 -0.334255	 0.388708	 0.000906
C	 0.891947	 -0.504646	 0.000751
H	 -0.365390	 1.025305	 -0.873475
H	 -0.365484	 1.024911	 0.875569
C	 2.191998	 0.301789	 0.000897
H	 0.855148	 -1.151283	 -0.871571
H	 0.855132	 -1.151660	 0.872805
C	 2.363578	 1.155913	 -1.256624
H	 2.220191	 0.946325	 0.877746
H	 3.039838	 -0.374904	 0.092211
C	 3.661447	 1.962387	 -1.255814
H	 1.517356	 1.832971	 -1.349228
H	 2.337958	 0.513149	 -2.133703
H	 3.701626	 2.640079	 -0.407797
H	 3.754344	 2.557230	 -2.159013
H	 4.528382	 1.310352	 -1.198514

	symmetry c1
}
set optking {
	frozen_dihedral = ("
		16 12 9 13
	")
}

ee = optimize('scf')
oeprop('DIPOLE', 'QUADRUPOLE', 'MULLIKEN_CHARGES')
f=open( 'psi4out.xyz', 'w' )
f.write( "23  " )
f.write( str(ee) + "\n" )
f.write( MOL.save_string_xyz() )
f.close()
--------------------------------------------------------------------------

    Molecular point group: c1
  Charge       = 0
  Multiplicity = 1
  Basis Set: 6-31G*
  Basis Set:
  @DF-RHF Final Energy:  -422.97697871433252
    Total Energy =                       -422.9769787143327449
    Molecular point group: c1
  Basis Set: 6-31G*
  Basis Set:
  Basis Set: 6-31G*
  Basis Set:
  @DF-RHF Final Energy:  -422.97746069708683
    Total Energy =                       -422.9774606970868263
  Basis Set: 6-31G*
  Basis Set:
  Basis Set: 6-31G*
  Basis Set:
  @DF-RHF Final Energy:  -422.97788692467697
    Total Energy =                       -422.9778869246781596
  Basis Set: 6-31G*
  Basis Set:
  Basis Set: 6-31G*
  Basis Set:
  @DF-RHF Final Energy:  -422.97786866737982
    Total Energy =                       -422.9778686673798802
  Basis Set: 6-31G*
  Basis Set:
  Basis Set: 6-31G*
  Basis Set:
  @DF-RHF Final Energy:  -422.97782709618127
    Total Energy =                       -422.9778270961813860
  Basis Set: 6-31G*
  Basis Set:
  Basis Set: 6-31G*
  Basis Set:
  @DF-RHF Final Energy:  -422.97791844576983
    Total Energy =                       -422.9779184457690917
  Basis Set: 6-31G*
  Basis Set:
  Charge       = 0
  Multiplicity = 1
  Basis Set: 6-31G*
  Basis Set:

    Orbital Energies (a.u.)
    -----------------------

    Doubly Occupied:

       1A    -20.602919     2A    -20.540497     3A    -11.374038
       4A    -11.281007     5A    -11.232345     6A    -11.224518
       7A    -11.223864     8A    -11.221719     9A    -11.213046
      10A     -1.467859    11A     -1.360650    12A     -1.093929
      13A     -1.040547    14A     -1.002675    15A     -0.931487
      16A     -0.849598    17A     -0.791405    18A     -0.780165
      19A     -0.689102    20A     -0.684394    21A     -0.670992
      22A     -0.636401    23A     -0.613085    24A     -0.587322
      25A     -0.578055    26A     -0.573111    27A     -0.562244
      28A     -0.529190    29A     -0.527448    30A     -0.509559
      31A     -0.494824    32A     -0.475962    33A     -0.468950
      34A     -0.461960    35A     -0.449634    36A     -0.435703

  @DF-RHF Final Energy:  -422.97791862853819

   => Energetics <=

    Nuclear Repulsion Energy =            455.5970549265134650
    One-Electron Energy =               -1478.7895375238736051
    Two-Electron Energy =                 600.2145639688222900
    DFT Exchange-Correlation Energy =       0.0000000000000000
    Empirical Dispersion Energy =           0.0000000000000000
    PCM Polarization Energy =               0.0000000000000000
    EFP Energy =                            0.0000000000000000
    Total Energy =                       -422.9779186285378501
    Molecular point group: c1
  Basis Set: 6-31G*
  Basis Set:

  -Total Gradient:
     Atom            X                  Y                   Z
    ------   -----------------  -----------------  -----------------
       1       -0.000001406852    -0.000005728274    -0.000044858978
       2        0.000005867349     0.000009235597     0.000095089389
       3        0.000003610612     0.000000300672    -0.000014781568
       4        0.000002197091    -0.000032582785    -0.000053367200
       5       -0.000001321645    -0.000004316754    -0.000003366063
       6        0.000000950089     0.000000361789    -0.000002127896
       7        0.000002684466     0.000005461012    -0.000003270108
       8       -0.000018299562     0.000016484406     0.000074969515
       9       -0.000052556565     0.000078939313    -0.000068314914
      10       -0.000005260843     0.000010531535    -0.000014803275
      11        0.000029300778    -0.000006906932    -0.000021052249
      12       -0.000062883728     0.000101720477    -0.000027870652
      13        0.000036738472    -0.000060969943     0.000048925321
      14        0.000006919783    -0.000006517164     0.000002698947
      15        0.000028826102    -0.000045079105    -0.000040222422
      16        0.000034367231    -0.000070284567     0.000057692813
      17       -0.000006764208     0.000007188456    -0.000005653724
      18       -0.000018870014     0.000028901151     0.000033302042
      19        0.000024896486     0.000001771614    -0.000011361277
      20       -0.000013793069    -0.000023414927     0.000002733612
      21        0.000019771895    -0.000011334460     0.000011542978
      22       -0.000016081470     0.000009466258     0.000010477446
      23        0.000001107597    -0.000003227369    -0.000026381737

  **** Optimization is complete! (in 7 steps) ****
    Final optimized geometry and variables:
    Molecular point group: c1

    Geometry (in Angstrom), charge = 0, multiplicity = 1:

    O           -2.654441981552     0.876856734316     0.263384469032
    C           -2.464164815938    -0.296717177030     0.299514043353
    C           -3.565029821949    -1.324112688012     0.361248382390
    O           -1.260009539245    -0.844134365520     0.289689448812
    H           -4.208013159404    -1.197361791629    -0.501512328759
    H           -3.175497994129    -2.331175772074     0.384318017464
    H           -4.163304400757    -1.140241773904     1.245640116262
    C           -0.139747567462     0.034172221594     0.231864835546
    C            1.108730985005    -0.830213288991     0.215819491627
    H           -0.227906906798     0.649598259736    -0.651700868904
    H           -0.159352535800     0.686573930781     1.095442420673
    C            2.412861494350    -0.025796800576     0.256591142329
    H            1.089453453111    -1.463382527283    -0.667142305402
    H            1.070152343974    -1.493249366096     1.074988557771
    C            2.679570304120     0.835210952719    -0.982000669545
    H            2.422531315192     0.604854984122     1.144112102036
    H            3.236036075653    -0.725711900319     0.377232630686
    C            4.043788137543     1.522668622793    -0.933841681967
    H            1.907044500794     1.592206517198    -1.086933139875
    H            2.620324266128     0.211379570994    -1.871535157158
    H            4.125915859209     2.170088862056    -0.065413030987
    H            4.207408022822     2.132174221578    -1.816887482273
    H            4.848057951806     0.794477111790    -0.879959664564

  Mulliken Charges: (a.u.)
   Center  Symbol    Alpha    Beta     Spin     Total
       1     O     4.28408  4.28408  0.00000 -0.56816
       2     C     2.61532  2.61532  0.00000  0.76935
       3     C     3.28778  3.28778  0.00000 -0.57557
       4     O     4.31267  4.31267  0.00000 -0.62533
       5     H     0.39752  0.39752  0.00000  0.20496
       6     H     0.39986  0.39986  0.00000  0.20027
       7     H     0.39752  0.39752  0.00000  0.20496
       8     C     2.99763  2.99763  0.00000  0.00473
       9     C     3.16566  3.16566  0.00000 -0.33132
      10     H     0.40855  0.40855  0.00000  0.18291
      11     H     0.41147  0.41147  0.00000  0.17707
      12     C     3.16105  3.16105  0.00000 -0.32210
      13     H     0.41490  0.41490  0.00000  0.17021
      14     H     0.41205  0.41205  0.00000  0.17589
      15     C     3.15566  3.15566  0.00000 -0.31132
      16     H     0.42096  0.42096  0.00000  0.15807
      17     H     0.41737  0.41737  0.00000  0.16526
      18     C     3.23949  3.23949  0.00000 -0.47898
      19     H     0.41984  0.41984  0.00000  0.16032
      20     H     0.42141  0.42141  0.00000  0.15718
      21     H     0.42056  0.42056  0.00000  0.15888
      22     H     0.41753  0.41753  0.00000  0.16493
      23     H     0.42111  0.42111  0.00000  0.15777

   Total alpha = 36.00000, Total beta = 36.00000, Total charge =  0.00000
