  ==> Input File <==

--------------------------------------------------------------------------
set {
	reference rhf
	basis 6-31G*
}

set_num_threads( 1 )
memory 2 gb

molecule MOL {
0 1

O	 2.862325	 1.357334	 0.000267
C	 2.843464	 0.164689	 -0.000222
C	 1.546494	 -0.624492	 -0.000609
C	 4.124123	 -0.644674	 -0.000428
C	 0.291004	 0.242674	 0.000989
H	 1.557904	 -1.283758	 -0.867573
H	 1.558622	 -1.285963	 0.864672
C	 0.530785	 1.620317	 0.620962
H	 -0.496876	 -0.273084	 0.540775
H	 -0.066169	 0.353425	 -1.017986
C	 -0.721794	 2.498217	 0.629190
H	 0.892095	 1.501788	 1.641478
H	 1.323114	 2.131374	 0.075891
C	 -0.490040	 3.877879	 1.247926
H	 -1.514300	 1.988630	 1.174420
H	 -1.083371	 2.618107	 -0.390558
C	 -1.745848	 4.748860	 1.252740
H	 -0.129719	 3.759342	 2.267701
H	 0.300918	 4.388848	 0.702807
H	 -2.545593	 4.280375	 1.819378
H	 -1.550130	 5.719608	 1.697761
H	 -2.111257	 4.915320	 0.243329
H	 4.165367	 -1.288615	 -0.874074
H	 4.976217	 0.020734	 -0.001915
H	 4.166763	 -1.286207	 0.874930

	symmetry c1
}
set optking {
	frozen_dihedral = ("
		9 5 8 12,
		15 11 8 12,
		15 11 14 18,
		1 2 3 6
	")
}

ee = energy('scf')
oeprop('DIPOLE', 'QUADRUPOLE', 'MULLIKEN_CHARGES')
f=open( 'psi4out.xyz', 'w' )
f.write( "25  " )
f.write( str(ee) + "\n" )
f.write( MOL.save_string_xyz() )
f.close()
--------------------------------------------------------------------------

    Molecular point group: c1

    Geometry (in Angstrom), charge = 0, multiplicity = 1:

       Center              X                  Y                   Z               Mass
    ------------   -----------------  -----------------  -----------------  -----------------
           O          1.833303279192    -0.131717816650    -0.419888412160    15.994914619560
           C          1.814442279192    -1.324362816650    -0.420377412160    12.000000000000
           C          0.517472279192    -2.113543816650    -0.420764412160    12.000000000000
           C          3.095101279192    -2.133725816650    -0.420583412160    12.000000000000
           C         -0.738017720808    -1.246377816650    -0.419166412160    12.000000000000
           H          0.528882279192    -2.772809816650    -1.287728412160     1.007825032070
           H          0.529600279192    -2.775014816650     0.444516587840     1.007825032070
           C         -0.498236720808     0.131265183350     0.200806587840    12.000000000000
           H         -1.525897720808    -1.762135816650     0.120619587840     1.007825032070
           H         -1.095190720808    -1.135626816650    -1.438141412160     1.007825032070
           C         -1.750815720808     1.009165183350     0.209034587840    12.000000000000
           H         -0.136926720808     0.012736183350     1.221322587840     1.007825032070
           H          0.294092279192     0.642322183350    -0.344264412160     1.007825032070
           C         -1.519061720808     2.388827183350     0.827770587840    12.000000000000
           H         -2.543321720808     0.499578183350     0.754264587840     1.007825032070
           H         -2.112392720808     1.129055183350    -0.810713412160     1.007825032070
           C         -2.774869720808     3.259808183350     0.832584587840    12.000000000000
           H         -1.158740720808     2.270290183350     1.847545587840     1.007825032070
           H         -0.728103720808     2.899796183350     0.282651587840     1.007825032070
           H         -3.574614720808     2.791323183350     1.399222587840     1.007825032070
           H         -2.579151720808     4.230556183350     1.277605587840     1.007825032070
           H         -3.140278720808     3.426268183350    -0.176826412160     1.007825032070
           H          3.136345279192    -2.777666816650    -1.294229412160     1.007825032070
           H          3.947195279192    -1.468317816650    -0.422070412160     1.007825032070
           H          3.137741279192    -2.775258816650     0.454774587840     1.007825032070

  Charge       = 0
  Multiplicity = 1
  Basis Set: 6-31G*
  Basis Set:

    Orbital Energies (a.u.)
    -----------------------

    Doubly Occupied:

       1A    -20.550075     2A    -11.332937     3A    -11.233780
       4A    -11.231464     5A    -11.214870     6A    -11.202122
       7A    -11.198668     8A    -11.195829     9A    -11.183166
      10A     -1.406285    11A     -1.083278    12A     -1.050873
      13A     -1.014967    14A     -0.960188    15A     -0.883432
      16A     -0.810005    17A     -0.779790    18A     -0.738456
      19A     -0.668458    20A     -0.644993    21A     -0.625690
      22A     -0.620478    23A     -0.590977    24A     -0.580568
      25A     -0.563691    26A     -0.549532    27A     -0.530194
      28A     -0.521326    29A     -0.511019    30A     -0.503392
      31A     -0.488369    32A     -0.463828    33A     -0.454259
      34A     -0.444406    35A     -0.430596    36A     -0.374144

  @DF-RHF Final Energy:  -387.10286566598268

   => Energetics <=

    Nuclear Repulsion Energy =            458.2284441817456582
    One-Electron Energy =               -1433.3903911655049797
    Two-Electron Energy =                 588.0590813177777818
    DFT Exchange-Correlation Energy =       0.0000000000000000
    Empirical Dispersion Energy =           0.0000000000000000
    PCM Polarization Energy =               0.0000000000000000
    EFP Energy =                            0.0000000000000000
    Total Energy =                       -387.1028656659815397

  Mulliken Charges: (a.u.)
   Center  Symbol    Alpha    Beta     Spin     Total
       1     O     4.26349  4.26349  0.00000 -0.52697
       2     C     2.73308  2.73308  0.00000  0.53383
       3     C     3.21457  3.21457  0.00000 -0.42914
       4     C     3.28665  3.28665  0.00000 -0.57331
       5     C     3.15183  3.15183  0.00000 -0.30365
       6     H     0.40595  0.40595  0.00000  0.18809
       7     H     0.40687  0.40687  0.00000  0.18626
       8     C     3.16710  3.16710  0.00000 -0.33420
       9     H     0.41942  0.41942  0.00000  0.16115
      10     H     0.41929  0.41929  0.00000  0.16143
      11     C     3.14738  3.14738  0.00000 -0.29476
      12     H     0.43260  0.43260  0.00000  0.13480
      13     H     0.37434  0.37434  0.00000  0.25131
      14     C     3.14977  3.14977  0.00000 -0.29954
      15     H     0.43293  0.43293  0.00000  0.13415
      16     H     0.42903  0.42903  0.00000  0.14194
      17     C     3.23844  3.23844  0.00000 -0.47687
      18     H     0.42499  0.42499  0.00000  0.15002
      19     H     0.42212  0.42212  0.00000  0.15575
      20     H     0.42362  0.42362  0.00000  0.15275
      21     H     0.42148  0.42148  0.00000  0.15704
      22     H     0.42332  0.42332  0.00000  0.15335
      23     H     0.40779  0.40779  0.00000  0.18442
      24     H     0.39610  0.39610  0.00000  0.20780
      25     H     0.40782  0.40782  0.00000  0.18435

   Total alpha = 36.00000, Total beta = 36.00000, Total charge =  0.00000
