                              Psi4 1.0.54 Driver

  ==> Input File <==

--------------------------------------------------------------------------
set {
	reference rhf
	basis cc-pvtz
}

set_num_threads( 4 )
memory 2 gb

molecule MOL {
0 1

H	 1.036592	 -0.996233	 1.150237
O	 1.303903	 -0.620616	 0.330537
C	 0.704124	 0.627169	 0.166450
C	 -0.793473	 0.591216	 0.050087
H	 1.122037	 1.051674	 -0.738783
H	 0.977497	 1.298631	 0.978302
C	 -1.534243	 -0.493009	 -0.013340
H	 -1.264533	 1.559845	 0.016790
H	 -1.101195	 -1.466332	 -0.144046
H	 -2.604242	 -0.437780	 0.050785

	symmetry c1
}
set optking {
	frozen_dihedral = ("
		3 4 7 9
	")
}

ee,wfn = optimize('scf', return_wfn=True)
oeprop( wfn, 'DIPOLE', 'QUADRUPOLE', 'MULLIKEN_CHARGES')
f=open( 'psi4out.xyz', 'w' )
f.write( "10  " )
f.write( str(ee) + "\n" )
f.write( MOL.save_string_xyz() )
f.close()
--------------------------------------------------------------------------

    Molecular point group: c1
  Charge       = 0
  Multiplicity = 1
  Basis Set: CC-PVTZ
  Basis Set:
  @DF-RHF Final Energy:  -191.99693817538656
    Total Energy =                       -191.9969381753863900
    Molecular point group: c1
  Basis Set: CC-PVTZ
  Basis Set:
  Basis Set: CC-PVTZ
  Basis Set:
  @DF-RHF Final Energy:  -191.99802956025621
    Total Energy =                       -191.9980295602561569
  Basis Set: CC-PVTZ
  Basis Set:
  Basis Set: CC-PVTZ
  Basis Set:
  @DF-RHF Final Energy:  -191.99817599675009
    Total Energy =                       -191.9981759967500352
  Basis Set: CC-PVTZ
  Basis Set:
  Basis Set: CC-PVTZ
  Basis Set:
  @DF-RHF Final Energy:  -191.99817819767605
    Total Energy =                       -191.9981781976759123
  Basis Set: CC-PVTZ
  Basis Set:
  Charge       = 0
  Multiplicity = 1
  Basis Set: CC-PVTZ
  Basis Set:

    Orbital Energies (a.u.)
    -----------------------

    Doubly Occupied:

       1A    -20.554426     2A    -11.278412     3A    -11.231348
       4A    -11.217018     5A     -1.375033     6A     -1.062665
       7A     -0.932773     8A     -0.772130     9A     -0.692315
      10A     -0.665660    11A     -0.621967    12A     -0.573793
      13A     -0.539972    14A     -0.498198    15A     -0.452381
      16A     -0.369286

  @DF-RHF Final Energy:  -191.99817954431907

   => Energetics <=

    Nuclear Repulsion Energy =            119.5683515604954721
    One-Electron Energy =                -497.4583139943551942
    Two-Electron Energy =                 185.8917828895407354
    DFT Exchange-Correlation Energy =       0.0000000000000000
    Empirical Dispersion Energy =           0.0000000000000000
    PCM Polarization Energy =               0.0000000000000000
    EFP Energy =                            0.0000000000000000
    Total Energy =                       -191.9981795443190151
    Molecular point group: c1
  Basis Set: CC-PVTZ
  Basis Set:

  -Total Gradient:
     Atom            X                  Y                   Z
    ------   -----------------  -----------------  -----------------
       1       -0.000005960313    -0.000006420177    -0.000001607792
       2       -0.000025045699    -0.000013313470     0.000001071610
       3       -0.000316041376     0.000186216606     0.003724510855
       4        0.000446498753    -0.000110554432    -0.008317079390
       5       -0.000005811343    -0.000001146232    -0.000008136815
       6       -0.000002789082    -0.000000625825    -0.000003189753
       7        0.000186517804    -0.000344966243     0.009562003588
       8        0.000002780606    -0.000004325222    -0.000006195496
       9       -0.000279764308     0.000288189087    -0.004962340978
      10       -0.000000385042     0.000006945909     0.000010964171

  **** Optimization is complete! (in 5 steps) ****
    Final optimized geometry and variables:
    Molecular point group: c1

    Geometry (in Angstrom), charge = 0, multiplicity = 1:

    H            1.042028145705    -1.016865453307     0.937106612982
    O            1.322883008219    -0.601374420876     0.141469431629
    C            0.704194600612     0.641264535353     0.016461852304
    C           -0.791901122419     0.585431534616    -0.110505167704
    H            1.128903162992     1.107542998079    -0.864848783209
    H            0.952342329229     1.285786273504     0.857715270790
    C           -1.522168916151    -0.507926361021    -0.131412071901
    H           -1.277522225729     1.547488100983    -0.104609660615
    H           -1.078755061258    -1.482069971955    -0.214836796859
    H           -2.593598642067    -0.455901268814    -0.171290512465

  Mulliken Charges: (a.u.)
   Center  Symbol    Alpha    Beta     Spin     Total
       1     H     0.39070  0.39070  0.00000  0.21861
       2     O     4.19973  4.19973  0.00000 -0.39946
       3     C     2.95009  2.95009  0.00000  0.09981
       4     C     3.08185  3.08185  0.00000 -0.16371
       5     H     0.45363  0.45363  0.00000  0.09274
       6     H     0.46874  0.46874  0.00000  0.06253
       7     C     3.18017  3.18017  0.00000 -0.36033
       8     H     0.42338  0.42338  0.00000  0.15325
       9     H     0.42326  0.42326  0.00000  0.15347
      10     H     0.42845  0.42845  0.00000  0.14309

   Total alpha = 16.00000, Total beta = 16.00000, Total charge =  0.00000

*** Psi4 exiting successfully. Buy a developer a beer!
