  ==> Input File <==

--------------------------------------------------------------------------
set {
	reference rhf
	basis 6-31G*
}

set_num_threads( 4 )
memory 2 gb

molecule MOL {
0 1

H	 1.114066	 2.270122	 2.709555
O	 1.762284	 2.066844	 2.049108
C	 1.235178	 1.313871	 1.063021
C	 2.080637	 0.940938	 0.022799
C	 -0.086898	 0.913588	 1.058397
H	 3.104050	 1.264635	 0.049334
C	 1.600269	 0.170392	 -1.015743
H	 -0.760392	 1.186383	 1.846759
C	 -0.536158	 0.140425	 0.000000
H	 2.259924	 -0.112981	 -1.814750
C	 0.275533	 -0.244528	 -1.043319
N	 -1.935604	 -0.280333	 0.000000
H	 -0.111675	 -0.842473	 -1.842029
O	 -2.161694	 -1.452901	 0.000000
O	 -2.770341	 0.571417	 0.000000

	symmetry c1
}
set optking {
	frozen_dihedral = ("
		11 9 12 14
	")
}

ee = optimize('scf')
oeprop('DIPOLE', 'QUADRUPOLE', 'MULLIKEN_CHARGES')
f=open( 'psi4out.xyz', 'w' )
f.write( "15  " )
f.write( str(ee) + "\n" )
f.write( MOL.save_string_xyz() )
f.close()
--------------------------------------------------------------------------

    Molecular point group: c1
  Charge       = 0
  Multiplicity = 1
  Basis Set: 6-31G*
  Basis Set:
  @DF-RHF Final Energy:  -509.01996402343178
    Total Energy =                       -509.0199640234313847
    Molecular point group: c1
  Basis Set: 6-31G*
  Basis Set:
  Basis Set: 6-31G*
  Basis Set:
  @DF-RHF Final Energy:  -509.01459703990025
    Total Energy =                       -509.0145970399000817
  Basis Set: 6-31G*
  Basis Set:
  Basis Set: 6-31G*
  Basis Set:
  @DF-RHF Final Energy:  -509.02033996633457
    Total Energy =                       -509.0203399663346318
  Basis Set: 6-31G*
  Basis Set:
  Basis Set: 6-31G*
  Basis Set:
  @DF-RHF Final Energy:  -509.02058953654176
    Total Energy =                       -509.0205895365418201
  Basis Set: 6-31G*
  Basis Set:
  Basis Set: 6-31G*
  Basis Set:
  @DF-RHF Final Energy:  -509.02059294353126
    Total Energy =                       -509.0205929435310281
  Basis Set: 6-31G*
  Basis Set:
  Charge       = 0
  Multiplicity = 1
  Basis Set: 6-31G*
  Basis Set:

    Orbital Energies (a.u.)
    -----------------------

    Doubly Occupied:

       1A    -20.617540     2A    -20.609322     3A    -20.608624
       4A    -15.859047     5A    -11.333037     6A    -11.315413
       7A    -11.268577     8A    -11.268537     9A    -11.263849
      10A    -11.256385    11A     -1.640640    12A     -1.438531
      13A     -1.424600    14A     -1.202447    15A     -1.095875
      16A     -1.048383    17A     -0.965929    18A     -0.883298
      19A     -0.830066    20A     -0.789477    21A     -0.761570
      22A     -0.734544    23A     -0.720114    24A     -0.710837
      25A     -0.669674    26A     -0.635633    27A     -0.617687
      28A     -0.593265    29A     -0.562992    30A     -0.548333
      31A     -0.529371    32A     -0.490628    33A     -0.487584
      34A     -0.454535    35A     -0.374468    36A     -0.343320

  @DF-RHF Final Energy:  -509.02059350268155

   => Energetics <=

    Nuclear Repulsion Energy =            502.9571471318585054
    One-Electron Energy =               -1692.0472237774458790
    Two-Electron Energy =                 680.0694831429057103
    DFT Exchange-Correlation Energy =       0.0000000000000000
    Empirical Dispersion Energy =           0.0000000000000000
    PCM Polarization Energy =               0.0000000000000000
    EFP Energy =                            0.0000000000000000
    Total Energy =                       -509.0205935026817770
    Molecular point group: c1
  Basis Set: 6-31G*
  Basis Set:

  -Total Gradient:
     Atom            X                  Y                   Z
    ------   -----------------  -----------------  -----------------
       1        0.000001126699    -0.000005320663     0.000006506340
       2       -0.000005788501     0.000011533613    -0.000002961505
       3       -0.000001256780    -0.000026227406    -0.000030514843
       4        0.000011926938    -0.000030310988     0.000031701963
       5        0.000023717808    -0.000130760574     0.000016067985
       6        0.000002975687    -0.000000943846    -0.000001727031
       7       -0.000030089240     0.000057432829    -0.000029047623
       8       -0.000013755161     0.000001833226     0.000018564442
       9        0.001703880707    -0.006539391320     0.005961921492
      10        0.000000724924    -0.000005466004     0.000005957087
      11       -0.001203738793     0.004574509274    -0.002503484281
      12       -0.000463677622     0.002378315682    -0.009744221350
      13       -0.000007994432    -0.000013249208    -0.000008644987
      14       -0.000042331673    -0.000252877478     0.006281438079
      15        0.000024279442    -0.000019077136    -0.000001555769

  **** Optimization is complete! (in 6 steps) ****
    Final optimized geometry and variables:
    Molecular point group: c1

    Geometry (in Angstrom), charge = 0, multiplicity = 1:

    H            1.226999066308     1.859887782682     2.453497635411
    O            1.877507179329     1.648194073628     1.798049938625
    C            1.354483006303     0.893584885998     0.813133900974
    C            2.200245116181     0.527506547346    -0.229531945785
    C            0.030214461269     0.494164477824     0.804720138967
    H            3.220698077403     0.860231701590    -0.205776419526
    C            1.721707307031    -0.241290295501    -1.269683412267
    H           -0.653458032457     0.791503019112     1.578245520709
    C           -0.400453323039    -0.304412832094    -0.237619023482
    H            2.378706042813    -0.509086339872    -2.076322044532
    C            0.401840063662    -0.675567861511    -1.288856102725
    N           -1.807952048219    -0.690855854634    -0.260495114641
    H            0.018504418061    -1.286945164378    -2.082360069398
    O           -2.052267362703    -1.857107289368    -0.301524077067
    O           -2.614842147956     0.184985050539    -0.191292974581

  Mulliken Charges: (a.u.)
   Center  Symbol    Alpha    Beta     Spin     Total
       1     H     0.26735  0.26735  0.00000  0.46529
       2     O     4.37439  4.37439  0.00000 -0.74878
       3     C     2.79229  2.79229  0.00000  0.41542
       4     C     3.11395  3.11395  0.00000 -0.22790
       5     C     3.13399  3.13399  0.00000 -0.26799
       6     H     0.38188  0.38188  0.00000  0.23623
       7     C     3.09684  3.09684  0.00000 -0.19367
       8     H     0.37824  0.37824  0.00000  0.24352
       9     C     2.89218  2.89218  0.00000  0.21564
      10     H     0.38663  0.38663  0.00000  0.22673
      11     C     3.10065  3.10065  0.00000 -0.20130
      12     N     3.25795  3.25795  0.00000  0.48409
      13     H     0.37502  0.37502  0.00000  0.24995
      14     O     4.22258  4.22258  0.00000 -0.44517
      15     O     4.22604  4.22604  0.00000 -0.45208

   Total alpha = 36.00000, Total beta = 36.00000, Total charge =  0.00000
