  ==> Input File <==

--------------------------------------------------------------------------
set {
	reference rhf
	basis cc-pvtz
}

set_num_threads( 4 )
memory 2 gb

molecule MOL {
0 1

H	 -0.000105	 1.988529	 0.748933
O	 -0.000098	 1.879786	 -0.188206
C	 -0.000014	 0.545691	 -0.532416
C	 -1.286000	 -0.125171	 -0.046657
C	 1.286016	 -0.125031	 -0.046584
H	 0.000021	 0.481103	 -1.610604
F	 -2.305501	 0.360112	 -0.711472
F	 -1.269441	 -1.421770	 -0.226289
F	 -1.494908	 0.108956	 1.231199
F	 2.317750	 0.468717	 -0.594166
F	 1.336617	 -1.393765	 -0.365123
F	 1.414467	 -0.024806	 1.259108

	symmetry c1
}
set optking {
	frozen_dihedral = ("
		7 4 3 6
	")
}

ee = optimize('scf')
oeprop('DIPOLE', 'QUADRUPOLE', 'MULLIKEN_CHARGES')
f=open( 'psi4out.xyz', 'w' )
f.write( "12  " )
f.write( str(ee) + "\n" )
f.write( MOL.save_string_xyz() )
f.close()
--------------------------------------------------------------------------

    Molecular point group: c1
  Charge       = 0
  Multiplicity = 1
  Basis Set: CC-PVTZ
  Basis Set:
  @DF-RHF Final Energy:  -786.58921423833453
    Total Energy =                       -786.5892142383343071
    Molecular point group: c1
  Basis Set: CC-PVTZ
  Basis Set:
  Basis Set: CC-PVTZ
  Basis Set:
  @DF-RHF Final Energy:  -786.58930517263718
    Total Energy =                       -786.5893051726371823
  Basis Set: CC-PVTZ
  Basis Set:
  Basis Set: CC-PVTZ
  Basis Set:
  @DF-RHF Final Energy:  -786.58935317584235
    Total Energy =                       -786.5893531758420067
  Basis Set: CC-PVTZ
  Basis Set:
  Basis Set: CC-PVTZ
  Basis Set:
  @DF-RHF Final Energy:  -786.58936131258702
    Total Energy =                       -786.5893613125864476
  Basis Set: CC-PVTZ
  Basis Set:
  Charge       = 0
  Multiplicity = 1
  Basis Set: CC-PVTZ
  Basis Set:

    Orbital Energies (a.u.)
    -----------------------

    Doubly Occupied:

       1A    -26.359373     2A    -26.358208     3A    -26.357530
       4A    -26.356532     5A    -26.354443     6A    -26.353441
       7A    -20.609672     8A    -11.520488     9A    -11.519275
      10A    -11.351556    11A     -1.772131    12A     -1.766529
      13A     -1.667736    14A     -1.663664    15A     -1.663184
      16A     -1.660929    17A     -1.439590    18A     -1.102901
      19A     -1.002015    20A     -0.945313    21A     -0.871142
      22A     -0.869104    23A     -0.859264    24A     -0.852460
      25A     -0.840129    26A     -0.822461    27A     -0.749163
      28A     -0.734301    29A     -0.731725    30A     -0.725903
      31A     -0.696131    32A     -0.691785    33A     -0.690050
      34A     -0.681832    35A     -0.677687    36A     -0.669026
      37A     -0.663762    38A     -0.657354    39A     -0.625547
      40A     -0.554322    41A     -0.510186

  @DF-RHF Final Energy:  -786.58936208363900

   => Energetics <=

    Nuclear Repulsion Energy =            670.8074640715755095
    One-Electron Energy =               -2428.7979660909145423
    Two-Electron Energy =                 971.4011399356998027
    DFT Exchange-Correlation Energy =       0.0000000000000000
    Empirical Dispersion Energy =           0.0000000000000000
    PCM Polarization Energy =               0.0000000000000000
    EFP Energy =                            0.0000000000000000
    Total Energy =                       -786.5893620836393438
    Molecular point group: c1
  Basis Set: CC-PVTZ
  Basis Set:

  -Total Gradient:
     Atom            X                  Y                   Z
    ------   -----------------  -----------------  -----------------
       1       -0.000011250898    -0.000048534307    -0.000025459937
       2        0.000014137856    -0.000029273212    -0.000042383788
       3        0.000773494383    -0.001476411164    -0.000081458836
       4       -0.000358135743     0.001327191343     0.000982796775
       5        0.000017458048     0.000013959251    -0.000104070204
       6       -0.000570619432     0.001114001285    -0.000055582762
       7        0.000085097919    -0.000787652632    -0.000802455510
       8       -0.000022568643    -0.000019523532     0.000043916096
       9        0.000050977127    -0.000102944322    -0.000009042069
      10        0.000007939171    -0.000030937727     0.000003617950
      11       -0.000010120391     0.000077369321     0.000040318046
      12        0.000023590610    -0.000037244309     0.000049804228

  **** Optimization is complete! (in 5 steps) ****
    Final optimized geometry and variables:
    Molecular point group: c1

    Geometry (in Angstrom), charge = 0, multiplicity = 1:

    H           -0.024625911705     2.001194409015     0.715072330363
    O            0.002191002713     1.877076893767    -0.219652742271
    C            0.002038495325     0.536990133812    -0.542128466160
    C           -1.285582918501    -0.119655364840    -0.037820636127
    C            1.286767745751    -0.131092970852    -0.051076989591
    H           -0.005313936303     0.462500391574    -1.619431056851
    F           -2.307851999394     0.366054792140    -0.698711533331
    F           -1.284789722873    -1.418728650209    -0.201223081317
    F           -1.476951003912     0.130010999953     1.239427854716
    F            2.322251855461     0.503988806873    -0.540837980004
    F            1.368421621568    -1.381927794022    -0.428630015607
    F            1.376626917347    -0.091218172198     1.261452842528

  Mulliken Charges: (a.u.)
   Center  Symbol    Alpha    Beta     Spin     Total
       1     H     0.38105  0.38105  0.00000  0.23791
       2     O     4.19012  4.19012  0.00000 -0.38024
       3     C     3.00645  3.00645  0.00000 -0.01291
       4     C     2.68385  2.68385  0.00000  0.63230
       5     C     2.68514  2.68514  0.00000  0.62971
       6     H     0.42413  0.42413  0.00000  0.15173
       7     F     4.60247  4.60247  0.00000 -0.20494
       8     F     4.60192  4.60192  0.00000 -0.20384
       9     F     4.61035  4.61035  0.00000 -0.22069
      10     F     4.60151  4.60151  0.00000 -0.20303
      11     F     4.60278  4.60278  0.00000 -0.20556
      12     F     4.61022  4.61022  0.00000 -0.22045

   Total alpha = 41.00000, Total beta = 41.00000, Total charge = -0.00000
