  ==> Input File <==

--------------------------------------------------------------------------
set {
	reference rhf
	basis cc-pvtz
}

set_num_threads( 4 )
memory 2 gb

molecule MOL {
0 1

H	 1.355369	 0.588532	 -2.583115
C	 0.625333	 0.406513	 -1.805171
C	 1.322304	 0.099773	 -0.484271
H	 -0.000851	 1.287901	 -1.725056
H	 0.001128	 -0.420950	 -2.122999
C	 0.308557	 -0.162619	 0.622645
H	 1.952528	 0.930976	 -0.193320
H	 1.958093	 -0.770415	 -0.591429
N	 -1.069352	 -0.004081	 0.085342
H	 0.371632	 -1.172932	 0.991288
H	 0.400391	 0.548875	 1.426218
O	 -1.584901	 -0.965470	 -0.377818
O	 -1.548033	 1.079343	 0.130056

	symmetry c1
}
set optking {
	frozen_dihedral = ("
		7 3 6 9
	")
}

ee = optimize('scf')
oeprop('DIPOLE', 'QUADRUPOLE', 'MULLIKEN_CHARGES')
f=open( 'psi4out.xyz', 'w' )
f.write( "13  " )
f.write( str(ee) + "\n" )
f.write( MOL.save_string_xyz() )
f.close()
--------------------------------------------------------------------------

    Molecular point group: c1
  Charge       = 0
  Multiplicity = 1
  Basis Set: CC-PVTZ
  Basis Set:
  @DF-RHF Final Energy:  -321.84847348053569
    Total Energy =                       -321.8484734805355174
    Molecular point group: c1
  Basis Set: CC-PVTZ
  Basis Set:
  Basis Set: CC-PVTZ
  Basis Set:
  @DF-RHF Final Energy:  -321.84774865754315
    Total Energy =                       -321.8477486575432067
  Basis Set: CC-PVTZ
  Basis Set:
  Basis Set: CC-PVTZ
  Basis Set:
  @DF-RHF Final Energy:  -321.85198689371396
    Total Energy =                       -321.8519868937138995
  Basis Set: CC-PVTZ
  Basis Set:
  Basis Set: CC-PVTZ
  Basis Set:
  @DF-RHF Final Energy:  -321.85330235573986
    Total Energy =                       -321.8533023557396291
  Basis Set: CC-PVTZ
  Basis Set:
  Basis Set: CC-PVTZ
  Basis Set:
  @DF-RHF Final Energy:  -321.85335539388007
    Total Energy =                       -321.8533553938800651
  Basis Set: CC-PVTZ
  Basis Set:
  Basis Set: CC-PVTZ
  Basis Set:
  @DF-RHF Final Energy:  -321.85336093684924
    Total Energy =                       -321.8533609368490147
  Basis Set: CC-PVTZ
  Basis Set:
  Charge       = 0
  Multiplicity = 1
  Basis Set: CC-PVTZ
  Basis Set:

    Orbital Energies (a.u.)
    -----------------------

    Doubly Occupied:

       1A    -20.590866     2A    -20.590394     3A    -15.836910
       4A    -11.297311     5A    -11.255443     6A    -11.227021
       7A     -1.636210     8A     -1.420313     9A     -1.127888
      10A     -1.022223    11A     -0.895940    12A     -0.822517
      13A     -0.753936    14A     -0.738207    15A     -0.729162
      16A     -0.667903    17A     -0.605915    18A     -0.589498
      19A     -0.537941    20A     -0.517321    21A     -0.511517
      22A     -0.480182    23A     -0.475667    24A     -0.453435

  @DF-RHF Final Energy:  -321.85336178391771

   => Energetics <=

    Nuclear Repulsion Energy =            254.7869998381209484
    One-Electron Energy =                -943.7132828686699213
    Two-Electron Energy =                 367.0729212466312674
    DFT Exchange-Correlation Energy =       0.0000000000000000
    Empirical Dispersion Energy =           0.0000000000000000
    PCM Polarization Energy =               0.0000000000000000
    EFP Energy =                            0.0000000000000000
    Total Energy =                       -321.8533617839177623
    Molecular point group: c1
  Basis Set: CC-PVTZ
  Basis Set:

  -Total Gradient:
     Atom            X                  Y                   Z
    ------   -----------------  -----------------  -----------------
       1       -0.000029345019    -0.000003787847     0.000029918031
       2        0.000018416053    -0.000029943431     0.000004497384
       3       -0.000760328001     0.000514395559    -0.000590388142
       4       -0.000017314420     0.000013913433    -0.000007842128
       5       -0.000016614363    -0.000002249321    -0.000005664066
       6        0.000115023387     0.000883692315     0.000361608861
       7        0.000658420510    -0.000661459316     0.000427280370
       8        0.000004916175     0.000004071002     0.000009493621
       9        0.000037824960    -0.000741391877    -0.000227087863
      10        0.000018125174     0.000006198699    -0.000000039411
      11        0.000025327769    -0.000006136422    -0.000000889845
      12       -0.000007763997    -0.000012361021    -0.000025927977
      13       -0.000046688232     0.000035058227     0.000025041165

  **** Optimization is complete! (in 7 steps) ****
    Final optimized geometry and variables:
    Molecular point group: c1

    Geometry (in Angstrom), charge = 0, multiplicity = 1:

    H            1.890969921985     0.519584191553    -2.341253978455
    C            1.086315590522     0.346543752717    -1.638356202027
    C            1.679615245828     0.045777219251    -0.263421694731
    H            0.463321786208     1.230949679285    -1.620694327682
    H            0.492810474820    -0.479660015490    -2.006759077427
    C            0.678477702872    -0.239780257537     0.882783374655
    H            2.305916027294     0.872555509359     0.043907821303
    H            2.329279461347    -0.815882699190    -0.343884579928
    N           -0.737911924731    -0.090687378083     0.452965236421
    H            0.758489604764    -1.253250444431     1.234357191449
    H            0.801437869792     0.451140293603     1.698122242647
    O           -1.284784920081    -1.055465556745     0.034747950303
    O           -1.223065167381     0.987310483413     0.543394501527

  Mulliken Charges: (a.u.)
   Center  Symbol    Alpha    Beta     Spin     Total
       1     H     0.44591  0.44591  0.00000  0.10817
       2     C     3.15374  3.15374  0.00000 -0.30748
       3     C     3.09436  3.09436  0.00000 -0.18873
       4     H     0.44257  0.44257  0.00000  0.11486
       5     H     0.44247  0.44247  0.00000  0.11506
       6     C     3.03945  3.03945  0.00000 -0.07890
       7     H     0.44471  0.44471  0.00000  0.11058
       8     H     0.44553  0.44553  0.00000  0.10894
       9     N     3.27404  3.27404  0.00000  0.45192
      10     H     0.43377  0.43377  0.00000  0.13245
      11     H     0.43309  0.43309  0.00000  0.13381
      12     O     4.17518  4.17518  0.00000 -0.35036
      13     O     4.17516  4.17516  0.00000 -0.35033

   Total alpha = 24.00000, Total beta = 24.00000, Total charge = -0.00000
