  ==> Input File <==

--------------------------------------------------------------------------
set {
	reference rhf
	basis cc-pvtz
}

set_num_threads( 4 )
memory 2 gb

molecule MOL {
0 1

H	 -2.450744	 1.179120	 -1.315530
N	 -1.469159	 1.169227	 -1.138149
C	 -0.804225	 0.161796	 -1.943808
H	 -1.339624	 0.971436	 -0.168563
C	 0.680082	 0.149915	 -1.658609
H	 -1.192212	 -0.843904	 -1.787034
H	 -0.946095	 0.405495	 -2.990963
O	 0.881195	 -0.248324	 -0.336237
H	 1.181263	 -0.539063	 -2.337064
H	 1.090789	 1.144351	 -1.817810
C	 2.208068	 -0.234417	 0.074171
H	 2.725499	 -1.027054	 -0.446768
H	 2.688377	 0.712084	 -0.164856
H	 2.295137	 -0.403407	 1.144883

	symmetry c1
}
set optking {
	frozen_dihedral = ("
		5 8 11 13
	")
}

ee = optimize('scf')
oeprop('DIPOLE', 'QUADRUPOLE', 'MULLIKEN_CHARGES')
f=open( 'psi4out.xyz', 'w' )
f.write( "14  " )
f.write( str(ee) + "\n" )
f.write( MOL.save_string_xyz() )
f.close()
--------------------------------------------------------------------------

    Molecular point group: c1
  Charge       = 0
  Multiplicity = 1
  Basis Set: CC-PVTZ
  Basis Set:
  @DF-RHF Final Energy:  -248.22503361478499
    Total Energy =                       -248.2250336147848202
    Molecular point group: c1
  Basis Set: CC-PVTZ
  Basis Set:
  Basis Set: CC-PVTZ
  Basis Set:
  @DF-RHF Final Energy:  -248.22574917890611
    Total Energy =                       -248.2257491789061987
  Basis Set: CC-PVTZ
  Basis Set:
  Basis Set: CC-PVTZ
  Basis Set:
  @DF-RHF Final Energy:  -248.22592548443748
    Total Energy =                       -248.2259254844375391
  Basis Set: CC-PVTZ
  Basis Set:
  Basis Set: CC-PVTZ
  Basis Set:
  @DF-RHF Final Energy:  -248.22592659846862
    Total Energy =                       -248.2259265984685612
  Basis Set: CC-PVTZ
  Basis Set:
  Charge       = 0
  Multiplicity = 1
  Basis Set: CC-PVTZ
  Basis Set:

    Orbital Energies (a.u.)
    -----------------------

    Doubly Occupied:

       1A    -20.550585     2A    -15.523509     3A    -11.264058
       4A    -11.263674     5A    -11.239904     6A     -1.384387
       7A     -1.176006     8A     -1.000622     9A     -0.907732
      10A     -0.815869    11A     -0.685081    12A     -0.676137
      13A     -0.647616    14A     -0.612038    15A     -0.607787
      16A     -0.542195    17A     -0.530245    18A     -0.498392
      19A     -0.474589    20A     -0.419723    21A     -0.383863

  @DF-RHF Final Energy:  -248.22592686835546

   => Energetics <=

    Nuclear Repulsion Energy =            194.6854970516615424
    One-Electron Energy =                -723.4148210947837470
    Two-Electron Energy =                 280.5033971747665760
    DFT Exchange-Correlation Energy =       0.0000000000000000
    Empirical Dispersion Energy =           0.0000000000000000
    PCM Polarization Energy =               0.0000000000000000
    EFP Energy =                            0.0000000000000000
    Total Energy =                       -248.2259268683556570
    Molecular point group: c1
  Basis Set: CC-PVTZ
  Basis Set:

  -Total Gradient:
     Atom            X                  Y                   Z
    ------   -----------------  -----------------  -----------------
       1        0.000000438520    -0.000000295616     0.000001667270
       2       -0.000003128230    -0.000003448613     0.000002480399
       3        0.000004491026     0.000013029892    -0.000005718933
       4       -0.000001339574    -0.000001097843     0.000000619216
       5       -0.000111606556     0.001097607451     0.000336055321
       6        0.000007451200     0.000005655873     0.000004185688
       7       -0.000003215639     0.000000693904    -0.000004539207
       8        0.000274922563    -0.001726836278    -0.000858659117
       9        0.000003017434    -0.000001053570     0.000005060011
      10       -0.000005220271    -0.000003886418     0.000004397520
      11       -0.000544422738     0.001154189648     0.001822628816
      12       -0.000006653724     0.000001767461    -0.000001666994
      13        0.000391262314    -0.000538435205    -0.001305047115
      14       -0.000005996326     0.000002109312    -0.000001462872

  **** Optimization is complete! (in 5 steps) ****
    Final optimized geometry and variables:
    Molecular point group: c1

    Geometry (in Angstrom), charge = 0, multiplicity = 1:

    H           -2.754137731545     0.977217161313    -0.321659619905
    N           -1.771687547762     0.968682219907    -0.149163623123
    C           -1.108807664806    -0.035578037597    -0.960369731506
    H           -1.637120052526     0.768969063763     0.819311584973
    C            0.376704224388    -0.046366229380    -0.680999559033
    H           -1.494823268773    -1.042210074750    -0.804847093210
    H           -1.255083413549     0.210637895179    -2.006364249396
    O            0.582836800766    -0.444501896656     0.640577979539
    H            0.875356355690    -0.733779743918    -1.363233706434
    H            0.785895968872     0.948448639799    -0.839826652277
    C            1.911253721113    -0.439487316973     1.047392762956
    H            2.473192839406    -1.240319235679     0.570815762700
    H            2.398041397816     0.502402381322     0.807009288517
    H            1.935141892294    -0.587411941770     2.117265676786

  Mulliken Charges: (a.u.)
   Center  Symbol    Alpha    Beta     Spin     Total
       1     H     0.43024  0.43024  0.00000  0.13952
       2     N     3.69418  3.69418  0.00000 -0.38836
       3     C     3.02202  3.02202  0.00000 -0.04405
       4     H     0.42245  0.42245  0.00000  0.15510
       5     C     2.96949  2.96949  0.00000  0.06102
       6     H     0.46451  0.46451  0.00000  0.07098
       7     H     0.45869  0.45869  0.00000  0.08261
       8     O     4.18030  4.18030  0.00000 -0.36061
       9     H     0.47058  0.47058  0.00000  0.05883
      10     H     0.46760  0.46760  0.00000  0.06481
      11     C     3.03149  3.03149  0.00000 -0.06297
      12     H     0.46918  0.46918  0.00000  0.06163
      13     H     0.47158  0.47158  0.00000  0.05685
      14     H     0.44768  0.44768  0.00000  0.10463

   Total alpha = 21.00000, Total beta = 21.00000, Total charge = -0.00000
