  ==> Input File <==

--------------------------------------------------------------------------
set {
	reference rhf
	basis 6-31G*
}

set_num_threads( 4 )
memory 2 gb

molecule MOL {
0 1

H	 1.920128	 -0.266928	 2.344986
O	 1.227428	 0.281236	 2.005320
C	 1.135793	 0.118896	 0.612333
C	 0.031547	 1.023609	 0.088541
H	 0.900380	 -0.914481	 0.364133
H	 2.084726	 0.357299	 0.137157
C	 -1.134819	 0.293262	 -0.585751
H	 0.474374	 1.714721	 -0.623187
H	 -0.338529	 1.620940	 0.920081
C	 -1.917817	 -0.639439	 0.339494
H	 -0.758119	 -0.268455	 -1.433105
H	 -1.813832	 1.041889	 -0.986690
H	 -2.777680	 -1.057197	 -0.174994
H	 -1.310268	 -1.471279	 0.680599
H	 -2.283753	 -0.111424	 1.216626

	symmetry c1
}
set optking {
	frozen_dihedral = ("
		2 3 4 8
	")
}

ee = optimize('scf')
oeprop('DIPOLE', 'QUADRUPOLE', 'MULLIKEN_CHARGES')
f=open( 'psi4out.xyz', 'w' )
f.write( "15  " )
f.write( str(ee) + "\n" )
f.write( MOL.save_string_xyz() )
f.close()
--------------------------------------------------------------------------

    Molecular point group: c1
  Charge       = 0
  Multiplicity = 1
  Basis Set: 6-31G*
  Basis Set:
  @DF-RHF Final Energy:  -232.13750826297135
    Total Energy =                       -232.1375082629711528
    Molecular point group: c1
  Basis Set: 6-31G*
  Basis Set:
  Basis Set: 6-31G*
  Basis Set:
  @DF-RHF Final Energy:  -232.13803604642595
    Total Energy =                       -232.1380360464260093
  Basis Set: 6-31G*
  Basis Set:
  Basis Set: 6-31G*
  Basis Set:
  @DF-RHF Final Energy:  -232.13825466499341
    Total Energy =                       -232.1382546649932692
  Basis Set: 6-31G*
  Basis Set:
  Basis Set: 6-31G*
  Basis Set:
  @DF-RHF Final Energy:  -232.13826932818708
    Total Energy =                       -232.1382693281871070
  Basis Set: 6-31G*
  Basis Set:
  Basis Set: 6-31G*
  Basis Set:
  @DF-RHF Final Energy:  -232.13826897728569
    Total Energy =                       -232.1382689772858043
  Basis Set: 6-31G*
  Basis Set:
  Basis Set: 6-31G*
  Basis Set:
  @DF-RHF Final Energy:  -232.13826969920822
    Total Energy =                       -232.1382696992081947
  Basis Set: 6-31G*
  Basis Set:
  Charge       = 0
  Multiplicity = 1
  Basis Set: 6-31G*
  Basis Set:

    Orbital Energies (a.u.)
    -----------------------

    Doubly Occupied:

       1A    -20.551789     2A    -11.267659     3A    -11.215905
       4A    -11.211084     5A    -11.205209     6A     -1.357741
       7A     -1.066099     8A     -0.967189     9A     -0.866517
      10A     -0.784466    11A     -0.697582    12A     -0.647813
      13A     -0.613423    14A     -0.573480    15A     -0.553001
      16A     -0.541099    17A     -0.502019    18A     -0.476150
      19A     -0.470034    20A     -0.456188    21A     -0.427699

  @DF-RHF Final Energy:  -232.13827642321638

   => Energetics <=

    Nuclear Repulsion Energy =            190.1095594147031420
    One-Electron Energy =                -691.5913802191099649
    Two-Electron Energy =                 269.3435443811902132
    DFT Exchange-Correlation Energy =       0.0000000000000000
    Empirical Dispersion Energy =           0.0000000000000000
    PCM Polarization Energy =               0.0000000000000000
    EFP Energy =                            0.0000000000000000
    Total Energy =                       -232.1382764232166096
    Molecular point group: c1
  Basis Set: 6-31G*
  Basis Set:

  -Total Gradient:
     Atom            X                  Y                   Z
    ------   -----------------  -----------------  -----------------
       1       -0.000001862063     0.000003199321    -0.000005155573
       2        0.000850366214     0.001006245369    -0.000092617752
       3       -0.001036908843    -0.001074167493     0.000466576733
       4       -0.000062498804    -0.000980373568    -0.001677643870
       5        0.000005281001    -0.000003352407    -0.000000902928
       6       -0.000007457917     0.000001022812    -0.000006801764
       7       -0.000002028839    -0.000001331027    -0.000000284721
       8        0.000251827234     0.001059980017     0.001328631690
       9        0.000003216942    -0.000005019591    -0.000008368959
      10       -0.000000846867     0.000002502036     0.000002748720
      11       -0.000005410621    -0.000003362502    -0.000003997655
      12        0.000004498776     0.000001730340     0.000004656056
      13       -0.000002611283    -0.000002371155    -0.000001028977
      14        0.000002068637    -0.000000872764     0.000001279222
      15        0.000002366432    -0.000003829389    -0.000007090223

  **** Optimization is complete! (in 7 steps) ****
    Final optimized geometry and variables:
    Molecular point group: c1

    Geometry (in Angstrom), charge = 0, multiplicity = 1:

    H            2.019511264613    -0.534789036309     1.773459112703
    O            1.320986426846     0.020360443413     1.456554303686
    C            1.249129329896    -0.069532061597     0.054153904030
    C            0.114505772380     0.837506306102    -0.443013359989
    H            1.076421536433    -1.100084746190    -0.248692765357
    H            2.196069093550     0.236607100589    -0.384800346509
    C           -1.036216186354     0.095396453143    -1.130188382477
    H            0.517076429642     1.589217696827    -1.115633754070
    H           -0.265489221797     1.377089316684     0.418376922881
    C           -1.840273459982    -0.792664478344    -0.179502630529
    H           -0.645095646274    -0.504246578074    -1.950163792908
    H           -1.703460784934     0.824919606479    -1.581846427674
    H           -2.633198975542    -1.312326650961    -0.708815820406
    H           -1.216567406789    -1.541347736218     0.298468283178
    H           -2.296979619708    -0.200060825134     0.607424237836

  Mulliken Charges: (a.u.)
   Center  Symbol    Alpha    Beta     Spin     Total
       1     H     0.28219  0.28219  0.00000  0.43562
       2     O     4.37119  4.37119  0.00000 -0.74238
       3     C     2.99715  2.99715  0.00000  0.00570
       4     C     3.16708  3.16708  0.00000 -0.33416
       5     H     0.42980  0.42980  0.00000  0.14040
       6     H     0.42925  0.42925  0.00000  0.14150
       7     C     3.15869  3.15869  0.00000 -0.31739
       8     H     0.41887  0.41887  0.00000  0.16225
       9     H     0.40367  0.40367  0.00000  0.19267
      10     C     3.23880  3.23880  0.00000 -0.47760
      11     H     0.42501  0.42501  0.00000  0.14999
      12     H     0.42035  0.42035  0.00000  0.15931
      13     H     0.42097  0.42097  0.00000  0.15805
      14     H     0.41837  0.41837  0.00000  0.16325
      15     H     0.41860  0.41860  0.00000  0.16280

   Total alpha = 21.00000, Total beta = 21.00000, Total charge =  0.00000
