                              Psi4 1.0.54 Driver

  ==> Input File <==

--------------------------------------------------------------------------
set {
	reference rhf
	basis cc-pvtz
}

set_num_threads( 4 )
memory 2 gb

molecule MOL {
0 1

O	 1.847685	 1.294399	 -0.000190
C	 1.704209	 0.119472	 -0.000093
C	 0.380337	 -0.600947	 -0.000234
O	 2.715427	 -0.733672	 0.000025
C	 -0.824290	 0.329213	 -0.000115
H	 0.371455	 -1.255476	 -0.865660
H	 0.371410	 -1.255787	 0.864952
C	 -2.146151	 -0.432825	 -0.000068
H	 -0.773936	 0.979158	 -0.866319
H	 -0.773838	 0.979034	 0.866186
C	 -3.366283	 0.483552	 0.000557
H	 -2.189286	 -1.084450	 -0.869996
H	 -2.188867	 -1.085083	 0.869399
C	 -4.655983	 -0.235864	 -0.379610
H	 -3.196067	 1.306567	 -0.687796
H	 -3.478617	 0.929231	 0.984890
H	 -4.587363	 -0.663544	 -1.374404
H	 -5.501245	 0.442491	 -0.369573
H	 -4.872363	 -1.043613	 0.311734
C	 4.020999	 -0.192556	 0.000019
H	 4.182809	 0.412891	 -0.879449
H	 4.692590	 -1.035653	 0.000152
H	 4.182726	 0.413087	 0.879368

	symmetry c1
}
set optking {
	frozen_dihedral = ("
		15 11 8 12
	")
}

ee,wfn = optimize('scf', return_wfn=True)
oeprop( wfn, 'DIPOLE', 'QUADRUPOLE', 'MULLIKEN_CHARGES')
f=open( 'psi4out.xyz', 'w' )
f.write( "23  " )
f.write( str(ee) + "\n" )
f.write( MOL.save_string_xyz() )
f.close()
--------------------------------------------------------------------------

    Molecular point group: c1
  Charge       = 0
  Multiplicity = 1
  Basis Set: CC-PVTZ
  Basis Set:
  @DF-RHF Final Energy:  -423.13018161718753
    Total Energy =                       -423.1301816171875316
    Molecular point group: c1
  Basis Set: CC-PVTZ
  Basis Set:
  Basis Set: CC-PVTZ
  Basis Set:
  @DF-RHF Final Energy:  -423.13026142558317
    Total Energy =                       -423.1302614255829440
  Basis Set: CC-PVTZ
  Basis Set:
  Basis Set: CC-PVTZ
  Basis Set:
  @DF-RHF Final Energy:  -423.13032166602198
    Total Energy =                       -423.1303216660221551
  Basis Set: CC-PVTZ
  Basis Set:
  Basis Set: CC-PVTZ
  Basis Set:
  @DF-RHF Final Energy:  -423.13023931156278
    Total Energy =                       -423.1302393115629457
  Basis Set: CC-PVTZ
  Basis Set:
  Charge       = 0
  Multiplicity = 1
  Basis Set: CC-PVTZ
  Basis Set:

    Orbital Energies (a.u.)
    -----------------------

    Doubly Occupied:

       1A    -20.596311     2A    -20.534141     3A    -11.364594
       4A    -11.278487     5A    -11.233834     6A    -11.217453
       7A    -11.215722     8A    -11.214404     9A    -11.208027
      10A     -1.472208    11A     -1.365785    12A     -1.094348
      13A     -1.044662    14A     -0.988146    15A     -0.932822
      16A     -0.844525    17A     -0.795974    18A     -0.769380
      19A     -0.699197    20A     -0.686844    21A     -0.675452
      22A     -0.651267    23A     -0.609630    24A     -0.601223
      25A     -0.573888    26A     -0.562706    27A     -0.555227
      28A     -0.525352    29A     -0.522310    30A     -0.508343
      31A     -0.485670    32A     -0.471290    33A     -0.465102
      34A     -0.463291    35A     -0.458605    36A     -0.438496

  @DF-RHF Final Energy:  -423.13032359948596

   => Energetics <=

    Nuclear Repulsion Energy =            452.8676582606892111
    One-Electron Energy =               -1473.7465337282783366
    Two-Electron Energy =                 597.7485518681029362
    DFT Exchange-Correlation Energy =       0.0000000000000000
    Empirical Dispersion Energy =           0.0000000000000000
    PCM Polarization Energy =               0.0000000000000000
    EFP Energy =                            0.0000000000000000
    Total Energy =                       -423.1303235994861325
    Molecular point group: c1
  Basis Set: CC-PVTZ
  Basis Set:

  -Total Gradient:
     Atom            X                  Y                   Z
    ------   -----------------  -----------------  -----------------
       1        0.000036008123    -0.000016199830    -0.000012887109
       2       -0.000070879194    -0.000003324539     0.000035108048
       3       -0.000008369769    -0.000002219990    -0.000007000928
       4        0.000026677426     0.000024159185    -0.000008830733
       5        0.000051317504     0.000044371483     0.000003178424
       6       -0.000002265899     0.000000583952     0.000001893632
       7        0.000001165664     0.000002786253    -0.000001174158
       8        0.001996067004     0.002674348146    -0.001368195548
       9       -0.000004226320    -0.000006636101     0.000003679485
      10       -0.000005027422    -0.000010469532    -0.000003840075
      11       -0.001754049086    -0.002205650764    -0.002231194721
      12       -0.001405322374    -0.001928467240     0.001521574220
      13       -0.000001141353     0.000022732547    -0.000030467249
      14       -0.000053816150    -0.000073246419    -0.000006421553
      15        0.001161665777     0.001462894354     0.002134202055
      16       -0.000001785831    -0.000010746044    -0.000032402173
      17        0.000000397364     0.000008894973     0.000010214407
      18        0.000008602770     0.000006263055     0.000001832802
      19       -0.000001661083     0.000019139433    -0.000007918099
      20        0.000019332688    -0.000006017216    -0.000002037888
      21       -0.000001857564    -0.000005884041    -0.000000238172
      22        0.000012889310     0.000008879461     0.000000154105
      23       -0.000003721575    -0.000006191123     0.000000771229

  **** Optimization is complete! (in 5 steps) ****
    Final optimized geometry and variables:
    Molecular point group: c1

    Geometry (in Angstrom), charge = 0, multiplicity = 1:

    O            1.851221609181     1.282425393203     0.053682370743
    C            1.702905315909     0.108091077984     0.055056299613
    C            0.376301938037    -0.606915100804     0.034920593697
    O            2.710635076912    -0.749033779218     0.074829678448
    C           -0.824061014666     0.328313339144     0.011571794448
    H            0.379022324137    -1.263997359359    -0.828639919293
    H            0.350157162579    -1.258918863443     0.901814713548
    C           -2.148379877917    -0.426960250857    -0.016412254403
    H           -0.753708025238     0.979032526847    -0.852419034366
    H           -0.789080719809     0.977041159449     0.879739367400
    C           -3.370061830247     0.490282173645     0.016258898413
    H           -2.198009166203    -1.066911638651    -0.894559168231
    H           -2.196678277144    -1.103371573498     0.834514984481
    C           -4.672777814177    -0.224234559036    -0.322485200703
    H           -3.214686657454     1.326655223104    -0.659263025204
    H           -3.449932388800     0.931227930279     1.006271916672
    H           -4.649053566204    -0.624629476371    -1.330427808388
    H           -5.519367749992     0.448967845857    -0.253462424038
    H           -4.852633859302    -1.051576253337     0.356301708608
    C            4.018130979378    -0.213107810859     0.095086496011
    H            4.197150072073     0.388935170834    -0.783393075975
    H            4.686380902080    -1.058761330741     0.109070304526
    H            4.167560369413     0.394633539508     0.975172555687

  Mulliken Charges: (a.u.)
   Center  Symbol    Alpha    Beta     Spin     Total
       1     O     4.19702  4.19702  0.00000 -0.39404
       2     C     2.80678  2.80678  0.00000  0.38644
       3     C     3.10152  3.10152  0.00000 -0.20304
       4     O     4.14648  4.14648  0.00000 -0.29297
       5     C     3.08298  3.08298  0.00000 -0.16597
       6     H     0.43995  0.43995  0.00000  0.12009
       7     H     0.43998  0.43998  0.00000  0.12003
       8     C     3.09023  3.09023  0.00000 -0.18046
       9     H     0.44622  0.44622  0.00000  0.10757
      10     H     0.44621  0.44621  0.00000  0.10758
      11     C     3.08441  3.08441  0.00000 -0.16881
      12     H     0.45619  0.45619  0.00000  0.08763
      13     H     0.45550  0.45550  0.00000  0.08901
      14     C     3.14977  3.14977  0.00000 -0.29953
      15     H     0.45350  0.45350  0.00000  0.09300
      16     H     0.45324  0.45324  0.00000  0.09351
      17     H     0.45516  0.45516  0.00000  0.08968
      18     H     0.44787  0.44787  0.00000  0.10426
      19     H     0.45518  0.45518  0.00000  0.08964
      20     C     3.03777  3.03777  0.00000 -0.07554
      21     H     0.45434  0.45434  0.00000  0.09131
      22     H     0.44533  0.44533  0.00000  0.10933
      23     H     0.45436  0.45436  0.00000  0.09128

   Total alpha = 36.00000, Total beta = 36.00000, Total charge = -0.00000

*** Psi4 exiting successfully. Buy a developer a beer!
