  ==> Input File <==

--------------------------------------------------------------------------
set {
	reference rhf
	basis cc-pvtz
}

set_num_threads( 4 )
memory 2 gb

molecule MOL {
0 1

H	 -2.698799	 -0.000846	 0.036018
C	 -1.694291	 -0.000483	 0.434279
O	 -0.828718	 -0.000608	 -0.655022
H	 -1.576855	 0.881100	 1.056504
H	 -1.576401	 -0.881658	 1.057001
C	 0.557892	 0.000078	 -0.420099
C	 1.160033	 -1.399835	 -0.464163
C	 1.303737	 0.979631	 -1.319233
H	 0.636232	 0.361132	 0.597801
H	 0.584584	 -2.077347	 0.154622
H	 2.176042	 -1.374846	 -0.087537
H	 1.195048	 -1.799509	 -1.470948
H	 0.828005	 1.952284	 -1.293381
H	 2.325018	 1.091051	 -0.973772
H	 1.342465	 0.643145	 -2.348708

	symmetry c1
}
set optking {
	frozen_dihedral = ("
		9 6 3 2
	")
}

ee = optimize('scf')
oeprop('DIPOLE', 'QUADRUPOLE', 'MULLIKEN_CHARGES')
f=open( 'psi4out.xyz', 'w' )
f.write( "15  " )
f.write( str(ee) + "\n" )
f.write( MOL.save_string_xyz() )
f.close()
--------------------------------------------------------------------------

    Molecular point group: c1
  Charge       = 0
  Multiplicity = 1
  Basis Set: CC-PVTZ
  Basis Set:
  @DF-RHF Final Energy:  -232.22553875376224
    Total Energy =                       -232.2255387537621800
    Molecular point group: c1
  Basis Set: CC-PVTZ
  Basis Set:
  Basis Set: CC-PVTZ
  Basis Set:
  @DF-RHF Final Energy:  -232.22870924361916
    Total Energy =                       -232.2287092436192211
  Basis Set: CC-PVTZ
  Basis Set:
  Basis Set: CC-PVTZ
  Basis Set:
  @DF-RHF Final Energy:  -232.22934960366069
    Total Energy =                       -232.2293496036606939
  Basis Set: CC-PVTZ
  Basis Set:
  Basis Set: CC-PVTZ
  Basis Set:
  @DF-RHF Final Energy:  -232.22937604039132
    Total Energy =                       -232.2293760403912870
  Basis Set: CC-PVTZ
  Basis Set:
  Basis Set: CC-PVTZ
  Basis Set:
  @DF-RHF Final Energy:  -232.22937910294834
    Total Energy =                       -232.2293791029484851
  Basis Set: CC-PVTZ
  Basis Set:
  Charge       = 0
  Multiplicity = 1
  Basis Set: CC-PVTZ
  Basis Set:

    Orbital Energies (a.u.)
    -----------------------

    Doubly Occupied:

       1A    -20.542834     2A    -11.272521     3A    -11.261896
       4A    -11.206076     5A    -11.205143     6A     -1.377345
       7A     -1.053623     8A     -0.938028     9A     -0.918202
      10A     -0.795689    11A     -0.671334    12A     -0.643261
      13A     -0.637488    14A     -0.582310    15A     -0.552420
      16A     -0.541267    17A     -0.535695    18A     -0.498290
      19A     -0.488962    20A     -0.458549    21A     -0.408106

  @DF-RHF Final Energy:  -232.22937923862335

   => Energetics <=

    Nuclear Repulsion Energy =            197.2325155899604567
    One-Electron Energy =                -705.7457209086642251
    Two-Electron Energy =                 276.2838260800801891
    DFT Exchange-Correlation Energy =       0.0000000000000000
    Empirical Dispersion Energy =           0.0000000000000000
    PCM Polarization Energy =               0.0000000000000000
    EFP Energy =                            0.0000000000000000
    Total Energy =                       -232.2293792386235509
    Molecular point group: c1
  Basis Set: CC-PVTZ
  Basis Set:

  -Total Gradient:
     Atom            X                  Y                   Z
    ------   -----------------  -----------------  -----------------
       1        0.000012216389    -0.000000177534    -0.000011451989
       2       -0.000018997036     0.001194805701     0.000016885388
       3        0.000030398997    -0.002065637123     0.000146040937
       4        0.000000260992    -0.000002909557    -0.000004729415
       5        0.000000638792     0.000004249522    -0.000007291149
       6        0.000075900598     0.002230250100    -0.000611233467
       7        0.000011294649    -0.000001693567    -0.000000281842
       8        0.000019271052     0.000000833610    -0.000006951966
       9       -0.000103339220    -0.001365298144     0.000491008690
      10       -0.000003407857    -0.000000938536     0.000004666791
      11       -0.000012998549     0.000006593705    -0.000005660491
      12        0.000002196517     0.000000669844    -0.000002726738
      13        0.000000755274     0.000004835626     0.000002889418
      14       -0.000017570592    -0.000006273017    -0.000001680876
      15        0.000003379993     0.000000689370    -0.000009483291

  **** Optimization is complete! (in 6 steps) ****
    Final optimized geometry and variables:
    Molecular point group: c1

    Geometry (in Angstrom), charge = 0, multiplicity = 1:

    H           -2.768563781508     0.033967638725     0.425919902666
    C           -1.770622698107     0.071085864867     0.838989814234
    O           -0.874595389893     0.079664089937    -0.222397089840
    H           -1.678986181157     0.969001843372     1.445711744094
    H           -1.633698637688    -0.794113842063     1.483624811579
    C            0.489200938760     0.100017003388     0.118658994811
    C            1.065126065822    -1.307518772871     0.040788069024
    C            1.193936074895     1.064294071968    -0.818510357842
    H            0.594807261821     0.457047421555     1.141042726253
    H            0.532623313799    -1.980661546619     0.702155292934
    H            2.111412198458    -1.313662585957     0.325661009115
    H            0.980661308161    -1.690712255089    -0.969380693719
    H            0.778789107769     2.059586830399    -0.721191887255
    H            2.254841377659     1.109362030183    -0.599970908338
    H            1.067981013304     0.744599853090    -1.846323043966

  Mulliken Charges: (a.u.)
   Center  Symbol    Alpha    Beta     Spin     Total
       1     H     0.44883  0.44883  0.00000  0.10235
       2     C     3.03375  3.03375  0.00000 -0.06750
       3     O     4.18698  4.18698  0.00000 -0.37397
       4     H     0.46974  0.46974  0.00000  0.06052
       5     H     0.47193  0.47193  0.00000  0.05613
       6     C     2.92029  2.92029  0.00000  0.15942
       7     C     3.14102  3.14102  0.00000 -0.28205
       8     C     3.13912  3.13912  0.00000 -0.27823
       9     H     0.46889  0.46889  0.00000  0.06221
      10     H     0.45160  0.45160  0.00000  0.09681
      11     H     0.45506  0.45506  0.00000  0.08989
      12     H     0.45277  0.45277  0.00000  0.09446
      13     H     0.44951  0.44951  0.00000  0.10097
      14     H     0.45835  0.45835  0.00000  0.08330
      15     H     0.45216  0.45216  0.00000  0.09569

   Total alpha = 21.00000, Total beta = 21.00000, Total charge = -0.00000
