  ==> Input File <==

--------------------------------------------------------------------------
set {
	reference rhf
	basis 6-31G*
}

set_num_threads( 4 )
memory 2 gb

molecule MOL {
0 1

O	 1.846825	 1.296220	 0.000415
C	 1.705091	 0.115954	 0.001797
C	 0.381791	 -0.609817	 0.001258
O	 2.721346	 -0.737485	 -0.000216
C	 -0.823008	 0.326187	 0.001381
H	 0.371250	 -1.265087	 -0.865474
H	 0.370908	 -1.265746	 0.867490
C	 -2.149452	 -0.435131	 -0.000098
H	 -0.770201	 0.977095	 -0.865636
H	 -0.771220	 0.975655	 0.869608
C	 -3.368779	 0.488503	 -0.000883
H	 -2.193746	 -1.087250	 -0.871175
H	 -2.195311	 -1.087803	 0.870418
C	 -3.080039	 1.858189	 0.612177
H	 -4.180500	 0.012299	 0.544533
H	 -3.721629	 0.616625	 -1.021774
H	 -2.757772	 1.765525	 1.645507
H	 -3.962968	 2.489579	 0.596872
H	 -2.294868	 2.374491	 0.066972
C	 4.024888	 -0.184556	 -0.001949
H	 4.179030	 0.422472	 -0.882452
H	 4.701782	 -1.024608	 -0.003642
H	 4.181981	 0.421185	 0.878906

	symmetry c1
}
set optking {
	frozen_dihedral = ("
		15 11 8 12
	")
}

ee = optimize('scf')
oeprop('DIPOLE', 'QUADRUPOLE', 'MULLIKEN_CHARGES')
f=open( 'psi4out.xyz', 'w' )
f.write( "23  " )
f.write( str(ee) + "\n" )
f.write( MOL.save_string_xyz() )
f.close()
--------------------------------------------------------------------------

    Molecular point group: c1
  Charge       = 0
  Multiplicity = 1
  Basis Set: 6-31G*
  Basis Set:
  @DF-RHF Final Energy:  -422.96697485402370
    Total Energy =                       -422.9669748540239880
    Molecular point group: c1
  Basis Set: 6-31G*
  Basis Set:
  Basis Set: 6-31G*
  Basis Set:
  @DF-RHF Final Energy:  -422.96755600176755
    Total Energy =                       -422.9675560017678890
  Basis Set: 6-31G*
  Basis Set:
  Basis Set: 6-31G*
  Basis Set:
  @DF-RHF Final Energy:  -422.96957914023835
    Total Energy =                       -422.9695791402391478
  Basis Set: 6-31G*
  Basis Set:
  Basis Set: 6-31G*
  Basis Set:
  @DF-RHF Final Energy:  -422.96952774396908
    Total Energy =                       -422.9695277439689107
  Basis Set: 6-31G*
  Basis Set:
  @DF-RHF Final Energy:  -422.96971990597655
    Total Energy =                       -422.9697199059769446
  Basis Set: 6-31G*
  Basis Set:
  @DF-RHF Final Energy:  -422.96980551541401
    Total Energy =                       -422.9698055154133272
  Basis Set: 6-31G*
  Basis Set:
  Basis Set: 6-31G*
  Basis Set:
  @DF-RHF Final Energy:  -422.96979353264391
    Total Energy =                       -422.9697935326438483
  Basis Set: 6-31G*
  Basis Set:
  Basis Set: 6-31G*
  Basis Set:
  @DF-RHF Final Energy:  -422.96980938583795
    Total Energy =                       -422.9698093858380616
  Basis Set: 6-31G*
  Basis Set:
  Charge       = 0
  Multiplicity = 1
  Basis Set: 6-31G*
  Basis Set:

    Orbital Energies (a.u.)
    -----------------------

    Doubly Occupied:

       1A    -20.603509     2A    -20.545300     3A    -11.372104
       4A    -11.280769     5A    -11.235237     6A    -11.218725
       7A    -11.218132     8A    -11.217037     9A    -11.206954
      10A     -1.469186    11A     -1.362621    12A     -1.091844
      13A     -1.040208    14A     -0.984513    15A     -0.930487
      16A     -0.858845    17A     -0.779078    18A     -0.765421
      19A     -0.696295    20A     -0.683629    21A     -0.672037
      22A     -0.649278    23A     -0.609999    24A     -0.597336
      25A     -0.590713    26A     -0.558512    27A     -0.534331
      28A     -0.525606    29A     -0.518866    30A     -0.514942
      31A     -0.493756    32A     -0.463110    33A     -0.459999
      34A     -0.458014    35A     -0.453605    36A     -0.435294

  @DF-RHF Final Energy:  -422.96980917487747

   => Energetics <=

    Nuclear Repulsion Energy =            458.4038874915087263
    One-Electron Energy =               -1484.5568044012309201
    Two-Electron Energy =                 603.1831077348450663
    DFT Exchange-Correlation Energy =       0.0000000000000000
    Empirical Dispersion Energy =           0.0000000000000000
    PCM Polarization Energy =               0.0000000000000000
    EFP Energy =                            0.0000000000000000
    Total Energy =                       -422.9698091748770139
    Molecular point group: c1
  Basis Set: 6-31G*
  Basis Set:

  -Total Gradient:
     Atom            X                  Y                   Z
    ------   -----------------  -----------------  -----------------
       1        0.000000896587    -0.000001502840    -0.000004907217
       2       -0.000000750753    -0.000000825001     0.000007956829
       3        0.000001636950    -0.000002097973    -0.000011684206
       4        0.000005403033     0.000000689683    -0.000002594997
       5       -0.000010952707     0.000000913092     0.000022029539
       6       -0.000001329608    -0.000004028252    -0.000001849847
       7        0.000002014263     0.000005104878    -0.000003420449
       8       -0.003535044360    -0.004582133012     0.005093288152
       9       -0.000016128509     0.000011806990     0.000003061495
      10        0.000006408178    -0.000013100735    -0.000005395229
      11       -0.001307061662    -0.002493007250    -0.007213181141
      12        0.003221384164     0.004258759559    -0.003228364929
      13       -0.000001382883     0.000012769145     0.000005320388
      14       -0.000013344216    -0.000012943623     0.000009907742
      15        0.001643677142     0.002810099081     0.005334811584
      16       -0.000009254729     0.000006797254     0.000008784967
      17       -0.000021080206     0.000003713805    -0.000002279202
      18        0.000002322031     0.000010690554    -0.000009781537
      19        0.000032088950    -0.000010966199    -0.000002294781
      20       -0.000000159523    -0.000000790215     0.000002071011
      21        0.000000076602     0.000000194273    -0.000000533027
      22        0.000000286076    -0.000000031075    -0.000000494684
      23        0.000000295166    -0.000000112136    -0.000000450462

  **** Optimization is complete! (in 9 steps) ****
    Final optimized geometry and variables:
    Molecular point group: c1

    Geometry (in Angstrom), charge = 0, multiplicity = 1:

    O            1.717053160049     1.033349468289    -0.066447879443
    C            1.550245469293    -0.143628409064    -0.073424878225
    C            0.212000751678    -0.841595067801    -0.062145679979
    O            2.548210199869    -1.018261587348    -0.093027093594
    C           -0.972613796828     0.120204825737    -0.039878178530
    H            0.177933266866    -1.491361454452    -0.932385221212
    H            0.198258600709    -1.502813942588     0.800190396001
    C           -2.307944740915    -0.633744884842    -0.022903862701
    H           -0.920273467713     0.767011660993    -0.910246291736
    H           -0.882988903364     0.767149872579     0.824542208606
    C           -3.570020441567     0.253856958334    -0.101962926886
    H           -2.302468418071    -1.293244989089    -0.887764543013
    H           -2.350850240431    -1.260279238942     0.864190542217
    C           -3.449458242773     1.637448086160     0.546704643525
    H           -4.376842686474    -0.257531263018     0.415729056293
    H           -3.871601698926     0.374824247895    -1.137879327969
    H           -3.170289855980     1.561818088004     1.593892970072
    H           -4.402990025355     2.154612060786     0.499918123201
    H           -2.714369151125     2.262535598175     0.052260344201
    C            3.863050224187    -0.492916083917    -0.105671446913
    H            4.020287539959     0.116856510389    -0.983726113376
    H            4.521997778085    -1.347048262587    -0.120709499884
    H            4.042710086087     0.103158365718     0.777469713898

  Mulliken Charges: (a.u.)
   Center  Symbol    Alpha    Beta     Spin     Total
       1     O     4.28622  4.28622  0.00000 -0.57243
       2     C     2.60500  2.60500  0.00000  0.78999
       3     C     3.20776  3.20776  0.00000 -0.41552
       4     O     4.30725  4.30725  0.00000 -0.61449
       5     C     3.15605  3.15605  0.00000 -0.31210
       6     H     0.40098  0.40098  0.00000  0.19803
       7     H     0.40089  0.40089  0.00000  0.19821
       8     C     3.15620  3.15620  0.00000 -0.31240
       9     H     0.41233  0.41233  0.00000  0.17535
      10     H     0.40898  0.40898  0.00000  0.18204
      11     C     3.15262  3.15262  0.00000 -0.30525
      12     H     0.42229  0.42229  0.00000  0.15542
      13     H     0.42206  0.42206  0.00000  0.15588
      14     C     3.24437  3.24437  0.00000 -0.48875
      15     H     0.42039  0.42039  0.00000  0.15921
      16     H     0.42032  0.42032  0.00000  0.15936
      17     H     0.42182  0.42182  0.00000  0.15637
      18     H     0.41926  0.41926  0.00000  0.16148
      19     H     0.41613  0.41613  0.00000  0.16773
      20     C     3.09242  3.09242  0.00000 -0.18483
      21     H     0.40911  0.40911  0.00000  0.18178
      22     H     0.40845  0.40845  0.00000  0.18311
      23     H     0.40910  0.40910  0.00000  0.18180

   Total alpha = 36.00000, Total beta = 36.00000, Total charge =  0.00000
