                              Psi4 1.0.54 Driver

  ==> Input File <==

--------------------------------------------------------------------------
set {
	reference rhf
	basis cc-pvtz
}

set_num_threads( 4 )
memory 2 gb

molecule MOL {
0 1

H	 -3.436473	 1.252944	 -1.023892
O	 -3.458596	 0.315260	 -0.960865
C	 -3.176635	 -0.080824	 0.355601
C	 -1.763371	 0.265266	 0.799691
H	 -3.321825	 -1.153438	 0.379502
H	 -3.895468	 0.357385	 1.043382
C	 -0.673390	 -0.426948	 -0.013392
H	 -1.631049	 1.344913	 0.747560
H	 -1.664587	 -0.001624	 1.849167
C	 0.737842	 -0.043159	 0.423759
H	 -0.806103	 -0.190518	 -1.063345
H	 -0.797221	 -1.503753	 0.074146
C	 1.621174	 -1.255099	 0.713540
H	 1.191376	 0.569943	 -0.349094
H	 0.683255	 0.579566	 1.314315
C	 3.020945	 -0.922088	 1.232765
H	 1.708174	 -1.858671	 -0.187005
H	 1.121631	 -1.880286	 1.448536
C	 3.921227	 -0.207339	 0.227892
H	 3.503510	 -1.846604	 1.534720
H	 2.935254	 -0.318291	 2.132491
H	 4.020722	 -0.785474	 -0.685309
H	 4.915063	 -0.063693	 0.636424
H	 3.535919	 0.769205	 -0.039514

	symmetry c1
}
set optking {
	frozen_dihedral = ("
		13 10 7 11
	")
}

ee,wfn = optimize('scf', return_wfn=True)
oeprop( wfn, 'DIPOLE', 'QUADRUPOLE', 'MULLIKEN_CHARGES')
f=open( 'psi4out.xyz', 'w' )
f.write( "24  " )
f.write( str(ee) + "\n" )
f.write( MOL.save_string_xyz() )
f.close()
--------------------------------------------------------------------------

    Molecular point group: c1
  Charge       = 0
  Multiplicity = 1
  Basis Set: CC-PVTZ
  Basis Set:
  @DF-RHF Final Energy:  -349.37492993201857
    Total Energy =                       -349.3749299320186310
    Molecular point group: c1
  Basis Set: CC-PVTZ
  Basis Set:
  Basis Set: CC-PVTZ
  Basis Set:
  @DF-RHF Final Energy:  -349.37517702794946
    Total Energy =                       -349.3751770279497464
  Basis Set: CC-PVTZ
  Basis Set:
  Basis Set: CC-PVTZ
  Basis Set:
  @DF-RHF Final Energy:  -349.37523877362236
    Total Energy =                       -349.3752387736221863
  Basis Set: CC-PVTZ
  Basis Set:
  Basis Set: CC-PVTZ
  Basis Set:
  @DF-RHF Final Energy:  -349.37522788981880
    Total Energy =                       -349.3752278898186319
  Basis Set: CC-PVTZ
  Basis Set:
  Basis Set: CC-PVTZ
  Basis Set:
  @DF-RHF Final Energy:  -349.37524406777328
    Total Energy =                       -349.3752440677736217
  Basis Set: CC-PVTZ
  Basis Set:
  Charge       = 0
  Multiplicity = 1
  Basis Set: CC-PVTZ
  Basis Set:

    Orbital Energies (a.u.)
    -----------------------

    Doubly Occupied:

       1A    -20.546272     2A    -11.265273     3A    -11.215544
       4A    -11.212227     5A    -11.210655     6A    -11.209691
       7A    -11.208668     8A    -11.205263     9A     -1.364083
      10A     -1.088378    11A     -1.049022    12A     -0.985562
      13A     -0.915874    14A     -0.851993    15A     -0.802196
      16A     -0.777328    17A     -0.681966    18A     -0.651777
      19A     -0.625546    20A     -0.621310    21A     -0.596476
      22A     -0.577369    23A     -0.573992    24A     -0.530052
      25A     -0.525627    26A     -0.513396    27A     -0.491935
      28A     -0.480807    29A     -0.466653    30A     -0.461079
      31A     -0.455237    32A     -0.443418    33A     -0.422201

  @DF-RHF Final Energy:  -349.37524408099387

   => Energetics <=

    Nuclear Repulsion Energy =            384.4177404235553013
    One-Electron Energy =               -1235.5322335925361585
    Two-Electron Energy =                 501.7392490879871616
    DFT Exchange-Correlation Energy =       0.0000000000000000
    Empirical Dispersion Energy =           0.0000000000000000
    PCM Polarization Energy =               0.0000000000000000
    EFP Energy =                            0.0000000000000000
    Total Energy =                       -349.3752440809936957
    Molecular point group: c1
  Basis Set: CC-PVTZ
  Basis Set:

  -Total Gradient:
     Atom            X                  Y                   Z
    ------   -----------------  -----------------  -----------------
       1        0.000001380343     0.000001321385    -0.000002827323
       2        0.000000402037     0.000001478261     0.000002965883
       3       -0.000001163456    -0.000001716589    -0.000007970700
       4        0.000009332724    -0.000008392760    -0.000000257529
       5        0.000001758212    -0.000001241631     0.000003705949
       6        0.000001947219     0.000001419916     0.000002059658
       7        0.000653246552    -0.002329886801    -0.000113324267
       8        0.000001312205     0.000001542335     0.000001792532
       9       -0.000002519207    -0.000000605335     0.000000685891
      10        0.000460849474     0.000467049890    -0.001844576950
      11       -0.000667544236     0.001877413439     0.000537740209
      12        0.000001807504    -0.000000383510    -0.000002364669
      13       -0.000452974458    -0.000009770549     0.001427057167
      14       -0.000001174969    -0.000001488286    -0.000003389109
      15       -0.000004661217     0.000003454667     0.000002841111
      16        0.000001073482     0.000007329916    -0.000007071818
      17       -0.000002501293    -0.000002709571    -0.000000889180
      18        0.000009301306     0.000001903165     0.000003731524
      19       -0.000003143267    -0.000005198780     0.000002033198
      20       -0.000001400059    -0.000001501586    -0.000000229366
      21       -0.000004860113     0.000000801707    -0.000000808710
      22       -0.000000063961     0.000001048950    -0.000003473752
      23        0.000000211532    -0.000002578163     0.000001050393
      24       -0.000000616346     0.000000709927     0.000001519859

  **** Optimization is complete! (in 6 steps) ****
    Final optimized geometry and variables:
    Molecular point group: c1

    Geometry (in Angstrom), charge = 0, multiplicity = 1:

    H           -3.397700556259     1.568724516398    -1.338379555739
    O           -3.428357206366     0.630435540543    -1.289948138128
    C           -3.164416606925     0.212313007449     0.023491297397
    C           -1.752748620011     0.537445844553     0.487149908656
    H           -3.320694383456    -0.859071416009     0.029916073481
    H           -3.886260822260     0.647587843204     0.710063903895
    C           -0.659335827730    -0.157944251649    -0.321907978656
    H           -1.606886907097     1.616003040752     0.448386275701
    H           -1.667098960726     0.258099568201     1.534701920200
    C            0.765610214794     0.220101009839     0.129524242317
    H           -0.798768447874     0.093359698818    -1.365621900337
    H           -0.799827739333    -1.231719854731    -0.242231236284
    C            1.655002182818    -0.992840337063     0.402166979785
    H            1.224812032846     0.857988600159    -0.616244950876
    H            0.713878178010     0.813134733579     1.039078020544
    C            3.062760573631    -0.661194001620     0.899053595490
    H            1.726836108977    -1.597581240301    -0.499303470991
    H            1.164194924227    -1.616326473254     1.144711867931
    C            3.953169620233     0.038507426491    -0.125181427145
    H            3.545135642704    -1.584889478679     1.204020757757
    H            2.991898961375    -0.047858023723     1.793738211038
    H            4.037230061446    -0.549524357502    -1.033525763129
    H            4.953172541821     0.180785495783     0.268493944317
    H            3.569742837419     1.014279924277    -0.397724884407

  Mulliken Charges: (a.u.)
   Center  Symbol    Alpha    Beta     Spin     Total
       1     H     0.39524  0.39524  0.00000  0.20952
       2     O     4.20389  4.20389  0.00000 -0.40778
       3     C     2.97740  2.97740  0.00000  0.04520
       4     C     3.10105  3.10105  0.00000 -0.20210
       5     H     0.45891  0.45891  0.00000  0.08219
       6     H     0.46057  0.46057  0.00000  0.07887
       7     C     3.09373  3.09373  0.00000 -0.18746
       8     H     0.45772  0.45772  0.00000  0.08457
       9     H     0.45312  0.45312  0.00000  0.09376
      10     C     3.09802  3.09802  0.00000 -0.19604
      11     H     0.44268  0.44268  0.00000  0.11463
      12     H     0.45456  0.45456  0.00000  0.09087
      13     C     3.09439  3.09439  0.00000 -0.18878
      14     H     0.44805  0.44805  0.00000  0.10390
      15     H     0.45629  0.45629  0.00000  0.08742
      16     C     3.09026  3.09026  0.00000 -0.18053
      17     H     0.45237  0.45237  0.00000  0.09526
      18     H     0.44998  0.44998  0.00000  0.10004
      19     C     3.15206  3.15206  0.00000 -0.30412
      20     H     0.44882  0.44882  0.00000  0.10235
      21     H     0.45521  0.45521  0.00000  0.08957
      22     H     0.45467  0.45467  0.00000  0.09066
      23     H     0.44691  0.44691  0.00000  0.10619
      24     H     0.45410  0.45410  0.00000  0.09180

   Total alpha = 33.00000, Total beta = 33.00000, Total charge = -0.00000

*** Psi4 exiting successfully. Buy a developer a beer!
