                              Psi4 1.0.54 Driver

  ==> Input File <==

--------------------------------------------------------------------------
set {
	reference rhf
	basis cc-pvtz
}

set_num_threads( 4 )
memory 2 gb

molecule MOL {
0 1

O	 -2.817697	 1.304178	 0.001046
C	 -2.664672	 0.129869	 0.003507
C	 -3.797908	 -0.860100	 -0.001145
O	 -1.481217	 -0.452708	 0.001092
H	 -4.408836	 -0.679689	 -0.875387
H	 -3.443486	 -1.878443	 -0.002770
H	 -4.412123	 -0.683688	 0.871605
C	 -0.332055	 0.384012	 -0.000250
C	 0.892252	 -0.506059	 -0.000295
H	 -0.360822	 1.020205	 -0.874146
H	 -0.359817	 1.021310	 0.872861
C	 0.542704	 -1.963918	 -0.284594
H	 1.386682	 -0.424350	 0.962270
H	 1.592759	 -0.140920	 -0.744357
C	 1.762600	 -2.880950	 -0.290149
H	 -0.166929	 -2.318265	 0.458936
H	 0.038187	 -2.035108	 -1.244995
C	 1.413874	 -4.337673	 -0.575382
H	 2.266614	 -2.812016	 0.669681
H	 2.472386	 -2.527933	 -1.032894
H	 0.731388	 -4.730158	 0.170951
H	 2.300532	 -4.960838	 -0.572379
H	 0.938453	 -4.443823	 -1.544692

	symmetry c1
}
set optking {
	frozen_dihedral = ("
		13 9 8 10
	")
}

ee,wfn = optimize('scf', return_wfn=True)
oeprop( wfn, 'DIPOLE', 'QUADRUPOLE', 'MULLIKEN_CHARGES')
f=open( 'psi4out.xyz', 'w' )
f.write( "23  " )
f.write( str(ee) + "\n" )
f.write( MOL.save_string_xyz() )
f.close()
--------------------------------------------------------------------------

    Molecular point group: c1
  Charge       = 0
  Multiplicity = 1
  Basis Set: CC-PVTZ
  Basis Set:
  @DF-RHF Final Energy:  -423.12369251368500
    Total Energy =                       -423.1236925136852278
    Molecular point group: c1
  Basis Set: CC-PVTZ
  Basis Set:
  Basis Set: CC-PVTZ
  Basis Set:
  @DF-RHF Final Energy:  -423.12315539907246
    Total Energy =                       -423.1231553990720613
  Basis Set: CC-PVTZ
  Basis Set:
  Basis Set: CC-PVTZ
  Basis Set:
  @DF-RHF Final Energy:  -423.12662005999329
    Total Energy =                       -423.1266200599930016
  Basis Set: CC-PVTZ
  Basis Set:
  Basis Set: CC-PVTZ
  Basis Set:
  @DF-RHF Final Energy:  -423.12626471798268
    Total Energy =                       -423.1262647179827354
  Basis Set: CC-PVTZ
  Basis Set:
  Basis Set: CC-PVTZ
  Basis Set:
  @DF-RHF Final Energy:  -423.12671571341178
    Total Energy =                       -423.1267157134113859
  Basis Set: CC-PVTZ
  Basis Set:
  Basis Set: CC-PVTZ
  Basis Set:
  @DF-RHF Final Energy:  -423.12685202349707
    Total Energy =                       -423.1268520234967809
  Basis Set: CC-PVTZ
  Basis Set:
  Charge       = 0
  Multiplicity = 1
  Basis Set: CC-PVTZ
  Basis Set:

    Orbital Energies (a.u.)
    -----------------------

    Doubly Occupied:

       1A    -20.596648     2A    -20.530261     3A    -11.367141
       4A    -11.280357     5A    -11.231371     6A    -11.223791
       7A    -11.216656     8A    -11.215756     9A    -11.209065
      10A     -1.472193    11A     -1.364921    12A     -1.089903
      13A     -1.041042    14A     -1.002465    15A     -0.932460
      16A     -0.845201    17A     -0.808702    18A     -0.764479
      19A     -0.691940    20A     -0.690897    21A     -0.670196
      22A     -0.644653    23A     -0.606178    24A     -0.590138
      25A     -0.581534    26A     -0.566571    27A     -0.560780
      28A     -0.530098    29A     -0.526683    30A     -0.518047
      31A     -0.489829    32A     -0.473617    33A     -0.470214
      34A     -0.459212    35A     -0.445383    36A     -0.441381

  @DF-RHF Final Energy:  -423.12685201960431

   => Energetics <=

    Nuclear Repulsion Energy =            460.5728698248552178
    One-Electron Energy =               -1489.0999148390069422
    Two-Electron Energy =                 605.4001929945474103
    DFT Exchange-Correlation Energy =       0.0000000000000000
    Empirical Dispersion Energy =           0.0000000000000000
    PCM Polarization Energy =               0.0000000000000000
    EFP Energy =                            0.0000000000000000
    Total Energy =                       -423.1268520196043710
    Molecular point group: c1
  Basis Set: CC-PVTZ
  Basis Set:

  -Total Gradient:
     Atom            X                  Y                   Z
    ------   -----------------  -----------------  -----------------
       1       -0.000061037183     0.000061826789    -0.000012120165
       2        0.000089573614    -0.000097032910     0.000050622023
       3       -0.000000098186     0.000029400802    -0.000015237732
       4       -0.000094745306    -0.000009513942    -0.000031813974
       5       -0.000006025472    -0.000002715665    -0.000010688811
       6        0.000011441166     0.000000926282    -0.000003234187
       7       -0.000001160799     0.000008669459     0.000006734598
       8       -0.002246672518    -0.003394473077    -0.003320840147
       9       -0.002584328536    -0.003359221778     0.002552477042
      10        0.002310850927     0.003332639932     0.002290438919
      11        0.000014345721     0.000003292066     0.000019735288
      12       -0.000022517264     0.000001966772     0.000179329827
      13        0.002551041145     0.003409323030    -0.001594464872
      14        0.000019517689     0.000006056702    -0.000009265301
      15        0.000022149205    -0.000002745527    -0.000057186937
      16        0.000010346530    -0.000009446462     0.000021357983
      17       -0.000030482318     0.000004187079    -0.000041658006
      18       -0.000000383986     0.000020713876    -0.000010770456
      19       -0.000022581058    -0.000007281447     0.000005304796
      20        0.000036084358     0.000009193340    -0.000010964367
      21       -0.000008834785     0.000003055383     0.000008429283
      22        0.000018373859    -0.000004739647    -0.000003241719
      23       -0.000004856803    -0.000004081066    -0.000012943087

  **** Optimization is complete! (in 7 steps) ****
    Final optimized geometry and variables:
    Molecular point group: c1

    Geometry (in Angstrom), charge = 0, multiplicity = 1:

    O           -2.109559054296     2.373714681782     0.080310353953
    C           -2.014929682501     1.194713012092     0.137367868679
    C           -3.196589415018     0.264269359569     0.190224745292
    O           -0.862516448210     0.553563317091     0.160863544641
    H           -3.805044390847     0.431158938743    -0.688488118982
    H           -2.894467427640    -0.769777880853     0.238075964308
    H           -3.793637220171     0.515589051093     1.056589102185
    C            0.323766527969     1.332094894685     0.114404540324
    C            1.565590823226     0.431563790538     0.169330547733
    H            0.318804800347     1.945083351914    -0.774993011703
    H            0.314018884272     2.016040307602     0.950910424385
    C            1.349964318317    -1.042639786951    -0.161924689115
    H            2.039881009323     0.532605664999     1.139545299754
    H            2.284827157976     0.840211825480    -0.534189092775
    C            2.658258317554    -1.828382130724    -0.179935330740
    H            0.672924977537    -1.485734627879     0.559004315299
    H            0.863511817080    -1.130907256310    -1.128875379898
    C            2.460128584927    -3.305754471324    -0.501915439640
    H            3.148382937011    -1.733611909924     0.785349329741
    H            3.334299333431    -1.389227111792    -0.908583684304
    H            1.817030541639    -3.782823104909     0.230083145199
    H            3.405161803583    -3.836582858183    -0.507468601882
    H            2.002161704281    -3.435667197461    -1.476848851521

  Mulliken Charges: (a.u.)
   Center  Symbol    Alpha    Beta     Spin     Total
       1     O     4.20304  4.20304  0.00000 -0.40607
       2     C     2.81496  2.81496  0.00000  0.37009
       3     C     3.14000  3.14000  0.00000 -0.28000
       4     O     4.14196  4.14196  0.00000 -0.28393
       5     H     0.44180  0.44180  0.00000  0.11640
       6     H     0.44201  0.44201  0.00000  0.11598
       7     H     0.44184  0.44184  0.00000  0.11632
       8     C     2.98258  2.98258  0.00000  0.03484
       9     C     3.10764  3.10764  0.00000 -0.21528
      10     H     0.45153  0.45153  0.00000  0.09694
      11     H     0.44990  0.44990  0.00000  0.10021
      12     C     3.07623  3.07623  0.00000 -0.15246
      13     H     0.44897  0.44897  0.00000  0.10206
      14     H     0.45158  0.45158  0.00000  0.09685
      15     C     3.08671  3.08671  0.00000 -0.17342
      16     H     0.44923  0.44923  0.00000  0.10153
      17     H     0.45263  0.45263  0.00000  0.09475
      18     C     3.14996  3.14996  0.00000 -0.29992
      19     H     0.45457  0.45457  0.00000  0.09086
      20     H     0.45481  0.45481  0.00000  0.09038
      21     H     0.45502  0.45502  0.00000  0.08997
      22     H     0.44808  0.44808  0.00000  0.10385
      23     H     0.45496  0.45496  0.00000  0.09007

   Total alpha = 36.00000, Total beta = 36.00000, Total charge =  0.00000

*** Psi4 exiting successfully. Buy a developer a beer!
