  ==> Input File <==

--------------------------------------------------------------------------
set {
	reference rhf
	basis 6-31G*
}

set_num_threads( 4 )
memory 2 gb

molecule MOL {
0 1

H	 0.589552	 4.727506	 0.664260
N	 -0.213769	 4.136864	 0.567500
C	 0.185586	 2.760543	 0.311017
H	 -0.746716	 4.496862	 -0.201395
C	 -1.035139	 1.847800	 0.261178
H	 0.833658	 2.448415	 1.124306
H	 0.762028	 2.645544	 -0.610334
C	 -0.679275	 0.379305	 0.025956
H	 -1.583125	 1.956802	 1.192663
H	 -1.701922	 2.188278	 -0.530536
C	 -1.903357	 -0.536963	 -0.023547
H	 -0.010518	 0.039260	 0.815249
H	 -0.123611	 0.283629	 -0.905672
C	 -3.225172	 0.228290	 0.028445
H	 -1.867824	 -1.134999	 -0.931459
H	 -1.860449	 -1.239604	 0.805977
H	 -3.313397	 0.915643	 -0.808262
H	 -4.073500	 -0.448134	 -0.008893
H	 -3.306061	 0.809945	 0.942516

	symmetry c1
}
set optking {
	frozen_dihedral = ("
		12 8 11 15
	")
}

ee = optimize('scf')
oeprop('DIPOLE', 'QUADRUPOLE', 'MULLIKEN_CHARGES')
f=open( 'psi4out.xyz', 'w' )
f.write( "19  " )
f.write( str(ee) + "\n" )
f.write( MOL.save_string_xyz() )
f.close()
--------------------------------------------------------------------------

    Molecular point group: c1
  Charge       = 0
  Multiplicity = 1
  Basis Set: 6-31G*
  Basis Set:
  @DF-RHF Final Energy:  -251.33765426325644
    Total Energy =                       -251.3376542632563542
    Molecular point group: c1
  Basis Set: 6-31G*
  Basis Set:
  Basis Set: 6-31G*
  Basis Set:
  @DF-RHF Final Energy:  -251.33762758179003
    Total Energy =                       -251.3376275817897749
  Basis Set: 6-31G*
  Basis Set:
  Basis Set: 6-31G*
  Basis Set:
  @DF-RHF Final Energy:  -251.34136173662824
    Total Energy =                       -251.3413617366284143
  Basis Set: 6-31G*
  Basis Set:
  Basis Set: 6-31G*
  Basis Set:
  @DF-RHF Final Energy:  -251.34187098750564
    Total Energy =                       -251.3418709875055583
  Basis Set: 6-31G*
  Basis Set:
  @DF-RHF Final Energy:  -251.34192644548315
    Total Energy =                       -251.3419264454832955
  Basis Set: 6-31G*
  Basis Set:
  @DF-RHF Final Energy:  -251.34193772282478
    Total Energy =                       -251.3419377228247527
  Basis Set: 6-31G*
  Basis Set:
  Basis Set: 6-31G*
  Basis Set:
  @DF-RHF Final Energy:  -251.34193570213867
    Total Energy =                       -251.3419357021388691
  Basis Set: 6-31G*
  Basis Set:
  Basis Set: 6-31G*
  Basis Set:
  @DF-RHF Final Energy:  -251.34194124180470
    Total Energy =                       -251.3419412418045340
  Basis Set: 6-31G*
  Basis Set:
  Charge       = 0
  Multiplicity = 1
  Basis Set: 6-31G*
  Basis Set:

    Orbital Energies (a.u.)
    -----------------------

    Doubly Occupied:

       1A    -15.532316     2A    -11.239445     3A    -11.214601
       4A    -11.213244     5A    -11.208852     6A    -11.206091
       7A     -1.176410     8A     -1.067775     9A     -0.994184
      10A     -0.903979    11A     -0.826568    12A     -0.769849
      13A     -0.664484    14A     -0.638061    15A     -0.612356
      16A     -0.598329    17A     -0.571983    18A     -0.537411
      19A     -0.524899    20A     -0.505558    21A     -0.489659
      22A     -0.457491    23A     -0.451506    24A     -0.445292
      25A     -0.380900

  @DF-RHF Final Energy:  -251.34194131289775

   => Energetics <=

    Nuclear Repulsion Energy =            249.3233679742077697
    One-Electron Energy =                -832.8681293296946251
    Two-Electron Energy =                 332.2028200425891100
    DFT Exchange-Correlation Energy =       0.0000000000000000
    Empirical Dispersion Energy =           0.0000000000000000
    PCM Polarization Energy =               0.0000000000000000
    EFP Energy =                            0.0000000000000000
    Total Energy =                       -251.3419413128976885
    Molecular point group: c1
  Basis Set: 6-31G*
  Basis Set:

  -Total Gradient:
     Atom            X                  Y                   Z
    ------   -----------------  -----------------  -----------------
       1       -0.000000270124    -0.000001392718    -0.000002793841
       2       -0.000001669354     0.000005404733    -0.000008501005
       3       -0.000002331154     0.000001720539    -0.000000747192
       4        0.000000387467     0.000002722453     0.000000760971
       5       -0.000010036230    -0.000025052514     0.000032324691
       6       -0.000007727969    -0.000001954212    -0.000000063826
       7       -0.000000328407    -0.000003162246     0.000000154951
       8        0.000957317621    -0.001098170189    -0.001806340346
       9        0.000012197648     0.000009614656     0.000000524965
      10       -0.000015499085    -0.000004940405    -0.000004666760
      11        0.001087680078    -0.001411803548     0.001466182207
      12       -0.000979727212     0.001148776031     0.001297839821
      13        0.000011873344    -0.000003521850     0.000002906998
      14        0.000012152242     0.000008496580    -0.000007988414
      15       -0.001067225164     0.001370191779    -0.000973781075
      16        0.000002136954    -0.000006483558    -0.000002109055
      17       -0.000000897581     0.000003060291     0.000001323953
      18       -0.000001912528     0.000002486443     0.000005517396
      19        0.000003879455     0.000004007735    -0.000000544439

  **** Optimization is complete! (in 9 steps) ****
    Final optimized geometry and variables:
    Molecular point group: c1

    Geometry (in Angstrom), charge = 0, multiplicity = 1:

    H            1.871332713336     3.201051101525     0.468513631772
    N            1.040119498601     2.649186353789     0.378455218420
    C            1.372028292160     1.255872943734     0.116817560886
    H            0.517986005587     3.035201675351    -0.385228170330
    C            0.108245814329     0.402086455454     0.077942002264
    H            2.013103318585     0.912944362744     0.923294582347
    H            1.933559694288     1.115764238823    -0.810250883448
    C            0.420870237617    -1.079096919341    -0.162458670039
    H           -0.419144663009     0.539481169248     1.016024684496
    H           -0.545333077970     0.781048025080    -0.704751538519
    C           -0.789126398283    -2.054249958447    -0.212655218630
    H            1.092088358893    -1.401112533622     0.629620696740
    H            0.985077228081    -1.164414671927    -1.087393580404
    C           -2.187695726376    -1.429252290877    -0.179136867597
    H           -0.720985331242    -2.646209041481    -1.120742612923
    H           -0.713506093860    -2.757649523216     0.610914128085
    H           -2.357172504684    -0.768874856029    -1.023443514003
    H           -2.940274168122    -2.210890665769    -0.222196553390
    H           -2.360605062484    -0.860014283363     0.727649813694

  Mulliken Charges: (a.u.)
   Center  Symbol    Alpha    Beta     Spin     Total
       1     H     0.33251  0.33251  0.00000  0.33498
       2     N     3.92203  3.92203  0.00000 -0.84406
       3     C     3.05995  3.05995  0.00000 -0.11990
       4     H     0.33541  0.33541  0.00000  0.32919
       5     C     3.15394  3.15394  0.00000 -0.30788
       6     H     0.42109  0.42109  0.00000  0.15782
       7     H     0.43494  0.43494  0.00000  0.13013
       8     C     3.16056  3.16056  0.00000 -0.32112
       9     H     0.41210  0.41210  0.00000  0.17581
      10     H     0.42629  0.42629  0.00000  0.14743
      11     C     3.15440  3.15440  0.00000 -0.30880
      12     H     0.42109  0.42109  0.00000  0.15782
      13     H     0.42225  0.42225  0.00000  0.15550
      14     C     3.24200  3.24200  0.00000 -0.48400
      15     H     0.42100  0.42100  0.00000  0.15799
      16     H     0.42016  0.42016  0.00000  0.15967
      17     H     0.42165  0.42165  0.00000  0.15669
      18     H     0.41982  0.41982  0.00000  0.16035
      19     H     0.41882  0.41882  0.00000  0.16235

   Total alpha = 25.00000, Total beta = 25.00000, Total charge = -0.00000
