                              Psi4 1.0.54 Driver

  ==> Input File <==

--------------------------------------------------------------------------
set {
	reference rhf
	basis cc-pvtz
}

set_num_threads( 4 )
memory 2 gb

molecule MOL {
0 1

O	 3.219313	 0.959291	 -0.614106
C	 2.698710	 0.058177	 -0.050237
C	 1.246364	 -0.005813	 0.348416
O	 3.344101	 -1.038700	 0.312317
C	 0.453207	 1.232821	 -0.049003
H	 0.839270	 -0.907818	 -0.092281
H	 1.216683	 -0.160521	 1.422434
C	 -0.998367	 1.217982	 0.432195
H	 0.481498	 1.345443	 -1.127236
H	 0.951413	 2.105557	 0.354893
C	 -1.882951	 0.151251	 -0.211235
H	 -1.429490	 2.193659	 0.228843
H	 -1.019755	 1.099323	 1.513279
C	 -2.415142	 0.564202	 -1.580918
H	 -1.314344	 -0.770527	 -0.310651
H	 -2.724191	 -0.077681	 0.436408
C	 -3.305136	 -0.491492	 -2.230684
H	 -1.578385	 0.781579	 -2.240405
H	 -2.973851	 1.492298	 -1.484232
C	 -3.831376	 -0.072430	 -3.599346
H	 -2.748163	 -1.419393	 -2.328147
H	 -4.143491	 -0.707871	 -1.574027
H	 -4.458883	 -0.843106	 -4.032101
H	 -3.016813	 0.117251	 -4.290444
H	 -4.422288	 0.834920	 -3.530445
C	 4.720529	 -1.114346	 0.001449
H	 4.874321	 -1.055557	 -1.065852
H	 5.057824	 -2.067950	 0.373977
H	 5.264321	 -0.313596	 0.480350

	symmetry c1
}
set optking {
	frozen_dihedral = ("
		15 11 8 5
	")
}

ee,wfn = optimize('scf', return_wfn=True)
oeprop( wfn, 'DIPOLE', 'QUADRUPOLE', 'MULLIKEN_CHARGES')
f=open( 'psi4out.xyz', 'w' )
f.write( "29  " )
f.write( str(ee) + "\n" )
f.write( MOL.save_string_xyz() )
f.close()
--------------------------------------------------------------------------

    Molecular point group: c1
  Charge       = 0
  Multiplicity = 1
  Basis Set: CC-PVTZ
  Basis Set:
  @DF-RHF Final Energy:  -501.22190131130935
    Total Energy =                       -501.2219013113095798
    Molecular point group: c1
  Basis Set: CC-PVTZ
  Basis Set:
  Basis Set: CC-PVTZ
  Basis Set:
  @DF-RHF Final Energy:  -501.22171749732684
    Total Energy =                       -501.2217174973266083
  Basis Set: CC-PVTZ
  Basis Set:
  Basis Set: CC-PVTZ
  Basis Set:
  @DF-RHF Final Energy:  -501.22229869567525
    Total Energy =                       -501.2222986956754767
  Basis Set: CC-PVTZ
  Basis Set:
  Basis Set: CC-PVTZ
  Basis Set:
  @DF-RHF Final Energy:  -501.22214877044598
    Total Energy =                       -501.2221487704464380
  Basis Set: CC-PVTZ
  Basis Set:
  Basis Set: CC-PVTZ
  Basis Set:
  @DF-RHF Final Energy:  -501.22228606046303
    Total Energy =                       -501.2222860604631478
  Basis Set: CC-PVTZ
  Basis Set:
  Basis Set: CC-PVTZ
  Basis Set:
  @DF-RHF Final Energy:  -501.22235476387891
    Total Energy =                       -501.2223547638776608
  Basis Set: CC-PVTZ
  Basis Set:
  Basis Set: CC-PVTZ
  Basis Set:
  @DF-RHF Final Energy:  -501.22235623160304
    Total Energy =                       -501.2223562316036123
  Basis Set: CC-PVTZ
  Basis Set:
  Charge       = 0
  Multiplicity = 1
  Basis Set: CC-PVTZ
  Basis Set:

    Orbital Energies (a.u.)
    -----------------------

    Doubly Occupied:

       1A    -20.596206     2A    -20.534083     3A    -11.364505
       4A    -11.278424     5A    -11.233146     6A    -11.217057
       7A    -11.215692     8A    -11.213651     9A    -11.213206
      10A    -11.211138    11A    -11.206277    12A     -1.472121
      13A     -1.365696    14A     -1.098987    15A     -1.066868
      16A     -1.019781    17A     -0.977263    18A     -0.928375
      19A     -0.865219    20A     -0.804790    21A     -0.785261
      22A     -0.763473    23A     -0.703283    24A     -0.686078
      25A     -0.675634    26A     -0.650500    27A     -0.629146
      28A     -0.607136    29A     -0.595150    30A     -0.576314
      31A     -0.564966    32A     -0.561551    33A     -0.534026
      34A     -0.527361    35A     -0.522903    36A     -0.511245
      37A     -0.493369    38A     -0.479121    39A     -0.473220
      40A     -0.461116    41A     -0.458850    42A     -0.453257
      43A     -0.443117    44A     -0.438816

  @DF-RHF Final Energy:  -501.22235669106612

   => Energetics <=

    Nuclear Repulsion Energy =            619.3368832890564590
    One-Electron Energy =               -1910.1637237525651472
    Two-Electron Energy =                 789.6044837724425633
    DFT Exchange-Correlation Energy =       0.0000000000000000
    Empirical Dispersion Energy =           0.0000000000000000
    PCM Polarization Energy =               0.0000000000000000
    EFP Energy =                            0.0000000000000000
    Total Energy =                       -501.2223566910661248
    Molecular point group: c1
  Basis Set: CC-PVTZ
  Basis Set:

  -Total Gradient:
     Atom            X                  Y                   Z
    ------   -----------------  -----------------  -----------------
       1       -0.000005447082    -0.000055520903     0.000050793137
       2        0.000010354480     0.000050654480    -0.000036472699
       3       -0.000018903907    -0.000010666347    -0.000035517696
       4       -0.000020774774     0.000020110305    -0.000015289056
       5        0.000402439293    -0.001046981797     0.001114640748
       6        0.000001810958     0.000021724940     0.000017993285
       7       -0.000004572507     0.000014639737    -0.000004947250
       8       -0.000406848683     0.001680068764    -0.002044391993
       9        0.000003706098    -0.000009321925     0.000042069653
      10       -0.000013574743    -0.000035444997    -0.000015200434
      11       -0.000639959181    -0.001279485435     0.002856820985
      12        0.000003250585     0.000011815708     0.000008557326
      13        0.000011871713    -0.000000351780    -0.000005867041
      14        0.000012623507    -0.000012945270    -0.000011678320
      15        0.000629695485     0.000658274222    -0.001924082643
      16        0.000007431773    -0.000003927007     0.000003392956
      17        0.000002129036     0.000002158059    -0.000002356031
      18       -0.000011701493    -0.000003617913    -0.000002385220
      19        0.000012432042    -0.000021124742    -0.000004465044
      20       -0.000011996569     0.000003381081    -0.000000202148
      21       -0.000006654786     0.000022992142     0.000002422105
      22        0.000013872942     0.000000618375    -0.000003557047
      23        0.000008720183     0.000017517538     0.000007934331
      24       -0.000011524101    -0.000005255742     0.000009290143
      25        0.000010838839    -0.000015638308    -0.000004599733
      26        0.000016708090    -0.000002119170     0.000002033513
      27        0.000005854468     0.000001544234     0.000011762739
      28        0.000003234688     0.000012804858    -0.000008005032
      29       -0.000005016354    -0.000015903111    -0.000008693537

  **** Optimization is complete! (in 8 steps) ****
    Final optimized geometry and variables:
    Molecular point group: c1

    Geometry (in Angstrom), charge = 0, multiplicity = 1:

    O            2.866889262326     0.735217570847    -0.071390673276
    C            2.375880275775    -0.097103819330     0.612106744620
    C            0.943254939450    -0.114975208794     1.080694566031
    O            3.041409960012    -1.147730848238     1.064042835392
    C            0.131899063704     1.081652846207     0.600042297869
    H            0.517266962791    -1.055681069299     0.752784773976
    H            0.962127301285    -0.161590741695     2.164713061934
    C           -1.316468002890     1.073034954918     1.098266628089
    H            0.161498249289     1.123788068026    -0.482105368364
    H            0.619564448651     1.985917742136     0.943311840581
    C           -2.235435013785     0.038858195831     0.434569040381
    H           -1.741335775130     2.061181166606     0.953262208548
    H           -1.308837746729     0.907683172737     2.172279971046
    C           -2.792096535890     0.491672984330    -0.915231386508
    H           -1.703567549441    -0.896847949170     0.290760467699
    H           -3.066034649025    -0.179543208041     1.098408333649
    C           -3.674742914747    -0.556758973556    -1.586519750850
    H           -1.975113257380     0.748094460044    -1.584223039292
    H           -3.365904953385     1.404422200820    -0.774161365411
    C           -4.245895899904    -0.093729696637    -2.922629946008
    H           -3.100153647678    -1.466702770869    -1.737338363286
    H           -4.490345112447    -0.820084905005    -0.918380777522
    H           -4.866300351322    -0.860673773386    -3.371937130526
    H           -3.454236400850     0.144668470073    -3.625124186334
    H           -4.855808196346     0.795161318448    -2.800434097338
    C            4.402643306647    -1.258913623731     0.701064541862
    H            4.507632271789    -1.318842081135    -0.372065671829
    H            4.760331320145    -2.165731080341     1.161072824845
    H            4.964432605053    -0.410661685325     1.063079483575

  Mulliken Charges: (a.u.)
   Center  Symbol    Alpha    Beta     Spin     Total
       1     O     4.19679  4.19679  0.00000 -0.39359
       2     C     2.80449  2.80449  0.00000  0.39103
       3     C     3.10096  3.10096  0.00000 -0.20192
       4     O     4.14733  4.14733  0.00000 -0.29467
       5     C     3.09240  3.09240  0.00000 -0.18480
       6     H     0.43963  0.43963  0.00000  0.12073
       7     H     0.43942  0.43942  0.00000  0.12116
       8     C     3.11459  3.11459  0.00000 -0.22917
       9     H     0.44481  0.44481  0.00000  0.11037
      10     H     0.44018  0.44018  0.00000  0.11963
      11     C     3.09961  3.09961  0.00000 -0.19923
      12     H     0.44455  0.44455  0.00000  0.11090
      13     H     0.44732  0.44732  0.00000  0.10535
      14     C     3.08566  3.08566  0.00000 -0.17132
      15     H     0.45512  0.45512  0.00000  0.08976
      16     H     0.44622  0.44622  0.00000  0.10756
      17     C     3.08435  3.08435  0.00000 -0.16871
      18     H     0.45288  0.45288  0.00000  0.09423
      19     H     0.45421  0.45421  0.00000  0.09159
      20     C     3.14983  3.14983  0.00000 -0.29966
      21     H     0.45485  0.45485  0.00000  0.09030
      22     H     0.45460  0.45460  0.00000  0.09079
      23     H     0.44853  0.44853  0.00000  0.10294
      24     H     0.45473  0.45473  0.00000  0.09055
      25     H     0.45501  0.45501  0.00000  0.08997
      26     C     3.03808  3.03808  0.00000 -0.07617
      27     H     0.45437  0.45437  0.00000  0.09126
      28     H     0.44525  0.44525  0.00000  0.10951
      29     H     0.45420  0.45420  0.00000  0.09160

   Total alpha = 44.00000, Total beta = 44.00000, Total charge = -0.00000

*** Psi4 exiting successfully. Buy a developer a beer!
