                              Psi4 1.0.54 Driver

  ==> Input File <==

--------------------------------------------------------------------------
set {
	reference rhf
	basis cc-pvtz
}

set_num_threads( 4 )
memory 2 gb

molecule MOL {
0 1

H	 1.865576	 6.253794	 -0.912341
C	 0.855708	 5.994666	 -1.208799
C	 0.585339	 4.507985	 -1.003849
H	 0.173150	 6.598250	 -0.620566
H	 0.733808	 6.276746	 -2.249650
C	 -0.826686	 4.103557	 -1.421691
H	 0.739453	 4.256990	 0.039314
H	 1.307413	 3.929694	 -1.575699
C	 -1.124042	 2.619276	 -1.233606
H	 -1.550232	 4.681942	 -0.860638
H	 -0.969755	 4.349460	 -2.469950
C	 -1.279217	 2.181629	 0.213070
H	 -2.058314	 2.364984	 -1.727810
H	 -0.363721	 2.006997	 -1.709574
C	 -1.180025	 0.697761	 0.509157
O	 -1.491308	 2.964144	 1.082531
C	 -2.285431	 -0.137488	 -0.145671
H	 -1.215772	 0.586099	 1.584374
H	 -0.210824	 0.343857	 0.167691
C	 -3.646545	 0.082747	 0.508954
H	 -2.348635	 0.118247	 -1.199806
H	 -2.034895	 -1.192387	 -0.096473
C	 -4.757412	 -0.737227	 -0.138149
H	 -3.900211	 1.137405	 0.459735
H	 -3.580878	 -0.166775	 1.564416
H	 -4.867876	 -0.486707	 -1.187777
H	 -4.549650	 -1.800049	 -0.072540
H	 -5.709585	 -0.556397	 0.346597

	symmetry c1
}
set optking {
	frozen_dihedral = ("
		12 15 17 21
	")
}

ee,wfn = optimize('scf', return_wfn=True)
oeprop( wfn, 'DIPOLE', 'QUADRUPOLE', 'MULLIKEN_CHARGES')
f=open( 'psi4out.xyz', 'w' )
f.write( "28  " )
f.write( str(ee) + "\n" )
f.write( MOL.save_string_xyz() )
f.close()
--------------------------------------------------------------------------

    Molecular point group: c1
  Charge       = 0
  Multiplicity = 1
  Basis Set: CC-PVTZ
  Basis Set:
  @DF-RHF Final Energy:  -426.31847212781520
    Total Energy =                       -426.3184721278149709
    Molecular point group: c1
  Basis Set: CC-PVTZ
  Basis Set:
  Basis Set: CC-PVTZ
  Basis Set:
  @DF-RHF Final Energy:  -426.29760250140293
    Total Energy =                       -426.2976025014030483
  Basis Set: CC-PVTZ
  Basis Set:
  Basis Set: CC-PVTZ
  Basis Set:
  @DF-RHF Final Energy:  -426.31800283195946
    Total Energy =                       -426.3180028319592338
  Basis Set: CC-PVTZ
  Basis Set:
  Basis Set: CC-PVTZ
  Basis Set:
  @DF-RHF Final Energy:  -426.31770692644386
    Total Energy =                       -426.3177069264443162
  Basis Set: CC-PVTZ
  Basis Set:
  @DF-RHF Final Energy:  -426.31851521151793
    Total Energy =                       -426.3185152115179335
  Basis Set: CC-PVTZ
  Basis Set:
  @DF-RHF Final Energy:  -426.31876775262560
    Total Energy =                       -426.3187677526258312
  Basis Set: CC-PVTZ
  Basis Set:
  Basis Set: CC-PVTZ
  Basis Set:
  @DF-RHF Final Energy:  -426.31877431808573
    Total Energy =                       -426.3187743180856160
  Basis Set: CC-PVTZ
  Basis Set:
  Basis Set: CC-PVTZ
  Basis Set:
  @DF-RHF Final Energy:  -426.31877702614190
    Total Energy =                       -426.3187770261421292
  Basis Set: CC-PVTZ
  Basis Set:
  Charge       = 0
  Multiplicity = 1
  Basis Set: CC-PVTZ
  Basis Set:

    Orbital Energies (a.u.)
    -----------------------

    Doubly Occupied:

       1A    -20.536478     2A    -11.316841     3A    -11.229160
       4A    -11.228695     5A    -11.227266     6A    -11.220902
       7A    -11.215138     8A    -11.212940     9A    -11.211590
      10A    -11.204479    11A     -1.396525    12A     -1.095813
      13A     -1.078596    14A     -1.022005    15A     -0.991990
      16A     -0.907115    17A     -0.875341    18A     -0.812298
      19A     -0.799401    20A     -0.722432    21A     -0.668671
      22A     -0.651746    23A     -0.631791    24A     -0.613909
      25A     -0.610676    26A     -0.589383    27A     -0.585637
      28A     -0.574586    29A     -0.542946    30A     -0.535785
      31A     -0.520524    32A     -0.512685    33A     -0.504747
      34A     -0.484262    35A     -0.477658    36A     -0.473860
      37A     -0.467911    38A     -0.463176    39A     -0.457538
      40A     -0.395077

  @DF-RHF Final Energy:  -426.31877753397100

   => Energetics <=

    Nuclear Repulsion Energy =            540.3573557303471944
    One-Electron Energy =               -1649.2171222724755353
    Two-Electron Energy =                 682.5409890081579078
    DFT Exchange-Correlation Energy =       0.0000000000000000
    Empirical Dispersion Energy =           0.0000000000000000
    PCM Polarization Energy =               0.0000000000000000
    EFP Energy =                            0.0000000000000000
    Total Energy =                       -426.3187775339705468
    Molecular point group: c1
  Basis Set: CC-PVTZ
  Basis Set:

  -Total Gradient:
     Atom            X                  Y                   Z
    ------   -----------------  -----------------  -----------------
       1       -0.000005417273     0.000000062798    -0.000004542772
       2        0.000003003750    -0.000004453223     0.000015758197
       3        0.000002407530    -0.000002630636    -0.000047604307
       4        0.000003818207    -0.000001794877    -0.000002511794
       5       -0.000004234393    -0.000008488361     0.000006495241
       6       -0.000009906597     0.000034866671     0.000025459957
       7        0.000005351606     0.000020627977    -0.000000369428
       8        0.000006348026    -0.000007134188     0.000007933803
       9        0.000038292042    -0.000066783571    -0.000059677545
      10       -0.000004179267    -0.000004467506    -0.000005491418
      11        0.000008052379     0.000001872172     0.000008176368
      12        0.000781712126    -0.000374481851    -0.001361227156
      13       -0.000002595038     0.000017780834     0.000017313666
      14       -0.000007515227     0.000026854560    -0.000013189098
      15       -0.001397774046     0.000973846770     0.002148518447
      16       -0.000016738958    -0.000009832534    -0.000010076731
      17        0.001729913097    -0.002424143541    -0.001320465377
      18       -0.000010596615    -0.000018452306    -0.000010586188
      19        0.000005298958     0.000016248527    -0.000001103211
      20        0.000011421839    -0.000009319037     0.000004948255
      21       -0.001136229273     0.001822964592     0.000610549494
      22        0.000005572306     0.000004653462     0.000003330792
      23       -0.000011342666     0.000010878399    -0.000004361446
      24       -0.000003228393     0.000005436088     0.000005735697
      25       -0.000001314562    -0.000007531577    -0.000012537636
      26        0.000002540405    -0.000002531220     0.000001326991
      27        0.000002444840     0.000005398651     0.000006167320
      28        0.000004895195     0.000000552926    -0.000007970116

  **** Optimization is complete! (in 9 steps) ****
    Final optimized geometry and variables:
    Molecular point group: c1

    Geometry (in Angstrom), charge = 0, multiplicity = 1:

    H            4.167804185498     3.073769943016    -1.058540905926
    C            3.091952767716     3.115162573734    -1.183586875623
    C            2.457502888734     1.747351189614    -0.956148807718
    H            2.704953458153     3.844535793866    -0.480450097242
    H            2.889083930447     3.480889068191    -2.184984445063
    C            0.941032022028     1.764954099991    -1.134663206714
    H            2.700008997612     1.402922297255     0.042785949972
    H            2.891749513335     1.030444048765    -1.649123834216
    C            0.279816197173     0.406260926950    -0.922722751327
    H            0.503547100446     2.480560524093    -0.449835277160
    H            0.706910897978     2.104418075462    -2.139463494085
    C            0.253097113654    -0.062569142954     0.523182928641
    H           -0.757128277212     0.449444001169    -1.246155766717
    H            0.749900236038    -0.354480219322    -1.538290836661
    C            0.071855283754    -1.547210257044     0.777070574791
    O            0.368139467549     0.703070197887     1.425407270859
    C           -1.208312112618    -2.155061262044     0.189854811180
    H            0.110110641738    -1.701142846997     1.846903227867
    H            0.933290157361    -2.046556122176     0.340751335438
    C           -2.472841073572    -1.736181657567     0.938379010671
    H           -1.309571752809    -1.876889588696    -0.853959516541
    H           -1.119276463555    -3.235784376575     0.214948302518
    C           -3.739826791059    -2.341748271577     0.344278870986
    H           -2.556769876088    -0.653229676932     0.939261945491
    H           -2.383695876871    -2.030806985780     1.979569767864
    H           -3.875880703190    -2.034315604930    -0.687389812151
    H           -3.701379032384    -3.425888696853     0.362333869825
    H           -4.617961294713    -2.033001758277     0.898948075330

  Mulliken Charges: (a.u.)
   Center  Symbol    Alpha    Beta     Spin     Total
       1     H     0.44859  0.44859  0.00000  0.10282
       2     C     3.15192  3.15192  0.00000 -0.30385
       3     C     3.08492  3.08492  0.00000 -0.16984
       4     H     0.45172  0.45172  0.00000  0.09655
       5     H     0.45673  0.45673  0.00000  0.08655
       6     C     3.08831  3.08831  0.00000 -0.17661
       7     H     0.44639  0.44639  0.00000  0.10721
       8     H     0.45832  0.45832  0.00000  0.08336
       9     C     3.12680  3.12680  0.00000 -0.25360
      10     H     0.44371  0.44371  0.00000  0.11259
      11     H     0.44748  0.44748  0.00000  0.10503
      12     C     2.86250  2.86250  0.00000  0.27499
      13     H     0.43560  0.43560  0.00000  0.12881
      14     H     0.44264  0.44264  0.00000  0.11473
      15     C     3.10341  3.10341  0.00000 -0.20681
      16     O     4.17953  4.17953  0.00000 -0.35906
      17     C     3.11447  3.11447  0.00000 -0.22893
      18     H     0.43827  0.43827  0.00000  0.12346
      19     H     0.44151  0.44151  0.00000  0.11698
      20     C     3.08145  3.08145  0.00000 -0.16289
      21     H     0.44923  0.44923  0.00000  0.10154
      22     H     0.44067  0.44067  0.00000  0.11867
      23     C     3.15020  3.15020  0.00000 -0.30039
      24     H     0.44978  0.44978  0.00000  0.10044
      25     H     0.44992  0.44992  0.00000  0.10015
      26     H     0.45537  0.45537  0.00000  0.08926
      27     H     0.45452  0.45452  0.00000  0.09096
      28     H     0.44606  0.44606  0.00000  0.10789

   Total alpha = 40.00000, Total beta = 40.00000, Total charge = -0.00000

*** Psi4 exiting successfully. Buy a developer a beer!
