                              Psi4 1.0.54 Driver

  ==> Input File <==

--------------------------------------------------------------------------
set {
	reference rhf
	basis cc-pvtz
}

set_num_threads( 4 )
memory 2 gb

molecule MOL {
0 1

H	 -2.698799	 -0.000846	 0.036018
C	 -1.694291	 -0.000483	 0.434279
O	 -0.828718	 -0.000608	 -0.655022
H	 -1.576855	 0.881100	 1.056504
H	 -1.576401	 -0.881658	 1.057001
C	 0.557892	 0.000078	 -0.420099
C	 1.361277	 0.385345	 -1.657199
C	 0.944494	 0.826043	 0.801608
H	 0.771718	 -1.037941	 -0.197809
H	 1.035649	 -0.192758	 -2.513249
H	 2.412897	 0.183060	 -1.490098
H	 1.265579	 1.437991	 -1.896701
H	 0.329895	 0.553517	 1.650749
H	 1.981005	 0.639877	 1.058047
H	 0.837632	 1.890358	 0.627378

	symmetry c1
}
set optking {
	frozen_dihedral = ("
		9 6 3 2
	")
}

ee,wfn = optimize('scf', return_wfn=True)
oeprop( wfn, 'DIPOLE', 'QUADRUPOLE', 'MULLIKEN_CHARGES')
f=open( 'psi4out.xyz', 'w' )
f.write( "15  " )
f.write( str(ee) + "\n" )
f.write( MOL.save_string_xyz() )
f.close()
--------------------------------------------------------------------------

    Molecular point group: c1
  Charge       = 0
  Multiplicity = 1
  Basis Set: CC-PVTZ
  Basis Set:
  @DF-RHF Final Energy:  -232.22155486583580
    Total Energy =                       -232.2215548658356852
    Molecular point group: c1
  Basis Set: CC-PVTZ
  Basis Set:
  Basis Set: CC-PVTZ
  Basis Set:
  @DF-RHF Final Energy:  -232.05616583940437
    Total Energy =                       -232.0561658394045139
  Basis Set: CC-PVTZ
  Basis Set:
  Basis Set: CC-PVTZ
  Basis Set:
  @DF-RHF Final Energy:  -232.16010677531941
    Total Energy =                       -232.1601067753192069
  Basis Set: CC-PVTZ
  Basis Set:
  Basis Set: CC-PVTZ
  Basis Set:
  @DF-RHF Final Energy:  -232.22189973769596
    Total Energy =                       -232.2218997376959351
  Basis Set: CC-PVTZ
  Basis Set:
  @DF-RHF Final Energy:  -232.22562069760542
    Total Energy =                       -232.2256206976054500
  @DF-RHF Final Energy:  -232.22686400869898
    Total Energy =                       -232.2268640086988398
  Basis Set: CC-PVTZ
  Basis Set:
  @DF-RHF Final Energy:  -232.22710518343629
    Total Energy =                       -232.2271051834363220
  Basis Set: CC-PVTZ
  Basis Set:
  Basis Set: CC-PVTZ
  Basis Set:
  @DF-RHF Final Energy:  -232.22718948652394
    Total Energy =                       -232.2271894865241393
  Basis Set: CC-PVTZ
  Basis Set:
  Basis Set: CC-PVTZ
  Basis Set:
  @DF-RHF Final Energy:  -232.22719305648096
    Total Energy =                       -232.2271930564810418
  Basis Set: CC-PVTZ
  Basis Set:
  Charge       = 0
  Multiplicity = 1
  Basis Set: CC-PVTZ
  Basis Set:

    Orbital Energies (a.u.)
    -----------------------

    Doubly Occupied:

       1A    -20.543012     2A    -11.273081     3A    -11.259922
       4A    -11.211406     5A    -11.203516     6A     -1.375733
       7A     -1.054147     8A     -0.948983     9A     -0.913366
      10A     -0.787891    11A     -0.677861    12A     -0.642160
      13A     -0.633896    14A     -0.593606    15A     -0.550404
      16A     -0.543515    17A     -0.525894    18A     -0.500308
      19A     -0.496059    20A     -0.451334    21A     -0.409245

  @DF-RHF Final Energy:  -232.22719329890225

   => Energetics <=

    Nuclear Repulsion Energy =            198.1832225795142222
    One-Electron Energy =                -707.6301621543286728
    Two-Electron Energy =                 277.2197462759121436
    DFT Exchange-Correlation Energy =       0.0000000000000000
    Empirical Dispersion Energy =           0.0000000000000000
    PCM Polarization Energy =               0.0000000000000000
    EFP Energy =                            0.0000000000000000
    Total Energy =                       -232.2271932989023071
    Molecular point group: c1
  Basis Set: CC-PVTZ
  Basis Set:

  -Total Gradient:
     Atom            X                  Y                   Z
    ------   -----------------  -----------------  -----------------
       1       -0.000009774250     0.000006092626    -0.000004862684
       2        0.001646737348     0.003363503724     0.001339404705
       3       -0.001857904107    -0.005042268205    -0.002925272879
       4        0.000004054900    -0.000005746180    -0.000014114475
       5        0.000005763824    -0.000001193512     0.000000408398
       6       -0.002150056660     0.002175023562     0.005628436710
       7        0.000012974787     0.000018852892     0.000008088139
       8        0.000002645156     0.000012881742    -0.000021689817
       9        0.002342209182    -0.000516114648    -0.004012599325
      10       -0.000002928966     0.000000447154    -0.000002115936
      11       -0.000006211389     0.000007024092     0.000004053955
      12        0.000005202690    -0.000008618331    -0.000005722180
      13       -0.000005160512    -0.000014221956     0.000007805294
      14        0.000014845527    -0.000010175003    -0.000004635022
      15       -0.000002397531     0.000014512044     0.000002815119

  **** Optimization is complete! (in 10 steps) ****
    Final optimized geometry and variables:
    Molecular point group: c1

    Geometry (in Angstrom), charge = 0, multiplicity = 1:

    H           -2.482226689828     1.023841573869    -0.698838290916
    C           -1.808140132054     0.576842340229     0.017999030360
    O           -0.636585774206     0.267071191541    -0.661773706264
    H           -1.644444955607     1.285988641840     0.822084993513
    H           -2.286650852077    -0.309743435719     0.430030707153
    C            0.346260541566    -0.485860674194     0.003242051294
    C            1.611235187248    -0.343576085518    -0.827853079611
    C            0.583104485514    -0.071995245751     1.449232512810
    H            0.053438741685    -1.535653371077    -0.032591435251
    H            1.412682545425    -0.616560056935    -1.856093211759
    H            2.396392165214    -0.985725543612    -0.445680493629
    H            1.962857845015     0.681552889876    -0.811256701572
    H           -0.280204306426    -0.247766210288     2.077589876613
    H            1.405218547920    -0.648527558697     1.855817831043
    H            0.844738436955     0.978812988642     1.510193301561

  Mulliken Charges: (a.u.)
   Center  Symbol    Alpha    Beta     Spin     Total
       1     H     0.44319  0.44319  0.00000  0.11362
       2     C     3.03987  3.03987  0.00000 -0.07973
       3     O     4.18168  4.18168  0.00000 -0.36337
       4     H     0.46813  0.46813  0.00000  0.06374
       5     H     0.47139  0.47139  0.00000  0.05723
       6     C     2.92239  2.92239  0.00000  0.15521
       7     C     3.14052  3.14052  0.00000 -0.28105
       8     C     3.16595  3.16595  0.00000 -0.33191
       9     H     0.46309  0.46309  0.00000  0.07382
      10     H     0.44609  0.44609  0.00000  0.10783
      11     H     0.45966  0.45966  0.00000  0.08069
      12     H     0.45532  0.45532  0.00000  0.08937
      13     H     0.44705  0.44705  0.00000  0.10589
      14     H     0.44588  0.44588  0.00000  0.10825
      15     H     0.44980  0.44980  0.00000  0.10041

   Total alpha = 21.00000, Total beta = 21.00000, Total charge =  0.00000

*** Psi4 exiting successfully. Buy a developer a beer!
