  ==> Input File <==

--------------------------------------------------------------------------
set {
	reference rhf
	basis cc-pvtz
}

set_num_threads( 4 )
memory 2 gb

molecule MOL {
0 1

H	 2.381946	 -3.030703	 -3.790776
C	 2.095972	 -2.812673	 -2.768626
C	 0.866038	 -1.912758	 -2.723174
H	 1.908151	 -3.757889	 -2.270299
H	 2.945306	 -2.345909	 -2.280999
C	 0.429461	 -1.580159	 -1.304109
H	 0.038142	 -2.386441	 -3.238905
H	 1.075801	 -0.989452	 -3.258040
N	 -0.752290	 -0.745227	 -1.294653
H	 0.195783	 -2.499910	 -0.776262
H	 1.264116	 -1.120120	 -0.766710
C	 -1.215959	 -0.382435	 0.027143
H	 -0.586100	 0.080110	 -1.831791
C	 -2.451944	 0.502410	 -0.038737
H	 -1.457656	 -1.296355	 0.561475
H	 -0.440842	 0.120932	 0.612714
C	 -3.752217	 -0.292550	 0.005776
H	 -2.407325	 1.093801	 -0.946480
H	 -2.431979	 1.206234	 0.790023
H	 -3.817783	 -0.982946	 -0.828547
H	 -4.612613	 0.364348	 -0.042306
H	 -3.830160	 -0.871666	 0.919868

	symmetry c1
}
set optking {
	frozen_dihedral = ("
		15 12 14 18
	")
}

ee = optimize('scf')
oeprop('DIPOLE', 'QUADRUPOLE', 'MULLIKEN_CHARGES')
f=open( 'psi4out.xyz', 'w' )
f.write( "22  " )
f.write( str(ee) + "\n" )
f.write( MOL.save_string_xyz() )
f.close()
--------------------------------------------------------------------------

    Molecular point group: c1
  Charge       = 0
  Multiplicity = 1
  Basis Set: CC-PVTZ
  Basis Set:
  @DF-RHF Final Energy:  -290.48662612358413
    Total Energy =                       -290.4866261235844149
    Molecular point group: c1
  Basis Set: CC-PVTZ
  Basis Set:
  Basis Set: CC-PVTZ
  Basis Set:
  @DF-RHF Final Energy:  -290.48711741915696
    Total Energy =                       -290.4871174191569594
  Basis Set: CC-PVTZ
  Basis Set:
  Basis Set: CC-PVTZ
  Basis Set:
  @DF-RHF Final Energy:  -290.48721089452579
    Total Energy =                       -290.4872108945254467
  Basis Set: CC-PVTZ
  Basis Set:
  Basis Set: CC-PVTZ
  Basis Set:
  @DF-RHF Final Energy:  -290.48721418700870
    Total Energy =                       -290.4872141870091582
  Basis Set: CC-PVTZ
  Basis Set:
  Charge       = 0
  Multiplicity = 1
  Basis Set: CC-PVTZ
  Basis Set:

    Orbital Energies (a.u.)
    -----------------------

    Doubly Occupied:

       1A    -15.528789     2A    -11.236578     3A    -11.236331
       4A    -11.212201     5A    -11.211824     6A    -11.207811
       7A    -11.201367     8A     -1.207433     9A     -1.059045
      10A     -1.023982    11A     -0.926845    12A     -0.871583
      13A     -0.810259    14A     -0.793352    15A     -0.662952
      16A     -0.635232    17A     -0.614646    18A     -0.609071
      19A     -0.571729    20A     -0.563843    21A     -0.540817
      22A     -0.524465    23A     -0.504502    24A     -0.488477
      25A     -0.478561    26A     -0.474269    27A     -0.467420
      28A     -0.451515    29A     -0.361193

  @DF-RHF Final Energy:  -290.48721481981886

   => Energetics <=

    Nuclear Repulsion Energy =            316.7161162973842465
    One-Electron Energy =               -1019.4544895650965373
    Two-Electron Energy =                 412.2511584478930899
    DFT Exchange-Correlation Energy =       0.0000000000000000
    Empirical Dispersion Energy =           0.0000000000000000
    PCM Polarization Energy =               0.0000000000000000
    EFP Energy =                            0.0000000000000000
    Total Energy =                       -290.4872148198192008
    Molecular point group: c1
  Basis Set: CC-PVTZ
  Basis Set:

  -Total Gradient:
     Atom            X                  Y                   Z
    ------   -----------------  -----------------  -----------------
       1       -0.000000900314    -0.000000379609     0.000000442741
       2       -0.000001750882     0.000002392393    -0.000000990793
       3        0.000008309827    -0.000002054486     0.000005418734
       4        0.000000213464    -0.000001286255     0.000000662046
       5       -0.000001135870     0.000000317328    -0.000000198838
       6       -0.000022535411     0.000018306303    -0.000022908893
       7       -0.000000915490    -0.000000046740    -0.000003064315
       8        0.000000217075     0.000000148385    -0.000002771618
       9        0.000039670900    -0.000018814811     0.000024400592
      10        0.000002855591    -0.000002208663     0.000002855380
      11        0.000013831923    -0.000005443034     0.000001266528
      12        0.000844757956     0.001621249788     0.004066229931
      13       -0.000000264926    -0.000009280735     0.000016019053
      14        0.002175227680     0.003467233812     0.001729681568
      15       -0.001056077361    -0.001883215074    -0.003714506208
      16       -0.000018265545    -0.000001285705    -0.000011016258
      17       -0.000014199952    -0.000016805087     0.000003332343
      18       -0.001959378159    -0.003169531503    -0.002105338477
      19        0.000000516351    -0.000003879608     0.000003221964
      20        0.000009202570     0.000001278820     0.000008302469
      21       -0.000008991556     0.000000519657     0.000004560460
      22       -0.000010387870     0.000002784825    -0.000005598409

  **** Optimization is complete! (in 5 steps) ****
    Final optimized geometry and variables:
    Molecular point group: c1

    Geometry (in Angstrom), charge = 0, multiplicity = 1:

    H            3.006139770970    -2.023906625709    -2.646614643117
    C            2.729097565173    -1.806593888611    -1.621843640424
    C            1.525426800822    -0.872505852009    -1.565360647891
    H            2.515700184109    -2.750265538717    -1.130964394023
    H            3.592518690537    -1.368192568142    -1.132656956699
    C            1.101493464289    -0.540792468444    -0.142155321553
    H            0.683422450038    -1.317935544240    -2.083488629725
    H            1.760428269481     0.049268925830    -2.092309486978
    N           -0.057659656032     0.324836626048    -0.121981648859
    H            0.846125089576    -1.458811233971     0.378563467353
    H            1.949740293548    -0.107135728446     0.396156871953
    C           -0.498936155150     0.702530643858     1.207733230601
    H            0.127771128922     1.146020589482    -0.659013473922
    C           -1.778366294074     1.539996951584     1.142772295991
    H           -0.699959885789    -0.221717015290     1.739408327936
    H            0.277711049981     1.234765288039     1.760062439952
    C           -3.044215221947     0.686577592956     1.115294242308
    H           -1.758443498813     2.135527562770     0.235014238716
    H           -1.816318336068     2.226034863812     1.981692333557
    H           -3.008114321986    -0.020566812678     0.295289234337
    H           -3.929578830779     1.300207829915     0.991903793866
    H           -3.156786080582     0.125663383555     2.037243033192

  Mulliken Charges: (a.u.)
   Center  Symbol    Alpha    Beta     Spin     Total
       1     H     0.44770  0.44770  0.00000  0.10460
       2     C     3.15354  3.15354  0.00000 -0.30708
       3     C     3.08086  3.08086  0.00000 -0.16173
       4     H     0.45471  0.45471  0.00000  0.09058
       5     H     0.45611  0.45611  0.00000  0.08778
       6     C     3.02191  3.02191  0.00000 -0.04382
       7     H     0.44922  0.44922  0.00000  0.10156
       8     H     0.45954  0.45954  0.00000  0.08092
       9     N     3.64255  3.64255  0.00000 -0.28509
      10     H     0.45935  0.45935  0.00000  0.08129
      11     H     0.47510  0.47510  0.00000  0.04979
      12     C     3.03407  3.03407  0.00000 -0.06813
      13     H     0.44457  0.44457  0.00000  0.11086
      14     C     3.07902  3.07902  0.00000 -0.15803
      15     H     0.45942  0.45942  0.00000  0.08117
      16     H     0.46341  0.46341  0.00000  0.07319
      17     C     3.15012  3.15012  0.00000 -0.30025
      18     H     0.46006  0.46006  0.00000  0.07989
      19     H     0.45135  0.45135  0.00000  0.09731
      20     H     0.44897  0.44897  0.00000  0.10205
      21     H     0.45130  0.45130  0.00000  0.09739
      22     H     0.45712  0.45712  0.00000  0.08576

   Total alpha = 29.00000, Total beta = 29.00000, Total charge =  0.00000
