                              Psi4 1.0.54 Driver

  ==> Input File <==

--------------------------------------------------------------------------
set {
	reference rhf
	basis cc-pvtz
}

set_num_threads( 4 )
memory 2 gb

molecule MOL {
0 1

O	 -1.990250	 0.164451	 -2.056292
C	 -2.227957	 -0.471670	 -1.086101
C	 -3.407821	 -1.397393	 -0.962650
O	 -1.481217	 -0.452708	 0.001092
H	 -3.348909	 -2.136809	 -1.749970
H	 -3.439193	 -1.884337	 -0.001120
H	 -4.312150	 -0.824182	 -1.116577
C	 -0.332055	 0.384012	 -0.000250
C	 0.892252	 -0.506059	 -0.000295
H	 -0.360822	 1.020205	 -0.874146
H	 -0.359817	 1.021310	 0.872861
C	 2.188199	 0.299473	 -0.001416
H	 0.857046	 -1.152781	 -0.871031
H	 0.857910	 -1.151798	 0.871202
C	 3.437151	 -0.577593	 -0.000991
H	 2.209565	 0.950707	 -0.871712
H	 2.210062	 0.952234	 0.867721
C	 4.732399	 0.226982	 -0.000914
H	 3.417321	 -1.229122	 -0.869998
H	 3.416993	 -1.228707	 0.868337
H	 4.797903	 0.863451	 -0.876963
H	 5.598517	 -0.424436	 -0.000420
H	 4.797415	 0.864118	 0.874691

	symmetry c1
}
set optking {
	frozen_dihedral = ("
		2 4 8 10
	")
}

ee,wfn = optimize('scf', return_wfn=True)
oeprop( wfn, 'DIPOLE', 'QUADRUPOLE', 'MULLIKEN_CHARGES')
f=open( 'psi4out.xyz', 'w' )
f.write( "23  " )
f.write( str(ee) + "\n" )
f.write( MOL.save_string_xyz() )
f.close()
--------------------------------------------------------------------------

    Molecular point group: c1
  Charge       = 0
  Multiplicity = 1
  Basis Set: CC-PVTZ
  Basis Set:
  @DF-RHF Final Energy:  -423.13202624133254
    Total Energy =                       -423.1320262413329374
    Molecular point group: c1
  Basis Set: CC-PVTZ
  Basis Set:
  Basis Set: CC-PVTZ
  Basis Set:
  @DF-RHF Final Energy:  -423.13261674920301
    Total Energy =                       -423.1326167492034074
  Basis Set: CC-PVTZ
  Basis Set:
  Basis Set: CC-PVTZ
  Basis Set:
  @DF-RHF Final Energy:  -423.13287856795125
    Total Energy =                       -423.1328785679514795
  Basis Set: CC-PVTZ
  Basis Set:
  Basis Set: CC-PVTZ
  Basis Set:
  @DF-RHF Final Energy:  -423.13287786417152
    Total Energy =                       -423.1328778641720874
  Basis Set: CC-PVTZ
  Basis Set:
  Basis Set: CC-PVTZ
  Basis Set:
  @DF-RHF Final Energy:  -423.13303774684658
    Total Energy =                       -423.1330377468465258
  Basis Set: CC-PVTZ
  Basis Set:
  Basis Set: CC-PVTZ
  Basis Set:
  @DF-RHF Final Energy:  -423.13304194241869
    Total Energy =                       -423.1330419424184583
  Basis Set: CC-PVTZ
  Basis Set:
  Charge       = 0
  Multiplicity = 1
  Basis Set: CC-PVTZ
  Basis Set:

    Orbital Energies (a.u.)
    -----------------------

    Doubly Occupied:

       1A    -20.594854     2A    -20.528990     3A    -11.367927
       4A    -11.277926     5A    -11.230168     6A    -11.221278
       7A    -11.220510     8A    -11.218645     9A    -11.210214
      10A     -1.468676    11A     -1.364463    12A     -1.094002
      13A     -1.042507    14A     -1.003449    15A     -0.932281
      16A     -0.848221    17A     -0.800302    18A     -0.772164
      19A     -0.700591    20A     -0.682541    21A     -0.660775
      22A     -0.650658    23A     -0.606522    24A     -0.588844
      25A     -0.586369    26A     -0.573694    27A     -0.550931
      28A     -0.540925    29A     -0.523347    30A     -0.509766
      31A     -0.488493    32A     -0.479951    33A     -0.474544
      34A     -0.470330    35A     -0.442593    36A     -0.438415

  @DF-RHF Final Energy:  -423.13304207693847

   => Energetics <=

    Nuclear Repulsion Energy =            453.3437263678957265
    One-Electron Energy =               -1474.6218153192012323
    Two-Electron Energy =                 598.1450468743663578
    DFT Exchange-Correlation Energy =       0.0000000000000000
    Empirical Dispersion Energy =           0.0000000000000000
    PCM Polarization Energy =               0.0000000000000000
    EFP Energy =                            0.0000000000000000
    Total Energy =                       -423.1330420769392049
    Molecular point group: c1
  Basis Set: CC-PVTZ
  Basis Set:

  -Total Gradient:
     Atom            X                  Y                   Z
    ------   -----------------  -----------------  -----------------
       1        0.000007585991     0.000026471882    -0.000041525744
       2       -0.000422468146     0.000589212188     0.000379469754
       3       -0.000017809614     0.000008804799     0.000005455594
       4        0.000725963922    -0.001032569107    -0.000623006160
       5        0.000004307382    -0.000014345313    -0.000000584106
       6       -0.000004051340    -0.000007966249     0.000004877767
       7       -0.000000695465    -0.000002570513    -0.000010337913
       8       -0.000702949003     0.001060833630     0.000774672204
       9        0.000008436617     0.000001119691    -0.000005675436
      10        0.000425133590    -0.000632818569    -0.000487373572
      11       -0.000003341502     0.000004677846     0.000008983913
      12       -0.000000394836     0.000006779160    -0.000000466483
      13        0.000004511984    -0.000004917529    -0.000005402823
      14       -0.000005127951     0.000003281532     0.000001265952
      15       -0.000002921457    -0.000009565474     0.000000120437
      16        0.000000075792     0.000002262933    -0.000001697146
      17       -0.000003657828     0.000000019693     0.000002927928
      18       -0.000009931898     0.000004863239    -0.000002199900
      19        0.000001327019    -0.000002106786    -0.000001039994
      20        0.000000080722    -0.000000612723     0.000002133905
      21        0.000000909120     0.000001960049    -0.000001113895
      22       -0.000005351065    -0.000002638333    -0.000000611838
      23        0.000000367970    -0.000000176044     0.000001127554

  **** Optimization is complete! (in 7 steps) ****
    Final optimized geometry and variables:
    Molecular point group: c1

    Geometry (in Angstrom), charge = 0, multiplicity = 1:

    O           -2.279822320219     0.401916899217    -1.592676606423
    C           -2.461771678402    -0.216789881488    -0.599524934828
    C           -3.651195683960    -1.115265828922    -0.390267396428
    O           -1.654838448300    -0.204921977693     0.445402790846
    H           -3.659374368509    -1.862071500026    -1.172823167067
    H           -3.631303074891    -1.592935927112     0.576125486168
    H           -4.550443505875    -0.522503378926    -0.491918728895
    C           -0.486553954234     0.607683109371     0.429553063370
    C            0.752895169921    -0.265951183230     0.400321471472
    H           -0.517546974666     1.263583090609    -0.424278139276
    H           -0.521865500713     1.199095583374     1.334287919664
    C            2.036660767148     0.556782234271     0.457880059448
    H            0.737634913079    -0.862919893628    -0.506264067194
    H            0.717063969983    -0.958141405539     1.235521299616
    C            3.299076060334    -0.300146826612     0.426525607476
    H            2.057099914299     1.253694146051    -0.376221733810
    H            2.038768090883     1.162064332619     1.361445727991
    C            4.581363039058     0.522902507556     0.484189192424
    H            3.298769768655    -0.904364373871    -0.476187513545
    H            3.279853871235    -0.996942890004     1.259832047554
    H            4.645951750232     1.206184273585    -0.355954393211
    H            5.457499913399    -0.114582129995     0.459642820451
    H            4.627379698344     1.113178944348     1.393349728583

  Mulliken Charges: (a.u.)
   Center  Symbol    Alpha    Beta     Spin     Total
       1     O     4.20389  4.20389  0.00000 -0.40779
       2     C     2.80719  2.80719  0.00000  0.38563
       3     C     3.14237  3.14237  0.00000 -0.28473
       4     O     4.15447  4.15447  0.00000 -0.30894
       5     H     0.44259  0.44259  0.00000  0.11482
       6     H     0.44197  0.44197  0.00000  0.11606
       7     H     0.44222  0.44222  0.00000  0.11555
       8     C     2.98588  2.98588  0.00000  0.02825
       9     C     3.08827  3.08827  0.00000 -0.17655
      10     H     0.44233  0.44233  0.00000  0.11534
      11     H     0.44665  0.44665  0.00000  0.10670
      12     C     3.09845  3.09845  0.00000 -0.19689
      13     H     0.45009  0.45009  0.00000  0.09981
      14     H     0.45056  0.45056  0.00000  0.09888
      15     C     3.08443  3.08443  0.00000 -0.16885
      16     H     0.45073  0.45073  0.00000  0.09855
      17     H     0.45449  0.45449  0.00000  0.09103
      18     C     3.14994  3.14994  0.00000 -0.29989
      19     H     0.45268  0.45268  0.00000  0.09465
      20     H     0.45383  0.45383  0.00000  0.09235
      21     H     0.45417  0.45417  0.00000  0.09167
      22     H     0.44768  0.44768  0.00000  0.10464
      23     H     0.45514  0.45514  0.00000  0.08972

   Total alpha = 36.00000, Total beta = 36.00000, Total charge =  0.00000

*** Psi4 exiting successfully. Buy a developer a beer!
