  ==> Input File <==

--------------------------------------------------------------------------
set {
	reference rhf
	basis cc-pvtz
}

set_num_threads( 4 )
memory 2 gb

molecule MOL {
0 1

H	 -2.698799	 -0.000846	 0.036018
C	 -1.694291	 -0.000483	 0.434279
O	 -0.828718	 -0.000608	 -0.655022
H	 -1.576855	 0.881100	 1.056504
H	 -1.576401	 -0.881658	 1.057001
C	 0.557892	 0.000078	 -0.420099
C	 1.298522	 1.010725	 -1.288622
C	 0.901372	 0.145441	 1.058123
H	 0.862507	 -0.990582	 -0.733822
H	 1.003260	 0.904858	 -2.325285
H	 2.366820	 0.841067	 -1.220060
H	 1.109988	 2.032411	 -0.980081
H	 0.330757	 -0.560541	 1.648912
H	 1.955266	 -0.055561	 1.212004
H	 0.702198	 1.144122	 1.428944

	symmetry c1
}
set optking {
	frozen_dihedral = ("
		9 6 3 2
	")
}

ee = optimize('scf')
oeprop('DIPOLE', 'QUADRUPOLE', 'MULLIKEN_CHARGES')
f=open( 'psi4out.xyz', 'w' )
f.write( "15  " )
f.write( str(ee) + "\n" )
f.write( MOL.save_string_xyz() )
f.close()
--------------------------------------------------------------------------

    Molecular point group: c1
  Charge       = 0
  Multiplicity = 1
  Basis Set: CC-PVTZ
  Basis Set:
  @DF-RHF Final Energy:  -232.21782785402692
    Total Energy =                       -232.2178278540270639
    Molecular point group: c1
  Basis Set: CC-PVTZ
  Basis Set:
  Basis Set: CC-PVTZ
  Basis Set:
  @DF-RHF Final Energy:  -232.21913498369381
    Total Energy =                       -232.2191349836937775
  Basis Set: CC-PVTZ
  Basis Set:
  Basis Set: CC-PVTZ
  Basis Set:
  @DF-RHF Final Energy:  -232.22218241362265
    Total Energy =                       -232.2221824136225337
  Basis Set: CC-PVTZ
  Basis Set:
  Basis Set: CC-PVTZ
  Basis Set:
  @DF-RHF Final Energy:  -232.22242094417777
    Total Energy =                       -232.2224209441777134
  Basis Set: CC-PVTZ
  Basis Set:
  Basis Set: CC-PVTZ
  Basis Set:
  @DF-RHF Final Energy:  -232.22244614714734
    Total Energy =                       -232.2224461471473660
  Basis Set: CC-PVTZ
  Basis Set:
  Basis Set: CC-PVTZ
  Basis Set:
  @DF-RHF Final Energy:  -232.22247096893472
    Total Energy =                       -232.2224709689349424
  Basis Set: CC-PVTZ
  Basis Set:
  Charge       = 0
  Multiplicity = 1
  Basis Set: CC-PVTZ
  Basis Set:

    Orbital Energies (a.u.)
    -----------------------

    Doubly Occupied:

       1A    -20.539363     2A    -11.273301     3A    -11.259879
       4A    -11.213575     5A    -11.203153     6A     -1.370299
       7A     -1.054301     8A     -0.950118     9A     -0.915466
      10A     -0.783330    11A     -0.677410    12A     -0.643523
      13A     -0.631760    14A     -0.588875    15A     -0.553071
      16A     -0.541758    17A     -0.530349    18A     -0.506784
      19A     -0.493948    20A     -0.449851    21A     -0.401430

  @DF-RHF Final Energy:  -232.22247172014224

   => Energetics <=

    Nuclear Repulsion Energy =            198.0731438812988756
    One-Electron Energy =                -707.4281403172215050
    Two-Electron Energy =                 277.1325247157806189
    DFT Exchange-Correlation Energy =       0.0000000000000000
    Empirical Dispersion Energy =           0.0000000000000000
    PCM Polarization Energy =               0.0000000000000000
    EFP Energy =                            0.0000000000000000
    Total Energy =                       -232.2224717201420390
    Molecular point group: c1
  Basis Set: CC-PVTZ
  Basis Set:

  -Total Gradient:
     Atom            X                  Y                   Z
    ------   -----------------  -----------------  -----------------
       1        0.000000823513    -0.000002561057    -0.000011274477
       2        0.000108093647     0.002678377693     0.000096585040
       3       -0.000001942013    -0.003777225247    -0.000737549983
       4       -0.000009149570    -0.000008466511    -0.000006647458
       5        0.000015131133    -0.000008936213    -0.000007655716
       6       -0.000674734414     0.000026196556     0.003419766713
       7       -0.000021022331    -0.000013987152    -0.000033905094
       8        0.000007937119     0.000004017671     0.000035920631
       9        0.000585090554     0.001121290154    -0.002762151851
      10        0.000001752829     0.000016822235    -0.000016656939
      11       -0.000004224462    -0.000007865610    -0.000000068460
      12       -0.000006182038    -0.000015674022     0.000007822520
      13       -0.000006780310    -0.000004852367     0.000024549270
      14       -0.000011577146    -0.000004250176    -0.000011194293
      15        0.000016783490    -0.000002885955     0.000002460096

  **** Optimization is complete! (in 7 steps) ****
    Final optimized geometry and variables:
    Molecular point group: c1

    Geometry (in Angstrom), charge = 0, multiplicity = 1:

    H           -2.745361034055    -0.109246132664     0.068659519462
    C           -1.775376738982    -0.196522991959     0.537328374090
    O           -0.838606182889    -0.200594949318    -0.489006642058
    H           -1.650259741328     0.640898243748     1.215234884327
    H           -1.762097280922    -1.116232873331     1.116246244123
    C            0.545691822152    -0.277133154098    -0.223085545411
    C            1.222103191053     0.751782860269    -1.116548764884
    C            0.949648988773    -0.096834588500     1.234176792108
    H            0.874039614218    -1.260440734701    -0.552314729729
    H            0.914200104659     0.609540005643    -2.144238405367
    H            2.301437213565     0.659942898872    -1.064236212786
    H            0.945683360298     1.756646860184    -0.816777471078
    H            0.494123592504    -0.833716971385     1.882476974714
    H            2.023799263090    -0.212958653246     1.311363866864
    H            0.696690082919     0.890540488173     1.602263307579

  Mulliken Charges: (a.u.)
   Center  Symbol    Alpha    Beta     Spin     Total
       1     H     0.44239  0.44239  0.00000  0.11522
       2     C     3.03760  3.03760  0.00000 -0.07520
       3     O     4.18794  4.18794  0.00000 -0.37587
       4     H     0.47016  0.47016  0.00000  0.05968
       5     H     0.47019  0.47019  0.00000  0.05962
       6     C     2.92083  2.92083  0.00000  0.15835
       7     C     3.13880  3.13880  0.00000 -0.27760
       8     C     3.17159  3.17159  0.00000 -0.34319
       9     H     0.45814  0.45814  0.00000  0.08373
      10     H     0.44596  0.44596  0.00000  0.10807
      11     H     0.45996  0.45996  0.00000  0.08009
      12     H     0.45769  0.45769  0.00000  0.08462
      13     H     0.44477  0.44477  0.00000  0.11046
      14     H     0.44341  0.44341  0.00000  0.11319
      15     H     0.45058  0.45058  0.00000  0.09883

   Total alpha = 21.00000, Total beta = 21.00000, Total charge =  0.00000
