  ==> Input File <==

--------------------------------------------------------------------------
set {
	reference rhf
	basis 6-31G*
}

set_num_threads( 4 )
memory 2 gb

molecule MOL {
0 1

H	 -3.301617	 0.570527	 0.000000
C	 -2.250981	 0.344174	 0.000000
C	 -1.813665	 -0.976045	 0.000000
C	 -1.315303	 1.358057	 0.000000
H	 -2.528860	 -1.779366	 0.000000
C	 -0.467298	 -1.270142	 0.000000
H	 -1.635074	 2.385107	 0.000000
C	 0.047081	 1.078114	 0.000000
H	 -0.115948	 -2.285222	 0.000000
C	 0.472063	 -0.241155	 0.000000
H	 0.749976	 1.888426	 0.000000
O	 1.765256	 -0.628444	 0.000000
C	 2.654028	 -0.080172	 0.929814
H	 2.741308	 0.994707	 0.810018
H	 3.613176	 -0.536759	 0.736487
H	 2.352320	 -0.304158	 1.947721

	symmetry c1
}
set optking {
	frozen_dihedral = ("
		13 12 10 8
	")
}

ee = optimize('scf')
oeprop('DIPOLE', 'QUADRUPOLE', 'MULLIKEN_CHARGES')
f=open( 'psi4out.xyz', 'w' )
f.write( "16  " )
f.write( str(ee) + "\n" )
f.write( MOL.save_string_xyz() )
f.close()
--------------------------------------------------------------------------

    Molecular point group: c1
  Charge       = 0
  Multiplicity = 1
  Basis Set: 6-31G*
  Basis Set:
  @DF-RHF Final Energy:  -344.57956734657733
    Total Energy =                       -344.5795673465770506
    Molecular point group: c1
  Basis Set: 6-31G*
  Basis Set:
  Basis Set: 6-31G*
  Basis Set:
  @DF-RHF Final Energy:  -344.58020995773848
    Total Energy =                       -344.5802099577385889
  Basis Set: 6-31G*
  Basis Set:
  Basis Set: 6-31G*
  Basis Set:
  @DF-RHF Final Energy:  -344.58043183918835
    Total Energy =                       -344.5804318391882362
  Basis Set: 6-31G*
  Basis Set:
  Basis Set: 6-31G*
  Basis Set:
  @DF-RHF Final Energy:  -344.58045224006355
    Total Energy =                       -344.5804522400638348
  Basis Set: 6-31G*
  Basis Set:
  Charge       = 0
  Multiplicity = 1
  Basis Set: 6-31G*
  Basis Set:

    Orbital Energies (a.u.)
    -----------------------

    Doubly Occupied:

       1A    -20.576240     2A    -11.289062     3A    -11.277162
       4A    -11.233511     5A    -11.232160     6A    -11.225635
       7A    -11.223370     8A    -11.221784     9A     -1.404461
      10A     -1.146857    11A     -1.018906    12A     -1.013923
      13A     -0.936622    14A     -0.832598    15A     -0.805642
      16A     -0.716463    17A     -0.665790    18A     -0.661577
      19A     -0.644535    20A     -0.614383    21A     -0.591575
      22A     -0.581533    23A     -0.528837    24A     -0.510823
      25A     -0.505256    26A     -0.481478    27A     -0.445634
      28A     -0.334825    29A     -0.313347

  @DF-RHF Final Energy:  -344.58045408148269

   => Energetics <=

    Nuclear Repulsion Energy =            347.8719127614835998
    One-Electron Energy =               -1156.8367595079398598
    Two-Electron Energy =                 464.3843926649734044
    DFT Exchange-Correlation Energy =       0.0000000000000000
    Empirical Dispersion Energy =           0.0000000000000000
    PCM Polarization Energy =               0.0000000000000000
    EFP Energy =                            0.0000000000000000
    Total Energy =                       -344.5804540814828556
    Molecular point group: c1
  Basis Set: 6-31G*
  Basis Set:

  -Total Gradient:
     Atom            X                  Y                   Z
    ------   -----------------  -----------------  -----------------
       1       -0.000014279144    -0.000027405329    -0.000001321690
       2        0.000050081296     0.000162892529    -0.000064535635
       3        0.000109920081    -0.000108960861     0.000036205306
       4       -0.000193543594    -0.000055872338     0.000073666556
       5       -0.000017259937     0.000017072340    -0.000001196994
       6       -0.000120178491    -0.000080747668    -0.000002337169
       7        0.000018720732    -0.000011912904    -0.000010162003
       8        0.000156992714    -0.000113145127    -0.001021278774
       9        0.000002050539     0.000008456923    -0.000016334530
      10       -0.000187285589    -0.000063176376     0.001872038508
      11       -0.000010517485     0.000005716230    -0.000011622044
      12        0.000318334728     0.000953875506    -0.001468721193
      13       -0.000142665027    -0.000723956450     0.000636062380
      14        0.000009561840     0.000046273493    -0.000008527111
      15        0.000016237407     0.000000943492     0.000031066170
      16        0.000003829929    -0.000010053460    -0.000043001777

  **** Optimization is complete! (in 5 steps) ****
    Final optimized geometry and variables:
    Molecular point group: c1

    Geometry (in Angstrom), charge = 0, multiplicity = 1:

    H           -3.277557880752     0.638532720704    -0.128805539994
    C           -2.228669777949     0.403255365510    -0.126898154270
    C           -1.806452162152    -0.917475281315    -0.160846933427
    C           -1.284889839599     1.415093930526    -0.094043147352
    H           -2.529723769390    -1.712997280906    -0.188874008424
    C           -0.457489374650    -1.223242140537    -0.153486832816
    H           -1.599153292332     2.443546782459    -0.075431697655
    C            0.070066887222     1.119859108431    -0.095449079421
    H           -0.114898862468    -2.241052707088    -0.179059895065
    C            0.483087845526    -0.203780445331    -0.118294359322
    H            0.793290148596     1.914034885552    -0.088629703190
    O            1.792775941571    -0.561830886787    -0.161256704104
    C            2.666759426371     0.025854242962     0.766372024845
    H            2.878406954870     1.060984711202     0.522180224932
    H            3.588097771889    -0.536503206502     0.720015976187
    H            2.261633947269    -0.026933718319     1.771240189718

  Mulliken Charges: (a.u.)
   Center  Symbol    Alpha    Beta     Spin     Total
       1     H     0.40044  0.40044  0.00000  0.19913
       2     C     3.10842  3.10842  0.00000 -0.21684
       3     C     3.09480  3.09480  0.00000 -0.18960
       4     C     3.09434  3.09434  0.00000 -0.18869
       5     H     0.39848  0.39848  0.00000  0.20304
       6     C     3.12331  3.12331  0.00000 -0.24663
       7     H     0.39896  0.39896  0.00000  0.20208
       8     C     3.13032  3.13032  0.00000 -0.26064
       9     H     0.39310  0.39310  0.00000  0.21380
      10     C     2.79231  2.79231  0.00000  0.41539
      11     H     0.39692  0.39692  0.00000  0.20616
      12     O     4.33073  4.33073  0.00000 -0.66146
      13     C     3.08592  3.08592  0.00000 -0.17185
      14     H     0.42343  0.42343  0.00000  0.15314
      15     H     0.40834  0.40834  0.00000  0.18332
      16     H     0.42017  0.42017  0.00000  0.15965

   Total alpha = 29.00000, Total beta = 29.00000, Total charge =  0.00000
