                              Psi4 1.0.54 Driver

  ==> Input File <==

--------------------------------------------------------------------------
set {
	reference rhf
	basis cc-pvtz
}

set_num_threads( 4 )
memory 2 gb

molecule MOL {
0 1

H	 -1.212672	 -3.292205	 -1.515140
O	 -1.319698	 -2.574631	 -0.909045
C	 -0.220152	 -1.827121	 -0.943136
C	 -0.310616	 -0.658853	 0.000791
O	 0.696211	 -2.087838	 -1.643333
C	 0.926581	 0.227233	 0.000178
H	 -0.507258	 -1.061590	 0.989155
H	 -1.198597	 -0.097211	 -0.270808
C	 2.220156	 -0.582071	 -0.000088
H	 0.899945	 0.878221	 -0.866390
H	 0.900542	 0.878581	 0.866486
C	 3.466689	 0.296012	 -0.000457
H	 2.239073	 -1.234095	 -0.869382
H	 2.239505	 -1.233985	 0.869270
H	 3.493549	 0.935857	 -0.875887
H	 4.368821	 -0.304526	 -0.001199
H	 3.494559	 0.935166	 0.875458

	symmetry c1
}
set optking {
	frozen_dihedral = ("
		7 4 6 10
	")
}

ee,wfn = optimize('scf', return_wfn=True)
oeprop( wfn, 'DIPOLE', 'QUADRUPOLE', 'MULLIKEN_CHARGES')
f=open( 'psi4out.xyz', 'w' )
f.write( "17  " )
f.write( str(ee) + "\n" )
f.write( MOL.save_string_xyz() )
f.close()
--------------------------------------------------------------------------

    Molecular point group: c1
  Charge       = 0
  Multiplicity = 1
  Basis Set: CC-PVTZ
  Basis Set:
  @DF-RHF Final Energy:  -345.03552009187996
    Total Energy =                       -345.0355200918802439
    Molecular point group: c1
  Basis Set: CC-PVTZ
  Basis Set:
  Basis Set: CC-PVTZ
  Basis Set:
  @DF-RHF Final Energy:  -345.04327444499199
    Total Energy =                       -345.0432744449918800
  Basis Set: CC-PVTZ
  Basis Set:
  Basis Set: CC-PVTZ
  Basis Set:
  @DF-RHF Final Energy:  -345.04475211024766
    Total Energy =                       -345.0447521102476571
  Basis Set: CC-PVTZ
  Basis Set:
  Basis Set: CC-PVTZ
  Basis Set:
  @DF-RHF Final Energy:  -345.04337779469978
    Total Energy =                       -345.0433777946998362
  Basis Set: CC-PVTZ
  Basis Set:
  @DF-RHF Final Energy:  -345.04530943220738
    Total Energy =                       -345.0453094322073184
  @DF-RHF Final Energy:  -345.04569212261640
    Total Energy =                       -345.0456921226164582
  Basis Set: CC-PVTZ
  Basis Set:
  @DF-RHF Final Energy:  -345.04582746204386
    Total Energy =                       -345.0458274620440875
  Basis Set: CC-PVTZ
  Basis Set:
  Basis Set: CC-PVTZ
  Basis Set:
  @DF-RHF Final Energy:  -345.04588767555214
    Total Energy =                       -345.0458876755521374
  Basis Set: CC-PVTZ
  Basis Set:
  Basis Set: CC-PVTZ
  Basis Set:
  @DF-RHF Final Energy:  -345.04589521011070
    Total Energy =                       -345.0458952101105297
  Basis Set: CC-PVTZ
  Basis Set:
  Charge       = 0
  Multiplicity = 1
  Basis Set: CC-PVTZ
  Basis Set:

    Orbital Energies (a.u.)
    -----------------------

    Doubly Occupied:

       1A    -20.605610     2A    -20.539753     3A    -11.374775
       4A    -11.239835     5A    -11.224306     6A    -11.214093
       7A    -11.207574     8A     -1.478729     9A     -1.369454
      10A     -1.090097    11A     -1.017318    12A     -0.913831
      13A     -0.831701    14A     -0.785736    15A     -0.706454
      16A     -0.692264    17A     -0.658190    18A     -0.631435
      19A     -0.589591    20A     -0.586026    21A     -0.576219
      22A     -0.535187    23A     -0.516112    24A     -0.489611
      25A     -0.479345    26A     -0.472225    27A     -0.468039
      28A     -0.442003

  @DF-RHF Final Energy:  -345.04589620750806

   => Energetics <=

    Nuclear Repulsion Energy =            311.4321956142727572
    One-Electron Energy =               -1087.4851571618414710
    Two-Electron Energy =                 431.0070653400608194
    DFT Exchange-Correlation Energy =       0.0000000000000000
    Empirical Dispersion Energy =           0.0000000000000000
    PCM Polarization Energy =               0.0000000000000000
    EFP Energy =                            0.0000000000000000
    Total Energy =                       -345.0458962075078375
    Molecular point group: c1
  Basis Set: CC-PVTZ
  Basis Set:

  -Total Gradient:
     Atom            X                  Y                   Z
    ------   -----------------  -----------------  -----------------
       1        0.000006217407     0.000019578443     0.000007585457
       2        0.000060489211     0.000044086966    -0.000024877345
       3       -0.000090583927    -0.000076144228    -0.000082952557
       4        0.002988111878    -0.004626953768    -0.001117090487
       5       -0.000015053397    -0.000010785835     0.000083487210
       6        0.002040430319    -0.003366310158    -0.003408314463
       7       -0.002740389750     0.004353770190     0.001457598750
       8       -0.000017144588     0.000005708589    -0.000001686144
       9        0.000015655661    -0.000000911718    -0.000001750182
      10       -0.002226624223     0.003627198993     0.003079596941
      11        0.000022543595     0.000015247844     0.000014547657
      12       -0.000011440316     0.000012622486    -0.000000710088
      13       -0.000006353281     0.000005495640     0.000002183958
      14       -0.000006991409     0.000005965825    -0.000005977769
      15        0.000001609190    -0.000002812729    -0.000002969198
      16       -0.000016671616    -0.000004329040     0.000000700155
      17       -0.000003804754    -0.000001427503     0.000000628101

  **** Optimization is complete! (in 10 steps) ****
    Final optimized geometry and variables:
    Molecular point group: c1

    Geometry (in Angstrom), charge = 0, multiplicity = 1:

    H           -2.031518375466    -2.256333378629    -0.848484745619
    O           -1.942699959050    -1.655627727084    -0.123608477722
    C           -1.112401050089    -0.683297619714    -0.485109580904
    C           -0.972336768888     0.369065253707     0.580341913569
    O           -0.598943273616    -0.659094600262    -1.550648186515
    C            0.314448555458     1.192893432120     0.538397387276
    H           -1.138828961895    -0.062812293225     1.558241691989
    H           -1.821087505340     1.031266292753     0.424017044461
    C            1.610894995157     0.388294558326     0.537986470636
    H            0.280179120362     1.880201085691    -0.299105955249
    H            0.300793102837     1.825080248693     1.422535943482
    C            2.846084261603     1.278805531213     0.622402940780
    H            1.664723453809    -0.217675019286    -0.356636988554
    H            1.604131251372    -0.296948503599     1.382614190087
    H            2.894260616444     1.957852399947    -0.222153434414
    H            3.753864023804     0.686977352128     0.621689922299
    H            2.841248325812     1.876772953173     1.527872118752

  Mulliken Charges: (a.u.)
   Center  Symbol    Alpha    Beta     Spin     Total
       1     H     0.38147  0.38147  0.00000  0.23706
       2     O     4.15949  4.15949  0.00000 -0.31897
       3     C     2.80016  2.80016  0.00000  0.39968
       4     C     3.11735  3.11735  0.00000 -0.23470
       5     O     4.19634  4.19634  0.00000 -0.39267
       6     C     3.08469  3.08469  0.00000 -0.16938
       7     H     0.43333  0.43333  0.00000  0.13334
       8     H     0.43551  0.43551  0.00000  0.12897
       9     C     3.09219  3.09219  0.00000 -0.18439
      10     H     0.44699  0.44699  0.00000  0.10603
      11     H     0.44974  0.44974  0.00000  0.10052
      12     C     3.15090  3.15090  0.00000 -0.30180
      13     H     0.43868  0.43868  0.00000  0.12264
      14     H     0.45590  0.45590  0.00000  0.08820
      15     H     0.45317  0.45317  0.00000  0.09366
      16     H     0.44748  0.44748  0.00000  0.10503
      17     H     0.45661  0.45661  0.00000  0.08677

   Total alpha = 28.00000, Total beta = 28.00000, Total charge = -0.00000

*** Psi4 exiting successfully. Buy a developer a beer!
