                              Psi4 1.0.54 Driver

  ==> Input File <==

--------------------------------------------------------------------------
set {
	reference rhf
	basis cc-pvtz
}

set_num_threads( 4 )
memory 2 gb

molecule MOL {
0 1

H	 -2.189887	 -0.813019	 0.526964
C	 -1.781504	 -0.921517	 -0.472584
O	 -0.775228	 0.000056	 -0.739966
H	 -2.574398	 -0.731550	 -1.182079
H	 -1.451184	 -1.947054	 -0.602175
C	 0.406133	 -0.000384	 0.036994
C	 1.526415	 -0.003194	 -0.997339
C	 0.498772	 1.259027	 0.900673
C	 0.495883	 -1.257378	 0.904465
H	 1.452279	 0.872071	 -1.630204
H	 1.451276	 -0.881020	 -1.626529
H	 2.497919	 -0.002741	 -0.517601
H	 0.368981	 2.144239	 0.289753
H	 1.470064	 1.313479	 1.377660
H	 -0.248448	 1.271586	 1.684297
H	 0.363971	 -2.144195	 0.296316
H	 1.467114	 -1.312636	 1.381470
H	 -0.251246	 -1.265768	 1.688235

	symmetry c1
}
set optking {
	frozen_dihedral = ("
		2 3 6 7
	")
}

ee,wfn = optimize('scf', return_wfn=True)
oeprop( wfn, 'DIPOLE', 'QUADRUPOLE', 'MULLIKEN_CHARGES')
f=open( 'psi4out.xyz', 'w' )
f.write( "18  " )
f.write( str(ee) + "\n" )
f.write( MOL.save_string_xyz() )
f.close()
--------------------------------------------------------------------------

    Molecular point group: c1
  Charge       = 0
  Multiplicity = 1
  Basis Set: CC-PVTZ
  Basis Set:
  @DF-RHF Final Energy:  -271.26969529333297
    Total Energy =                       -271.2696952933329158
    Molecular point group: c1
  Basis Set: CC-PVTZ
  Basis Set:
  Basis Set: CC-PVTZ
  Basis Set:
  @DF-RHF Final Energy:  -271.22998379463729
    Total Energy =                       -271.2299837946374623
  Basis Set: CC-PVTZ
  Basis Set:
  Basis Set: CC-PVTZ
  Basis Set:
  @DF-RHF Final Energy:  -271.27004817515564
    Total Energy =                       -271.2700481751553525
  Basis Set: CC-PVTZ
  Basis Set:
  Basis Set: CC-PVTZ
  Basis Set:
  @DF-RHF Final Energy:  -271.27248078670669
    Total Energy =                       -271.2724807867065806
  Basis Set: CC-PVTZ
  Basis Set:
  @DF-RHF Final Energy:  -271.27245138186396
    Total Energy =                       -271.2724513818641867
  Basis Set: CC-PVTZ
  Basis Set:
  @DF-RHF Final Energy:  -271.27259748199867
    Total Energy =                       -271.2725974819989005
  Basis Set: CC-PVTZ
  Basis Set:
  Basis Set: CC-PVTZ
  Basis Set:
  @DF-RHF Final Energy:  -271.27262666623699
    Total Energy =                       -271.2726266662370449
  Basis Set: CC-PVTZ
  Basis Set:
  Basis Set: CC-PVTZ
  Basis Set:
  @DF-RHF Final Energy:  -271.27262543637198
    Total Energy =                       -271.2726254363718112
  Basis Set: CC-PVTZ
  Basis Set:
  Charge       = 0
  Multiplicity = 1
  Basis Set: CC-PVTZ
  Basis Set:

    Orbital Energies (a.u.)
    -----------------------

    Doubly Occupied:

       1A    -20.537200     2A    -11.280700     3A    -11.259511
       4A    -11.211461     5A    -11.202705     6A    -11.201962
       7A     -1.369504     8A     -1.075525     9A     -0.951166
      10A     -0.936112    11A     -0.912136    12A     -0.752202
      13A     -0.657630    14A     -0.648161    15A     -0.638415
      16A     -0.583125    17A     -0.577778    18A     -0.548738
      19A     -0.543066    20A     -0.526739    21A     -0.515320
      22A     -0.491903    23A     -0.483992    24A     -0.442807
      25A     -0.399283

  @DF-RHF Final Energy:  -271.27263210135942

   => Energetics <=

    Nuclear Repulsion Energy =            272.0611475217024804
    One-Electron Energy =                -907.1732870735802408
    Two-Electron Energy =                 363.8395074505182265
    DFT Exchange-Correlation Energy =       0.0000000000000000
    Empirical Dispersion Energy =           0.0000000000000000
    PCM Polarization Energy =               0.0000000000000000
    EFP Energy =                            0.0000000000000000
    Total Energy =                       -271.2726321013595907
    Molecular point group: c1
  Basis Set: CC-PVTZ
  Basis Set:

  -Total Gradient:
     Atom            X                  Y                   Z
    ------   -----------------  -----------------  -----------------
       1        0.000006052440    -0.000002978390     0.000038268449
       2        0.000373035210    -0.000718480676    -0.001702774246
       3       -0.000573573459     0.000669163085     0.002472077537
       4       -0.000034133152     0.000033654443    -0.000020676567
       5        0.000024562135    -0.000027152464    -0.000027031524
       6        0.000343370158     0.001453257252    -0.000231196854
       7       -0.000152095717    -0.001417964661    -0.000507197455
       8        0.000002875331    -0.000035977663    -0.000055466312
       9        0.000009482868     0.000007590769     0.000005245760
      10       -0.000004919014     0.000018370324    -0.000006836292
      11       -0.000009356817    -0.000009890521    -0.000000772536
      12        0.000010046690    -0.000002808793     0.000005432527
      13       -0.000011570905     0.000064692042    -0.000023251915
      14        0.000059127634    -0.000014470711     0.000009676920
      15       -0.000047528786    -0.000022583550     0.000047332841
      16        0.000000897216     0.000003137796    -0.000001609786
      17       -0.000003976272     0.000001139593     0.000004679595
      18        0.000007704445     0.000001302128    -0.000005900146

  **** Optimization is complete! (in 9 steps) ****
    Final optimized geometry and variables:
    Molecular point group: c1

    Geometry (in Angstrom), charge = 0, multiplicity = 1:

    H           -2.168401188933    -0.745922035690     0.799104466599
    C           -1.969982692343    -0.489528482948    -0.237824568768
    O           -0.915219312733     0.404220546180    -0.375972909221
    H           -2.845855700687     0.005590320308    -0.633146533371
    H           -1.818526525408    -1.406266076481    -0.797943043250
    C            0.401786939957     0.091050780253     0.054366108937
    C            1.311751706831     0.419859480622    -1.126096033197
    C            0.707400629539     0.997323511384     1.244774283807
    C            0.593922555648    -1.374137709997     0.449972072840
    H            1.161235910982     1.445970996864    -1.436859166693
    H            1.083045616491    -0.223020254807    -1.967539520569
    H            2.355938666863     0.288058688355    -0.865480785935
    H            0.566130985677     2.034069308697     0.966847435292
    H            1.727849785828     0.867113783561     1.587683485242
    H            0.040365616869     0.776892594579     2.070573134665
    H            0.390241679308    -2.043502028729    -0.376098996649
    H            1.624131926777    -1.524413881832     0.747371642132
    H           -0.032159033175    -1.657771876609     1.286037258228

  Mulliken Charges: (a.u.)
   Center  Symbol    Alpha    Beta     Spin     Total
       1     H     0.46992  0.46992  0.00000  0.06016
       2     C     3.04091  3.04091  0.00000 -0.08182
       3     O     4.19965  4.19965  0.00000 -0.39930
       4     H     0.44260  0.44260  0.00000  0.11480
       5     H     0.46876  0.46876  0.00000  0.06248
       6     C     2.87071  2.87071  0.00000  0.25858
       7     C     3.14042  3.14042  0.00000 -0.28084
       8     C     3.14264  3.14264  0.00000 -0.28527
       9     C     3.17699  3.17699  0.00000 -0.35398
      10     H     0.44774  0.44774  0.00000  0.10451
      11     H     0.45226  0.45226  0.00000  0.09549
      12     H     0.45866  0.45866  0.00000  0.08268
      13     H     0.44797  0.44797  0.00000  0.10406
      14     H     0.45696  0.45696  0.00000  0.08608
      15     H     0.45183  0.45183  0.00000  0.09633
      16     H     0.44506  0.44506  0.00000  0.10988
      17     H     0.44245  0.44245  0.00000  0.11510
      18     H     0.44447  0.44447  0.00000  0.11107

   Total alpha = 25.00000, Total beta = 25.00000, Total charge =  0.00000

*** Psi4 exiting successfully. Buy a developer a beer!
