  ==> Input File <==

--------------------------------------------------------------------------
set {
	reference rhf
	basis 6-31G*
}

set_num_threads( 4 )
memory 2 gb

molecule MOL {
0 1

H	 -2.374400	 -0.680992	 3.294810
C	 -2.372442	 -0.746954	 2.224154
C	 -1.232985	 -0.770557	 1.572172
H	 -3.314458	 -0.792374	 1.710875
O	 -1.180634	 -0.819263	 0.215062
H	 -0.278960	 -0.733299	 2.067797
C	 0.051604	 -1.018856	 -0.387932
C	 1.043764	 0.054862	 -0.001873
H	 -0.017620	 -1.041351	 -1.469781
H	 0.437898	 -1.966374	 -0.042284
F	 2.212596	 -0.199467	 -0.571921
F	 0.652529	 1.252447	 -0.405055
F	 1.230877	 0.110694	 1.300533

	symmetry c1
}
set optking {
	frozen_dihedral = ("
		3 5 7 9
	")
}

ee = optimize('scf')
oeprop('DIPOLE', 'QUADRUPOLE', 'MULLIKEN_CHARGES')
f=open( 'psi4out.xyz', 'w' )
f.write( "13  " )
f.write( str(ee) + "\n" )
f.write( MOL.save_string_xyz() )
f.close()
--------------------------------------------------------------------------

    Molecular point group: c1
  Charge       = 0
  Multiplicity = 1
  Basis Set: 6-31G*
  Basis Set:
  @DF-RHF Final Energy:  -527.52440519570723
    Total Energy =                       -527.5244051957071179
    Molecular point group: c1
  Basis Set: 6-31G*
  Basis Set:
  Basis Set: 6-31G*
  Basis Set:
  @DF-RHF Final Energy:  -527.53203333187082
    Total Energy =                       -527.5320333318711619
  Basis Set: 6-31G*
  Basis Set:
  Basis Set: 6-31G*
  Basis Set:
  @DF-RHF Final Energy:  -527.53338073208761
    Total Energy =                       -527.5333807320880624
  Basis Set: 6-31G*
  Basis Set:
  Basis Set: 6-31G*
  Basis Set:
  @DF-RHF Final Energy:  -527.53383844680866
    Total Energy =                       -527.5338384468082040
  Basis Set: 6-31G*
  Basis Set:
  @DF-RHF Final Energy:  -527.53404064764175
    Total Energy =                       -527.5340406476423141
  @DF-RHF Final Energy:  -527.53408910824396
    Total Energy =                       -527.5340891082441885
  Basis Set: 6-31G*
  Basis Set:
  @DF-RHF Final Energy:  -527.53410242894756
    Total Energy =                       -527.5341024289475627
  Basis Set: 6-31G*
  Basis Set:
  Basis Set: 6-31G*
  Basis Set:
  @DF-RHF Final Energy:  -527.53410730559040
    Total Energy =                       -527.5341073055903962
  Basis Set: 6-31G*
  Basis Set:
  Basis Set: 6-31G*
  Basis Set:
  @DF-RHF Final Energy:  -527.53410848833892
    Total Energy =                       -527.5341084883389158
  Basis Set: 6-31G*
  Basis Set:
  Charge       = 0
  Multiplicity = 1
  Basis Set: 6-31G*
  Basis Set:

    Orbital Energies (a.u.)
    -----------------------

    Doubly Occupied:

       1A    -26.345112     2A    -26.345042     3A    -26.341804
       4A    -20.606142     5A    -11.504516     6A    -11.318269
       7A    -11.296770     8A    -11.217044     9A     -1.742949
      10A     -1.640560    11A     -1.639613    12A     -1.435202
      13A     -1.082249    14A     -1.017594    15A     -0.926147
      16A     -0.836670    17A     -0.831300    18A     -0.826719
      19A     -0.783043    20A     -0.719879    21A     -0.711659
      22A     -0.693951    23A     -0.676822    24A     -0.662019
      25A     -0.655794    26A     -0.644138    27A     -0.637287
      28A     -0.590140    29A     -0.562968    30A     -0.521187
      31A     -0.502518    32A     -0.354433

  @DF-RHF Final Energy:  -527.53410849113584

   => Energetics <=

    Nuclear Repulsion Energy =            416.5105426772803980
    One-Electron Energy =               -1556.7502215610629719
    Two-Electron Energy =                 612.7055703926469050
    DFT Exchange-Correlation Energy =       0.0000000000000000
    Empirical Dispersion Energy =           0.0000000000000000
    PCM Polarization Energy =               0.0000000000000000
    EFP Energy =                            0.0000000000000000
    Total Energy =                       -527.5341084911356120
    Molecular point group: c1
  Basis Set: 6-31G*
  Basis Set:

  -Total Gradient:
     Atom            X                  Y                   Z
    ------   -----------------  -----------------  -----------------
       1       -0.000003232391     0.000000931295    -0.000003611193
       2        0.000020457655    -0.000012393821    -0.000005317547
       3        0.000014510560     0.003670204715    -0.000074965491
       4        0.000001633106     0.000001907928    -0.000002201253
       5       -0.000017575567    -0.004506816985     0.000122705677
       6        0.000002203880     0.000000457093    -0.000005287961
       7        0.000009278600    -0.003289832909     0.000067266748
       8        0.000047207083    -0.000003462151     0.000036718544
       9        0.000034622211     0.004185925228    -0.000105412328
      10       -0.000053951987    -0.000022576792     0.000004531948
      11       -0.000017695973    -0.000016807004    -0.000004311745
      12       -0.000027877463     0.000021319846    -0.000035052750
      13       -0.000009579710    -0.000028856437     0.000004937347

  **** Optimization is complete! (in 10 steps) ****
    Final optimized geometry and variables:
    Molecular point group: c1

    Geometry (in Angstrom), charge = 0, multiplicity = 1:

    H           -2.551818005462    -0.407727458046     2.816822972575
    C           -2.457714596259    -0.372779945846     1.748692886668
    C           -1.388693756882    -0.865231868233     1.167594898246
    H           -3.254854554621     0.064497354255     1.177261660235
    O           -1.261435904461    -0.900846022936    -0.187192149765
    H           -0.575353224066    -1.304597643601     1.717691287091
    C            0.013104857547    -0.921328630211    -0.734343261843
    C            0.822012689481     0.328970172222    -0.450305401613
    H           -0.112923224014    -0.948367332560    -1.806136474940
    H            0.589172746610    -1.780407960216    -0.407013181631
    F            1.946800722559     0.277694914528    -1.148942227407
    F            0.174840749217     1.422058013078    -0.797700051811
    F            1.155688611145     0.446966883817     0.824887472810

  Mulliken Charges: (a.u.)
   Center  Symbol    Alpha    Beta     Spin     Total
       1     H     0.40684  0.40684  0.00000  0.18632
       2     C     3.22981  3.22981  0.00000 -0.45961
       3     C     2.90306  2.90306  0.00000  0.19388
       4     H     0.40177  0.40177  0.00000  0.19645
       5     O     4.30234  4.30234  0.00000 -0.60468
       6     H     0.40544  0.40544  0.00000  0.18912
       7     C     3.05619  3.05619  0.00000 -0.11239
       8     C     2.46304  2.46304  0.00000  1.07391
       9     H     0.38968  0.38968  0.00000  0.22065
      10     H     0.40548  0.40548  0.00000  0.18903
      11     F     4.68262  4.68262  0.00000 -0.36524
      12     F     4.67413  4.67413  0.00000 -0.34827
      13     F     4.67959  4.67959  0.00000 -0.35917

   Total alpha = 32.00000, Total beta = 32.00000, Total charge =  0.00000
