  ==> Input File <==

--------------------------------------------------------------------------
set {
	reference rhf
	basis cc-pvtz
}

set_num_threads( 4 )
memory 2 gb

molecule MOL {
0 1

H	 1.166964	 -1.062386	 0.758429
O	 1.324748	 -0.612467	 -0.052206
C	 0.706474	 0.636793	 -0.025501
C	 1.652975	 1.802424	 0.029908
H	 0.075250	 0.647826	 0.855259
H	 0.045854	 0.760931	 -0.881579
C	 2.959193	 1.727182	 0.158122
H	 1.180534	 2.768189	 -0.043215
H	 3.464457	 0.784819	 0.251037
H	 3.565170	 2.612616	 0.187444

	symmetry c1
}
set optking {
	frozen_dihedral = ("
		5 3 2 1
	")
}

ee = optimize('scf')
oeprop('DIPOLE', 'QUADRUPOLE', 'MULLIKEN_CHARGES')
f=open( 'psi4out.xyz', 'w' )
f.write( "10  " )
f.write( str(ee) + "\n" )
f.write( MOL.save_string_xyz() )
f.close()
--------------------------------------------------------------------------

    Molecular point group: c1
  Charge       = 0
  Multiplicity = 1
  Basis Set: CC-PVTZ
  Basis Set:
  @DF-RHF Final Energy:  -191.99568703032469
    Total Energy =                       -191.9956870303247172
    Molecular point group: c1
  Basis Set: CC-PVTZ
  Basis Set:
  Basis Set: CC-PVTZ
  Basis Set:
  @DF-RHF Final Energy:  -191.99672743215874
    Total Energy =                       -191.9967274321587922
  Basis Set: CC-PVTZ
  Basis Set:
  Basis Set: CC-PVTZ
  Basis Set:
  @DF-RHF Final Energy:  -191.99704482927297
    Total Energy =                       -191.9970448292730794
  Basis Set: CC-PVTZ
  Basis Set:
  Basis Set: CC-PVTZ
  Basis Set:
  @DF-RHF Final Energy:  -191.99705475989936
    Total Energy =                       -191.9970547598993562
  Basis Set: CC-PVTZ
  Basis Set:
  Charge       = 0
  Multiplicity = 1
  Basis Set: CC-PVTZ
  Basis Set:

    Orbital Energies (a.u.)
    -----------------------

    Doubly Occupied:

       1A    -20.553535     2A    -11.278601     3A    -11.224149
       4A    -11.209353     5A     -1.373334     6A     -1.058548
       7A     -0.928294     8A     -0.761890     9A     -0.706335
      10A     -0.655252    11A     -0.615679    12A     -0.580223
      13A     -0.513143    14A     -0.510487    15A     -0.450168
      16A     -0.362662

  @DF-RHF Final Energy:  -191.99705554099026

   => Energetics <=

    Nuclear Repulsion Energy =            119.4099987361198316
    One-Electron Energy =                -497.2508008034444629
    Two-Electron Energy =                 185.8437465263343427
    DFT Exchange-Correlation Energy =       0.0000000000000000
    Empirical Dispersion Energy =           0.0000000000000000
    PCM Polarization Energy =               0.0000000000000000
    EFP Energy =                            0.0000000000000000
    Total Energy =                       -191.9970555409902602
    Molecular point group: c1
  Basis Set: CC-PVTZ
  Basis Set:

  -Total Gradient:
     Atom            X                  Y                   Z
    ------   -----------------  -----------------  -----------------
       1       -0.000826527062    -0.000432542257    -0.000435135295
       2        0.001184878587     0.000614111512     0.000678765991
       3       -0.000971917291    -0.000540908526    -0.000837447820
       4       -0.000045023168    -0.000004038986     0.000078233807
       5        0.000655115756     0.000366522862     0.000532484883
       6        0.000016103551    -0.000006721553     0.000008890244
       7       -0.000027303918    -0.000012529282     0.000075292322
       8        0.000004369600     0.000016691808    -0.000020784857
       9        0.000010596513     0.000000892529    -0.000030041566
      10       -0.000000292569    -0.000001478110    -0.000050257709

  **** Optimization is complete! (in 5 steps) ****
    Final optimized geometry and variables:
    Molecular point group: c1

    Geometry (in Angstrom), charge = 0, multiplicity = 1:

    H           -0.459628011051    -1.873488098662     0.725220937837
    O           -0.281340406715    -1.407452828581    -0.068651077541
    C           -0.932887938342    -0.169861167904    -0.066393335638
    C            0.013278379863     0.994000126141     0.006410236556
    H           -1.632089657690    -0.099788717261     0.763125189129
    H           -1.520177428264    -0.090379665658    -0.975934461494
    C            1.321774695045     0.912614420820     0.089968298109
    H           -0.463053243451     1.960462002535    -0.021825540996
    H            1.822435198262    -0.035529687224     0.108577770514
    H            1.929078176823     1.796796968951     0.133349896584

  Mulliken Charges: (a.u.)
   Center  Symbol    Alpha    Beta     Spin     Total
       1     H     0.38984  0.38984  0.00000  0.22031
       2     O     4.19914  4.19914  0.00000 -0.39829
       3     C     2.94863  2.94863  0.00000  0.10274
       4     C     3.07996  3.07996  0.00000 -0.15991
       5     H     0.47151  0.47151  0.00000  0.05697
       6     H     0.46114  0.46114  0.00000  0.07773
       7     C     3.17532  3.17532  0.00000 -0.35064
       8     H     0.42426  0.42426  0.00000  0.15148
       9     H     0.42068  0.42068  0.00000  0.15864
      10     H     0.42951  0.42951  0.00000  0.14098

   Total alpha = 16.00000, Total beta = 16.00000, Total charge =  0.00000
