  ==> Input File <==

--------------------------------------------------------------------------
set {
	reference rhf
	basis 6-31G*
}

set_num_threads( 1 )
memory 2 gb

molecule MOL {
0 1

O	 1.185510	 1.402124	 0.473771
C	 0.001960	 1.304679	 0.429226
C	 -0.964145	 2.449580	 0.571320
O	 -0.632575	 0.154573	 0.251549
H	 -1.620137	 2.272562	 1.415883
H	 -0.417458	 3.369691	 0.714022
H	 -1.582803	 2.518828	 -0.315936
C	 0.160891	 -1.019931	 0.106212
C	 1.589627	 -0.672828	 0.480843
H	 0.089836	 -1.367806	 -0.916050
H	 -0.238459	 -1.792301	 0.749618
C	 2.246377	 0.346236	 -0.452210
H	 2.163194	 -1.597435	 0.473358
H	 1.604769	 -0.303424	 1.502885
C	 3.691736	 0.652107	 -0.061850
H	 2.219579	 -0.032311	 -1.472055
H	 1.666466	 1.263317	 -0.447249
H	 4.134505	 1.377213	 -0.737283
H	 4.305508	 -0.243868	 -0.089969
H	 3.748266	 1.059562	 0.943567

	symmetry c1
}
set optking {
	frozen_dihedral = ("
		16 12 9 8,
		12 9 8 10,
		1 2 4 8
	")
}

ee = energy('scf')
oeprop('DIPOLE', 'QUADRUPOLE', 'MULLIKEN_CHARGES')
f=open( 'psi4out.xyz', 'w' )
f.write( "20  " )
f.write( str(ee) + "\n" )
f.write( MOL.save_string_xyz() )
f.close()
--------------------------------------------------------------------------

    Molecular point group: c1

    Geometry (in Angstrom), charge = 0, multiplicity = 1:

       Center              X                  Y                   Z               Mass
    ------------   -----------------  -----------------  -----------------  -----------------
           O          0.274438825084     0.814682240912     0.247047045617    15.994914619560
           C         -0.909111174916     0.717237240912     0.202502045617    12.000000000000
           C         -1.875216174916     1.862138240912     0.344596045617    12.000000000000
           O         -1.543646174916    -0.432868759088     0.024825045617    15.994914619560
           H         -2.531208174916     1.685120240912     1.189159045617     1.007825032070
           H         -1.328529174916     2.782249240912     0.487298045617     1.007825032070
           H         -2.493874174916     1.931386240912    -0.542659954383     1.007825032070
           C         -0.750180174916    -1.607372759088    -0.120511954383    12.000000000000
           C          0.678555825084    -1.260269759088     0.254119045617    12.000000000000
           H         -0.821235174916    -1.955247759088    -1.142773954383     1.007825032070
           H         -1.149530174916    -2.379742759088     0.522894045617     1.007825032070
           C          1.335305825084    -0.241205759088    -0.678933954383    12.000000000000
           H          1.252122825084    -2.184876759088     0.246634045617     1.007825032070
           H          0.693697825084    -0.890865759088     1.276161045617     1.007825032070
           C          2.780664825084     0.064665240912    -0.288573954383    12.000000000000
           H          1.308507825084    -0.619752759088    -1.698778954383     1.007825032070
           H          0.755394825084     0.675875240912    -0.673972954383     1.007825032070
           H          3.223433825084     0.789771240912    -0.964006954383     1.007825032070
           H          3.394436825084    -0.831309759088    -0.316692954383     1.007825032070
           H          2.837194825084     0.472120240912     0.716843045617     1.007825032070

  Charge       = 0
  Multiplicity = 1
  Basis Set: 6-31G*
  Basis Set:

    Orbital Energies (a.u.)
    -----------------------

    Doubly Occupied:

       1A    -20.610150     2A    -20.570024     3A    -11.371341
       4A    -11.286043     5A    -11.236198     6A    -11.204485
       7A    -11.189812     8A    -11.163336     9A     -1.521823
      10A     -1.413025    11A     -1.096042    12A     -1.009945
      13A     -0.984316    14A     -0.891351    15A     -0.889601
      16A     -0.760261    17A     -0.726623    18A     -0.713658
      19A     -0.676971    20A     -0.640204    21A     -0.606400
      22A     -0.587527    23A     -0.570899    24A     -0.567387
      25A     -0.541754    26A     -0.531406    27A     -0.524455
      28A     -0.485450    29A     -0.464609    30A     -0.452665
      31A     -0.423760    32A     -0.263195

  @DF-RHF Final Energy:  -383.63950808069774

   => Energetics <=

    Nuclear Repulsion Energy =            426.1148483204101467
    One-Electron Energy =               -1367.5590828680042250
    Two-Electron Energy =                 557.8047264668964544
    DFT Exchange-Correlation Energy =       0.0000000000000000
    Empirical Dispersion Energy =           0.0000000000000000
    PCM Polarization Energy =               0.0000000000000000
    EFP Energy =                            0.0000000000000000
    Total Energy =                       -383.6395080806976239

  Mulliken Charges: (a.u.)
   Center  Symbol    Alpha    Beta     Spin     Total
       1     O     4.26317  4.26317  0.00000 -0.52634
       2     C     2.64623  2.64623  0.00000  0.70753
       3     C     3.27302  3.27302  0.00000 -0.54604
       4     O     4.31036  4.31036  0.00000 -0.62071
       5     H     0.39845  0.39845  0.00000  0.20311
       6     H     0.40102  0.40102  0.00000  0.19796
       7     H     0.40524  0.40524  0.00000  0.18952
       8     C     2.99343  2.99343  0.00000  0.01313
       9     C     3.18893  3.18893  0.00000 -0.37786
      10     H     0.41126  0.41126  0.00000  0.17747
      11     H     0.41035  0.41035  0.00000  0.17930
      12     C     3.16822  3.16822  0.00000 -0.33644
      13     H     0.42074  0.42074  0.00000  0.15852
      14     H     0.41175  0.41175  0.00000  0.17651
      15     C     3.22962  3.22962  0.00000 -0.45923
      16     H     0.45460  0.45460  0.00000  0.09079
      17     H     0.33709  0.33709  0.00000  0.32582
      18     H     0.42338  0.42338  0.00000  0.15324
      19     H     0.42619  0.42619  0.00000  0.14762
      20     H     0.42695  0.42695  0.00000  0.14611

   Total alpha = 32.00000, Total beta = 32.00000, Total charge =  0.00000
