                              Psi4 1.0.54 Driver

  ==> Input File <==

--------------------------------------------------------------------------
set {
	reference rhf
	basis cc-pvtz
}

set_num_threads( 4 )
memory 2 gb

molecule MOL {
0 1

O	 -0.988175	 -1.402891	 0.050086
C	 -0.675048	 -0.248293	 -0.009686
C	 -1.742492	 0.826599	 -0.011538
N	 0.622280	 0.144970	 -0.099307
H	 -1.692153	 1.431066	 -0.908439
H	 -2.698310	 0.331559	 0.031353
H	 -1.642148	 1.483784	 0.843455
C	 0.913451	 1.528626	 -0.410215
C	 1.733350	 -0.765917	 -0.239176
H	 1.773097	 1.854355	 0.162613
H	 0.066026	 2.140992	 -0.161097
H	 1.138331	 1.657335	 -1.465911
H	 2.602352	 -0.344829	 0.249859
H	 1.529442	 -1.716961	 0.222162
H	 1.988957	 -0.937356	 -1.282400

	symmetry c1
}
set optking {
	frozen_dihedral = ("
		8 4 2 3
	")
}

ee,wfn = optimize('scf', return_wfn=True)
oeprop( wfn, 'DIPOLE', 'QUADRUPOLE', 'MULLIKEN_CHARGES')
f=open( 'psi4out.xyz', 'w' )
f.write( "15  " )
f.write( str(ee) + "\n" )
f.write( MOL.save_string_xyz() )
f.close()
--------------------------------------------------------------------------

    Molecular point group: c1
  Charge       = 0
  Multiplicity = 1
  Basis Set: CC-PVTZ
  Basis Set:
  @DF-RHF Final Energy:  -286.13157785126100
    Total Energy =                       -286.1315778512612269
    Molecular point group: c1
  Basis Set: CC-PVTZ
  Basis Set:
  Basis Set: CC-PVTZ
  Basis Set:
  @DF-RHF Final Energy:  -286.13261585293014
    Total Energy =                       -286.1326158529300301
  Basis Set: CC-PVTZ
  Basis Set:
  Basis Set: CC-PVTZ
  Basis Set:
  @DF-RHF Final Energy:  -286.13543027390813
    Total Energy =                       -286.1354302739081277
  Basis Set: CC-PVTZ
  Basis Set:
  Basis Set: CC-PVTZ
  Basis Set:
  @DF-RHF Final Energy:  -286.13558988974052
    Total Energy =                       -286.1355898897403449
  Basis Set: CC-PVTZ
  Basis Set:
  @DF-RHF Final Energy:  -286.13561048476242
    Total Energy =                       -286.1356104847623101
  @DF-RHF Final Energy:  -286.13561752066482
    Total Energy =                       -286.1356175206649937
  @DF-RHF Final Energy:  -286.13562461405627
    Total Energy =                       -286.1356246140561552
  @DF-RHF Final Energy:  -286.13562905520132
    Total Energy =                       -286.1356290552014912
  Basis Set: CC-PVTZ
  Basis Set:
  @DF-RHF Final Energy:  -286.13563270403569
    Total Energy =                       -286.1356327040354017
  Basis Set: CC-PVTZ
  Basis Set:
  Basis Set: CC-PVTZ
  Basis Set:
  @DF-RHF Final Energy:  -286.13563854512336
    Total Energy =                       -286.1356385451231858
  Basis Set: CC-PVTZ
  Basis Set:
  Basis Set: CC-PVTZ
  Basis Set:
  @DF-RHF Final Energy:  -286.13563981400114
    Total Energy =                       -286.1356398140012516
  Basis Set: CC-PVTZ
  Basis Set:
  Charge       = 0
  Multiplicity = 1
  Basis Set: CC-PVTZ
  Basis Set:

    Orbital Energies (a.u.)
    -----------------------

    Doubly Occupied:

       1A    -20.503306     2A    -15.578593     3A    -11.335194
       4A    -11.264005     5A    -11.246434     6A    -11.226490
       7A     -1.387160     8A     -1.246413     9A     -1.015093
      10A     -0.973299    11A     -0.921061    12A     -0.739199
      13A     -0.683328    14A     -0.662000    15A     -0.653875
      16A     -0.590511    17A     -0.578158    18A     -0.567314
      19A     -0.561537    20A     -0.548508    21A     -0.530433
      22A     -0.507313    23A     -0.413559    24A     -0.370317

  @DF-RHF Final Energy:  -286.13563993973276

   => Energetics <=

    Nuclear Repulsion Energy =            252.8736562923811562
    One-Electron Energy =                -889.8123897203520301
    Two-Electron Energy =                 350.8030934882380052
    DFT Exchange-Correlation Energy =       0.0000000000000000
    Empirical Dispersion Energy =           0.0000000000000000
    PCM Polarization Energy =               0.0000000000000000
    EFP Energy =                            0.0000000000000000
    Total Energy =                       -286.1356399397328687
    Molecular point group: c1
  Basis Set: CC-PVTZ
  Basis Set:

  -Total Gradient:
     Atom            X                  Y                   Z
    ------   -----------------  -----------------  -----------------
       1       -0.000002621913     0.000002347077    -0.000004628161
       2        0.000011681695     0.000012327903     0.000099895492
       3       -0.000002094731    -0.000002449173    -0.000033814547
       4       -0.000008949768    -0.000031028218    -0.000109674947
       5        0.000000614758    -0.000004168896    -0.000002679391
       6       -0.000000431337    -0.000000076860     0.000000401129
       7       -0.000000278767     0.000000880384    -0.000003555071
       8        0.000010745543     0.000015426280     0.000062606040
       9       -0.000007114699     0.000001746577    -0.000002844967
      10       -0.000000997867     0.000005442439     0.000004422084
      11       -0.000002877644    -0.000004208844    -0.000009513183
      12        0.000004010323    -0.000004510602     0.000002457645
      13       -0.000002935661     0.000000678479    -0.000008483135
      14        0.000005149406     0.000009250360     0.000000030116
      15       -0.000003899339    -0.000001656911     0.000005380897

  **** Optimization is complete! (in 12 steps) ****
    Final optimized geometry and variables:
    Molecular point group: c1

    Geometry (in Angstrom), charge = 0, multiplicity = 1:

    O           -0.926681282970    -1.418473804526     0.281448877225
    C           -0.659146236273    -0.261130658564     0.126316260241
    C           -1.765943570418     0.773062018880     0.099024185388
    N            0.620402014307     0.171945152142    -0.011490154190
    H           -1.797914017360     1.291780314957    -0.851122821353
    H           -2.696527534341     0.251938758472     0.250390288949
    H           -1.637433920005     1.510320432377     0.881471261982
    C            0.989312744589     1.515635996470    -0.386485844264
    C            1.689033085786    -0.801900996808    -0.079087911494
    H            1.888971867220     1.802041885922     0.143888690981
    H            0.221469633357     2.225862008365    -0.133497192468
    H            1.191970443821     1.594623104429    -1.451987086995
    H            2.536372076328    -0.451515745116     0.498087834770
    H            1.348863950823    -1.739870656386     0.320231810535
    H            2.015772955840    -0.955837006530    -1.104195615615

  Mulliken Charges: (a.u.)
   Center  Symbol    Alpha    Beta     Spin     Total
       1     O     4.22116  4.22116  0.00000 -0.44232
       2     C     2.84587  2.84587  0.00000  0.30827
       3     C     3.16068  3.16068  0.00000 -0.32136
       4     N     3.56093  3.56093  0.00000 -0.12187
       5     H     0.44926  0.44926  0.00000  0.10148
       6     H     0.42855  0.42855  0.00000  0.14289
       7     H     0.44914  0.44914  0.00000  0.10172
       8     C     3.09505  3.09505  0.00000 -0.19009
       9     C     3.09909  3.09909  0.00000 -0.19818
      10     H     0.44999  0.44999  0.00000  0.10003
      11     H     0.44501  0.44501  0.00000  0.10999
      12     H     0.45464  0.45464  0.00000  0.09072
      13     H     0.45685  0.45685  0.00000  0.08630
      14     H     0.42611  0.42611  0.00000  0.14778
      15     H     0.45768  0.45768  0.00000  0.08464

   Total alpha = 24.00000, Total beta = 24.00000, Total charge = -0.00000

*** Psi4 exiting successfully. Buy a developer a beer!
