  ==> Input File <==

--------------------------------------------------------------------------
set {
	reference rhf
	basis 6-31G*
}

set_num_threads( 4 )
memory 2 gb

molecule MOL {
0 1

H	 0.930363	 -0.729716	 -1.449755
O	 0.569474	 0.031589	 -1.883376
C	 0.272150	 1.004181	 -0.924404
C	 -0.793441	 0.596080	 0.058728
H	 -0.054940	 1.879956	 -1.473250
H	 1.168682	 1.296240	 -0.378549
C	 -1.530462	 -0.493172	 -0.025500
H	 -0.937594	 1.277826	 0.882697
H	 -1.092586	 -1.461565	 -0.186463
H	 -2.602122	 -0.450675	 0.050101

	symmetry c1
}
set optking {
	frozen_dihedral = ("
		3 4 7 9
	")
}

ee = optimize('scf')
oeprop('DIPOLE', 'QUADRUPOLE', 'MULLIKEN_CHARGES')
f=open( 'psi4out.xyz', 'w' )
f.write( "10  " )
f.write( str(ee) + "\n" )
f.write( MOL.save_string_xyz() )
f.close()
--------------------------------------------------------------------------

    Molecular point group: c1
  Charge       = 0
  Multiplicity = 1
  Basis Set: 6-31G*
  Basis Set:
  @DF-RHF Final Energy:  -191.85779133131112
    Total Energy =                       -191.8577913313110628
    Molecular point group: c1
  Basis Set: 6-31G*
  Basis Set:
  Basis Set: 6-31G*
  Basis Set:
  @DF-RHF Final Energy:  -191.87947534018713
    Total Energy =                       -191.8794753401871844
  Basis Set: 6-31G*
  Basis Set:
  Basis Set: 6-31G*
  Basis Set:
  @DF-RHF Final Energy:  -191.89217190756659
    Total Energy =                       -191.8921719075665635
  Basis Set: 6-31G*
  Basis Set:
  Basis Set: 6-31G*
  Basis Set:
  @DF-RHF Final Energy:  -191.89587825592398
    Total Energy =                       -191.8958782559240319
  Basis Set: 6-31G*
  Basis Set:
  @DF-RHF Final Energy:  -191.89599653348137
    Total Energy =                       -191.8959965334813091
  @DF-RHF Final Energy:  -191.89600384096229
    Total Energy =                       -191.8960038409623508
  @DF-RHF Final Energy:  -191.89600448366201
    Total Energy =                       -191.8960044836620966
  @DF-RHF Final Energy:  -191.89600420724946
    Total Energy =                       -191.8960042072494332
  @DF-RHF Final Energy:  -191.89570864075404
    Total Energy =                       -191.8957086407540089
  @DF-RHF Final Energy:  -191.89600432150976
    Total Energy =                       -191.8960043215097357
  @DF-RHF Final Energy:  -191.89600422019731
    Total Energy =                       -191.8960042201973408
  @DF-RHF Final Energy:  -191.89600418790633
    Total Energy =                       -191.8960041879062430
  @DF-RHF Final Energy:  -191.89600391470856
    Total Energy =                       -191.8960039147085581
  @DF-RHF Final Energy:  -191.89553462925051
    Total Energy =                       -191.8955346292504487
  @DF-RHF Final Energy:  -191.84384266752141
    Total Energy =                       -191.8438426675214714
  @DF-RHF Final Energy:  -191.79721814973590
    Total Energy =                       -191.7972181497359543
  @DF-RHF Final Energy:  -191.73891084146368
    Total Energy =                       -191.7389108414636496
  @DF-RHF Final Energy:  -191.69192730845094
    Total Energy =                       -191.6919273084508859
  @DF-RHF Final Energy:  -191.68083371511830
    Total Energy =                       -191.6808337151182968
  @DF-RHF Final Energy:  -191.77324151681395
    Total Energy =                       -191.7732415168139823
  @DF-RHF Final Energy:  -191.89423701600006
    Total Energy =                       -191.8942370160000053
  @DF-RHF Final Energy:  -191.89447207433761
    Total Energy =                       -191.8944720743375569
  @DF-RHF Final Energy:  -191.89468951846698
    Total Energy =                       -191.8946895184669472
  @DF-RHF Final Energy:  -191.89493218828252
    Total Energy =                       -191.8949321882824961
  @DF-RHF Final Energy:  -191.89514224901689
    Total Energy =                       -191.8951422490168000
  @DF-RHF Final Energy:  -191.89528734436217
    Total Energy =                       -191.8952873443621456
  @DF-RHF Final Energy:  -191.89545927424174
    Total Energy =                       -191.8954592742417162
  @DF-RHF Final Energy:  -191.89554968926294
    Total Energy =                       -191.8955496892629355
  @DF-RHF Final Energy:  -191.89557068921289
    Total Energy =                       -191.8955706892128319
  @DF-RHF Final Energy:  -191.89557982830848
    Total Energy =                       -191.8955798283084278
  @DF-RHF Final Energy:  -191.87078534903810
    Total Energy =                       -191.8707853490381581
  @DF-RHF Final Energy:  -191.82027641822060
    Total Energy =                       -191.8202764182205726
  @DF-RHF Final Energy:  -191.82682822581114
    Total Energy =                       -191.8268282258112833
  @DF-RHF Final Energy:  -191.88597475515081
    Total Energy =                       -191.8859747551507837
  @DF-RHF Final Energy:  -191.89027405488409
    Total Energy =                       -191.8902740548840598
  @DF-RHF Final Energy:  -191.89385781401256
    Total Energy =                       -191.8938578140126197
  Basis Set: 6-31G*
  Basis Set:
  @DF-RHF Final Energy:  -191.89537374172394
    Total Energy =                       -191.8953737417239722
  Basis Set: 6-31G*
  Basis Set:
  Basis Set: 6-31G*
  Basis Set:
  @DF-RHF Final Energy:  -191.89549597714114
    Total Energy =                       -191.8954959771412234
  Basis Set: 6-31G*
  Basis Set:
  Basis Set: 6-31G*
  Basis Set:
  @DF-RHF Final Energy:  -191.89560378674332
    Total Energy =                       -191.8956037867432940
  Basis Set: 6-31G*
  Basis Set:
  Charge       = 0
  Multiplicity = 1
  Basis Set: 6-31G*
  Basis Set:

    Orbital Energies (a.u.)
    -----------------------

    Doubly Occupied:

       1A    -20.559856     2A    -11.280681     3A    -11.231540
       4A    -11.221004     5A     -1.366828     6A     -1.057245
       7A     -0.930235     8A     -0.765701     9A     -0.693394
      10A     -0.649951    11A     -0.611044    12A     -0.571944
      13A     -0.535528    14A     -0.491654    15A     -0.442896
      16A     -0.356652

  @DF-RHF Final Energy:  -191.89556915510468

   => Energetics <=

    Nuclear Repulsion Energy =            118.3026062746031783
    One-Electron Energy =                -494.8640424401223754
    Two-Electron Energy =                 184.6658670104144733
    DFT Exchange-Correlation Energy =       0.0000000000000000
    Empirical Dispersion Energy =           0.0000000000000000
    PCM Polarization Energy =               0.0000000000000000
    EFP Energy =                            0.0000000000000000
    Total Energy =                       -191.8955691551047096
    Molecular point group: c1
  Basis Set: 6-31G*
  Basis Set:

  -Total Gradient:
     Atom            X                  Y                   Z
    ------   -----------------  -----------------  -----------------
       1        0.001957578353    -0.000950438336    -0.000255253111
       2       -0.001289275346    -0.000578509127    -0.000398976348
       3       -0.010601501309     0.016499879015    -0.006438674121
       4        0.025302999598    -0.031121953916     0.021876016789
       5       -0.000224893400     0.000621904137     0.001360518408
       6       -0.003807678000    -0.001360917019    -0.000849906520
       7       -0.012531448844     0.026301812888    -0.038050353373
       8       -0.000588291735     0.002459107984    -0.000072940465
       9        0.002747352731    -0.011139342897     0.024118601057
      10       -0.000964842049    -0.000731542729    -0.001289032317

    Molecular point group: c1

    Geometry (in Angstrom), charge = 0, multiplicity = 1:

    H            1.554128323306    -0.884971060770    -0.688614059675
    O            0.991529153726    -0.239592629694    -1.090665526067
    C            0.606163324100     0.712162997117    -0.141219804028
    C           -0.469631785590     0.257486924322     0.813073804037
    H            0.187811609566     1.545507229880    -0.692701478328
    H            1.477457908724     1.090685733104     0.396276504637
    C           -1.376151801813    -0.690393878009     0.616713236861
    H           -0.768144780950     1.068854924307     1.466804442446
    H           -1.157489001651    -1.688460405920     0.265801131733
    H           -2.270105155614    -0.654161387285     1.219337497500

  Mulliken Charges: (a.u.)
   Center  Symbol    Alpha    Beta     Spin     Total
       1     H     0.28007  0.28007  0.00000  0.43987
       2     O     4.36634  4.36634  0.00000 -0.73268
       3     C     3.00159  3.00159  0.00000 -0.00317
       4     C     3.09440  3.09440  0.00000 -0.18881
       5     H     0.40497  0.40497  0.00000  0.19006
       6     H     0.42659  0.42659  0.00000  0.14683
       7     C     3.17866  3.17866  0.00000 -0.35731
       8     H     0.41924  0.41924  0.00000  0.16151
       9     H     0.41122  0.41122  0.00000  0.17756
      10     H     0.41692  0.41692  0.00000  0.16615

   Total alpha = 16.00000, Total beta = 16.00000, Total charge =  0.00000
