  ==> Input File <==

--------------------------------------------------------------------------
set {
	reference rhf
	basis cc-pvtz
}

set_num_threads( 4 )
memory 2 gb

molecule MOL {
0 1

H	 2.612359	 -2.538079	 2.373047
C	 2.582495	 -1.987961	 1.439994
C	 1.299893	 -1.171606	 1.325317
H	 3.458089	 -1.348232	 1.406540
H	 2.667566	 -2.705871	 0.631053
C	 1.215950	 -0.382441	 0.027187
H	 1.222137	 -0.480471	 2.157213
H	 0.442503	 -1.836891	 1.394993
N	 0.000002	 0.398953	 -0.040851
H	 2.058318	 0.300242	 -0.032222
H	 1.314267	 -1.067475	 -0.820248
C	 -1.215959	 -0.382435	 0.027143
H	 -0.000012	 1.086078	 0.683841
C	 -2.451944	 0.502410	 -0.038737
H	 -1.221867	 -1.069392	 -0.813828
H	 -1.259993	 -0.999709	 0.929424
C	 -3.752217	 -0.292550	 0.005776
H	 -2.407325	 1.093801	 -0.946480
H	 -2.431979	 1.206234	 0.790023
H	 -3.817783	 -0.982946	 -0.828547
H	 -4.612613	 0.364348	 -0.042306
H	 -3.830160	 -0.871666	 0.919868

	symmetry c1
}
set optking {
	frozen_dihedral = ("
		10 6 9 12
	")
}

ee = optimize('scf')
oeprop('DIPOLE', 'QUADRUPOLE', 'MULLIKEN_CHARGES')
f=open( 'psi4out.xyz', 'w' )
f.write( "22  " )
f.write( str(ee) + "\n" )
f.write( MOL.save_string_xyz() )
f.close()
--------------------------------------------------------------------------

    Molecular point group: c1
  Charge       = 0
  Multiplicity = 1
  Basis Set: CC-PVTZ
  Basis Set:
  @DF-RHF Final Energy:  -290.48357225964497
    Total Energy =                       -290.4835722596451433
    Molecular point group: c1
  Basis Set: CC-PVTZ
  Basis Set:
  Basis Set: CC-PVTZ
  Basis Set:
  @DF-RHF Final Energy:  -290.48559685020439
    Total Energy =                       -290.4855968502043311
  Basis Set: CC-PVTZ
  Basis Set:
  Basis Set: CC-PVTZ
  Basis Set:
  @DF-RHF Final Energy:  -290.48716112294437
    Total Energy =                       -290.4871611229443715
  Basis Set: CC-PVTZ
  Basis Set:
  Basis Set: CC-PVTZ
  Basis Set:
  @DF-RHF Final Energy:  -290.48729301889477
    Total Energy =                       -290.4872930188943769
  Basis Set: CC-PVTZ
  Basis Set:
  Basis Set: CC-PVTZ
  Basis Set:
  @DF-RHF Final Energy:  -290.48730509523182
    Total Energy =                       -290.4873050952319318
  Basis Set: CC-PVTZ
  Basis Set:
  Basis Set: CC-PVTZ
  Basis Set:
  @DF-RHF Final Energy:  -290.48730623977912
    Total Energy =                       -290.4873062397791159
  Basis Set: CC-PVTZ
  Basis Set:
  Charge       = 0
  Multiplicity = 1
  Basis Set: CC-PVTZ
  Basis Set:

    Orbital Energies (a.u.)
    -----------------------

    Doubly Occupied:

       1A    -15.527038     2A    -11.236698     3A    -11.235664
       4A    -11.211142     5A    -11.210002     6A    -11.208453
       7A    -11.206615     8A     -1.204298     9A     -1.057697
      10A     -1.027661    11A     -0.929751    12A     -0.872650
      13A     -0.809677    14A     -0.795108    15A     -0.668002
      16A     -0.632792    17A     -0.616462    18A     -0.601562
      19A     -0.580308    20A     -0.556457    21A     -0.542087
      22A     -0.522137    23A     -0.504397    24A     -0.495957
      25A     -0.484474    26A     -0.469623    27A     -0.467650
      28A     -0.462107    29A     -0.354180

  @DF-RHF Final Energy:  -290.48730643763298

   => Energetics <=

    Nuclear Repulsion Energy =            317.4658774586927734
    One-Electron Energy =               -1020.9250664499695631
    Two-Electron Energy =                 412.9718825536441500
    DFT Exchange-Correlation Energy =       0.0000000000000000
    Empirical Dispersion Energy =           0.0000000000000000
    PCM Polarization Energy =               0.0000000000000000
    EFP Energy =                            0.0000000000000000
    Total Energy =                       -290.4873064376325829
    Molecular point group: c1
  Basis Set: CC-PVTZ
  Basis Set:

  -Total Gradient:
     Atom            X                  Y                   Z
    ------   -----------------  -----------------  -----------------
       1       -0.000005196300     0.000003123475    -0.000001083084
       2       -0.000007536266    -0.000001688539    -0.000013838681
       3        0.000010538965    -0.000008137061     0.000017765512
       4       -0.000003558966     0.000000843420     0.000001307450
       5        0.000007548366    -0.000003346027    -0.000001383024
       6        0.000000977847    -0.000087632091    -0.001349631210
       7       -0.000004998274     0.000005627557    -0.000001301832
       8       -0.000002709336    -0.000001931573     0.000001138429
       9       -0.000023010564    -0.000164912281    -0.001498245169
      10        0.000021821098     0.000133484345     0.001577999649
      11       -0.000007665373     0.000008178750     0.000000844085
      12        0.000007838922     0.000123397408     0.001254035228
      13        0.000012468473    -0.000004130841     0.000002488243
      14        0.000001030433    -0.000006846701     0.000002304831
      15        0.000000461550    -0.000002203847     0.000001217522
      16        0.000001230435    -0.000002247087     0.000009026318
      17       -0.000002314082     0.000001666155     0.000000516529
      18       -0.000002264015     0.000004316985    -0.000000968554
      19       -0.000001506586     0.000003725138    -0.000001308936
      20       -0.000000570215     0.000000150977     0.000000940938
      21       -0.000002640462    -0.000001240535    -0.000000245166
      22        0.000000054353    -0.000000197625    -0.000001579080

  **** Optimization is complete! (in 7 steps) ****
    Final optimized geometry and variables:
    Molecular point group: c1

    Geometry (in Angstrom), charge = 0, multiplicity = 1:

    H            3.216749484154    -2.098695074803     1.824115514112
    C            3.082409426271    -1.481535445608     0.943590414567
    C            1.720203882628    -0.795137562040     0.951210136508
    H            3.888399913475    -0.755429109135     0.922933785232
    H            3.193611984569    -2.120482178707     0.073624666932
    C            1.508422732227     0.079693874033    -0.286598722452
    H            1.627705725813    -0.178572608595     1.842315511044
    H            0.942012749402    -1.547910843688     1.014749189034
    N            0.284084108582     0.852812549661    -0.343771688096
    H            2.333998544715     0.781135576118    -0.350812663700
    H            1.558661688562    -0.542117115240    -1.175862323050
    C           -0.957987698269     0.111717865784    -0.273565518655
    H            0.296505792536     1.565946853039     0.354394185336
    C           -2.150557927554     1.016457985989    -0.550268547163
    H           -0.921781810790    -0.672200594343    -1.024987108143
    H           -1.106590973096    -0.386458608608     0.685639425583
    C           -3.481806966915     0.275046175915    -0.497873705448
    H           -2.017284592498     1.478699232479    -1.521766560843
    H           -2.159513240856     1.824888074611     0.176979525250
    H           -3.515794927222    -0.521696220438    -1.233670809274
    H           -4.309450186964     0.944678876704    -0.699918391480
    H           -3.648619933536    -0.169932660881     0.477514640863

  Mulliken Charges: (a.u.)
   Center  Symbol    Alpha    Beta     Spin     Total
       1     H     0.44751  0.44751  0.00000  0.10497
       2     C     3.15179  3.15179  0.00000 -0.30358
       3     C     3.08712  3.08712  0.00000 -0.17424
       4     H     0.45477  0.45477  0.00000  0.09046
       5     H     0.45478  0.45478  0.00000  0.09044
       6     C     3.04594  3.04594  0.00000 -0.09187
       7     H     0.45822  0.45822  0.00000  0.08356
       8     H     0.45300  0.45300  0.00000  0.09400
       9     N     3.64261  3.64261  0.00000 -0.28522
      10     H     0.44960  0.44960  0.00000  0.10081
      11     H     0.45428  0.45428  0.00000  0.09144
      12     C     3.02456  3.02456  0.00000 -0.04912
      13     H     0.44562  0.44562  0.00000  0.10876
      14     C     3.07907  3.07907  0.00000 -0.15813
      15     H     0.45915  0.45915  0.00000  0.08171
      16     H     0.47022  0.47022  0.00000  0.05957
      17     C     3.15385  3.15385  0.00000 -0.30770
      18     H     0.44921  0.44921  0.00000  0.10157
      19     H     0.45933  0.45933  0.00000  0.08134
      20     H     0.45514  0.45514  0.00000  0.08971
      21     H     0.44768  0.44768  0.00000  0.10464
      22     H     0.45656  0.45656  0.00000  0.08688

   Total alpha = 29.00000, Total beta = 29.00000, Total charge =  0.00000
