  ==> Input File <==

--------------------------------------------------------------------------
set {
	reference rhf
	basis 6-31G*
}

set_num_threads( 4 )
memory 2 gb

molecule MOL {
0 1

H	 1.654704	 -1.101639	 0.850172
O	 1.586534	 -0.678666	 -0.000226
C	 0.489431	 0.077273	 0.000046
C	 -0.764129	 -0.759190	 0.000191
O	 0.537743	 1.263962	 0.000257
C	 -2.038368	 0.075731	 -0.000248
H	 -0.717284	 -1.412404	 -0.866059
H	 -0.717458	 -1.411724	 0.866967
H	 -2.086483	 0.712501	 -0.875098
H	 -2.908485	 -0.571682	 -0.000042
H	 -2.086576	 0.713280	 0.874068

	symmetry c1
}
set optking {
	frozen_dihedral = ("
		1 2 3 5
	")
}

ee = optimize('scf')
oeprop('DIPOLE', 'QUADRUPOLE', 'MULLIKEN_CHARGES')
f=open( 'psi4out.xyz', 'w' )
f.write( "11  " )
f.write( str(ee) + "\n" )
f.write( MOL.save_string_xyz() )
f.close()
--------------------------------------------------------------------------

    Molecular point group: c1
  Charge       = 0
  Multiplicity = 1
  Basis Set: 6-31G*
  Basis Set:
  @DF-RHF Final Energy:  -266.82335864833453
    Total Energy =                       -266.8233586483343629
    Molecular point group: c1
  Basis Set: 6-31G*
  Basis Set:
  Basis Set: 6-31G*
  Basis Set:
  @DF-RHF Final Energy:  -266.82479256981412
    Total Energy =                       -266.8247925698140079
  Basis Set: 6-31G*
  Basis Set:
  Basis Set: 6-31G*
  Basis Set:
  @DF-RHF Final Energy:  -266.82389017029641
    Total Energy =                       -266.8238901702966359
  Basis Set: 6-31G*
  Basis Set:
  Basis Set: 6-31G*
  Basis Set:
  @DF-RHF Final Energy:  -266.82504828869128
    Total Energy =                       -266.8250482886913346
  Basis Set: 6-31G*
  Basis Set:
  Basis Set: 6-31G*
  Basis Set:
  @DF-RHF Final Energy:  -266.82505920527603
    Total Energy =                       -266.8250592052759202
  Basis Set: 6-31G*
  Basis Set:
  Basis Set: 6-31G*
  Basis Set:
  @DF-RHF Final Energy:  -266.82506022409939
    Total Energy =                       -266.8250602240993885
  Basis Set: 6-31G*
  Basis Set:
  Charge       = 0
  Multiplicity = 1
  Basis Set: 6-31G*
  Basis Set:

    Orbital Energies (a.u.)
    -----------------------

    Doubly Occupied:

       1A    -20.597211     2A    -20.562244     3A    -11.382282
       4A    -11.249225     5A    -11.223466     6A     -1.461645
       7A     -1.369622     8A     -1.065596     9A     -0.908986
      10A     -0.812254    11A     -0.714508    12A     -0.671247
      13A     -0.658840    14A     -0.615505    15A     -0.571750
      16A     -0.531053    17A     -0.520366    18A     -0.502359
      19A     -0.490734    20A     -0.445946

  @DF-RHF Final Energy:  -266.82506029037205

   => Energetics <=

    Nuclear Repulsion Energy =            179.0295131889384379
    One-Electron Energy =                -718.9994653969021101
    Two-Electron Energy =                 273.1448919175916785
    DFT Exchange-Correlation Energy =       0.0000000000000000
    Empirical Dispersion Energy =           0.0000000000000000
    PCM Polarization Energy =               0.0000000000000000
    EFP Energy =                            0.0000000000000000
    Total Energy =                       -266.8250602903719368
    Molecular point group: c1
  Basis Set: 6-31G*
  Basis Set:

  -Total Gradient:
     Atom            X                  Y                   Z
    ------   -----------------  -----------------  -----------------
       1        0.001756623956     0.002713003871     0.001057802934
       2       -0.002175993772    -0.003398739857     0.000018484220
       3        0.000382812966     0.000598575836    -0.004081359779
       4        0.000009136285    -0.000006229922     0.000003653778
       5        0.000014616469     0.000085691129     0.002993941961
       6        0.000002116378     0.000001350831     0.000001990839
       7        0.000002263158     0.000001136402     0.000003270584
       8        0.000004041084     0.000001190354     0.000005863087
       9       -0.000002853471     0.000003710700    -0.000004716877
      10        0.000006561470     0.000000043853    -0.000001156594
      11        0.000000675478     0.000000266801     0.000002225848

  **** Optimization is complete! (in 7 steps) ****
    Final optimized geometry and variables:
    Molecular point group: c1

    Geometry (in Angstrom), charge = 0, multiplicity = 1:

    H            1.766941110929    -1.075158154880     0.857557836029
    O            1.632920818990    -0.660199665629     0.014387891438
    C            0.495011473477     0.083993254174    -0.004522748985
    C           -0.771954496777    -0.739384188433    -0.011543611721
    O            0.535468339997     1.261515162642    -0.046546247334
    C           -2.042939499526     0.100254004500    -0.007995271927
    H           -0.724661093940    -1.384269780642    -0.884532001760
    H           -0.742767744162    -1.407605043099     0.846828617583
    H           -2.080298295374     0.747766184194    -0.875126014937
    H           -2.916837346859    -0.541934124496    -0.021550668144
    H           -2.093842379368     0.727807936056     0.873696413658

  Mulliken Charges: (a.u.)
   Center  Symbol    Alpha    Beta     Spin     Total
       1     H     0.26760  0.26760  0.00000  0.46481
       2     O     4.36640  4.36640  0.00000 -0.73279
       3     C     2.62863  2.62863  0.00000  0.74274
       4     C     3.21152  3.21152  0.00000 -0.42304
       5     O     4.24499  4.24499  0.00000 -0.48998
       6     C     3.23907  3.23907  0.00000 -0.47814
       7     H     0.39600  0.39600  0.00000  0.20801
       8     H     0.41217  0.41217  0.00000  0.17565
       9     H     0.40640  0.40640  0.00000  0.18720
      10     H     0.41679  0.41679  0.00000  0.16643
      11     H     0.41044  0.41044  0.00000  0.17912

   Total alpha = 20.00000, Total beta = 20.00000, Total charge =  0.00000
