  ==> Input File <==

--------------------------------------------------------------------------
set {
	reference rhf
	basis cc-pvtz
}

set_num_threads( 4 )
memory 2 gb

molecule MOL {
0 1

H	 1.517500	 -1.899257	 -0.897247
C	 0.611213	 -1.346908	 -1.079964
O	 0.462329	 -0.453336	 -0.000137
H	 -0.221371	 -2.037019	 -1.132583
H	 0.702774	 -0.813473	 -2.017676
C	 -0.590565	 0.341382	 0.000062
O	 -1.693898	 -0.053880	 0.000252
H	 -0.340426	 1.403822	 0.000200

	symmetry c1
}
set optking {
	frozen_dihedral = ("
		2 3 6 7
	")
}

ee = optimize('scf')
oeprop('DIPOLE', 'QUADRUPOLE', 'MULLIKEN_CHARGES')
f=open( 'psi4out.xyz', 'w' )
f.write( "8  " )
f.write( str(ee) + "\n" )
f.write( MOL.save_string_xyz() )
f.close()
--------------------------------------------------------------------------

    Molecular point group: c1
  Charge       = 0
  Multiplicity = 1
  Basis Set: CC-PVTZ
  Basis Set:
  @DF-RHF Final Energy:  -227.86328022533058
    Total Energy =                       -227.8632802253304135
    Molecular point group: c1
  Basis Set: CC-PVTZ
  Basis Set:
  Basis Set: CC-PVTZ
  Basis Set:
  @DF-RHF Final Energy:  -227.85810886444213
    Total Energy =                       -227.8581088644421584
  Basis Set: CC-PVTZ
  Basis Set:
  Basis Set: CC-PVTZ
  Basis Set:
  @DF-RHF Final Energy:  -227.86389097939184
    Total Energy =                       -227.8638909793919538
  Basis Set: CC-PVTZ
  Basis Set:
  Basis Set: CC-PVTZ
  Basis Set:
  @DF-RHF Final Energy:  -227.86429851198207
    Total Energy =                       -227.8642985119821560
  Basis Set: CC-PVTZ
  Basis Set:
  Basis Set: CC-PVTZ
  Basis Set:
  @DF-RHF Final Energy:  -227.86430737088043
    Total Energy =                       -227.8643073708805957
  Basis Set: CC-PVTZ
  Basis Set:
  Basis Set: CC-PVTZ
  Basis Set:
  @DF-RHF Final Energy:  -227.86430839118381
    Total Energy =                       -227.8643083911838119
  Basis Set: CC-PVTZ
  Basis Set:
  Charge       = 0
  Multiplicity = 1
  Basis Set: CC-PVTZ
  Basis Set:

    Orbital Energies (a.u.)
    -----------------------

    Doubly Occupied:

       1A    -20.594291     2A    -20.558372     3A    -11.375218
       4A    -11.292525     5A     -1.473999     6A     -1.382306
       7A     -0.991306     8A     -0.826620     9A     -0.742634
      10A     -0.688429    11A     -0.671677    12A     -0.620644
      13A     -0.562495    14A     -0.521672    15A     -0.473361
      16A     -0.458329

  @DF-RHF Final Energy:  -227.86430842570911

   => Energetics <=

    Nuclear Repulsion Energy =            122.6399862698069114
    One-Electron Energy =                -554.5408322609898732
    Two-Electron Energy =                 204.0365375654738784
    DFT Exchange-Correlation Energy =       0.0000000000000000
    Empirical Dispersion Energy =           0.0000000000000000
    PCM Polarization Energy =               0.0000000000000000
    EFP Energy =                            0.0000000000000000
    Total Energy =                       -227.8643084257090834
    Molecular point group: c1
  Basis Set: CC-PVTZ
  Basis Set:

  -Total Gradient:
     Atom            X                  Y                   Z
    ------   -----------------  -----------------  -----------------
       1        0.000002566840    -0.000001893478    -0.000002210452
       2        0.003212009440     0.004724089463    -0.003837502495
       3       -0.004551235265    -0.006886630870     0.010276429532
       4       -0.000001607368     0.000007627340     0.000005050777
       5       -0.000003499612     0.000006366853     0.000004342361
       6        0.000891714397     0.001732022919    -0.015423548669
       7        0.000447259465     0.000413341009     0.008976591288
       8        0.000002792102     0.000005076764     0.000000847658

  **** Optimization is complete! (in 7 steps) ****
    Final optimized geometry and variables:
    Molecular point group: c1

    Geometry (in Angstrom), charge = 0, multiplicity = 1:

    H            1.797129262442    -1.547113887289    -0.586590397850
    C            0.916530415432    -0.966068680649    -0.804713202586
    O            0.781973284711    -0.027582262920     0.247665173596
    H            0.053079413849    -1.612950900731    -0.856080366058
    H            1.048678642732    -0.451109086978    -1.747887887095
    C           -0.313939908554     0.727746586438     0.266360109103
    O           -1.412327480768     0.321351372147     0.338169953230
    H           -0.069650722652     1.786505275886     0.303008113634

  Mulliken Charges: (a.u.)
   Center  Symbol    Alpha    Beta     Spin     Total
       1     H     0.44579  0.44579  0.00000  0.10841
       2     C     3.02460  3.02460  0.00000 -0.04920
       3     O     4.15396  4.15396  0.00000 -0.30792
       4     H     0.44970  0.44970  0.00000  0.10061
       5     H     0.46271  0.46271  0.00000  0.07458
       6     C     2.83051  2.83051  0.00000  0.33898
       7     O     4.17332  4.17332  0.00000 -0.34664
       8     H     0.45941  0.45941  0.00000  0.08118

   Total alpha = 16.00000, Total beta = 16.00000, Total charge =  0.00000
