  ==> Input File <==

--------------------------------------------------------------------------
set {
	reference rhf
	basis 6-31G*
}

set_num_threads( 1 )
memory 2 gb

molecule MOL {
0 1

H	 -1.542074	 0.875215	 -2.855241
O	 -1.833288	 0.487439	 -2.042091
C	 -0.950724	 0.837147	 -1.009728
C	 0.350477	 0.061001	 -1.110419
H	 -0.741068	 1.903158	 -1.005031
H	 -1.444291	 0.594869	 -0.079060
O	 1.171513	 0.459272	 -0.058250
H	 0.832362	 0.260446	 -2.069580
H	 0.143466	 -1.006574	 -1.065543
C	 2.397842	 -0.198080	 -0.002151
H	 2.508049	 -0.905315	 -0.822092
H	 3.173794	 0.550865	 -0.078850
H	 2.517602	 -0.735921	 0.936026

	symmetry c1
}
set optking {
	frozen_dihedral = ("
		8 4 3 5,
		1 2 3 5,
		10 7 4 8
	")
}

ee = energy('scf')
oeprop('DIPOLE', 'QUADRUPOLE', 'MULLIKEN_CHARGES')
f=open( 'psi4out.xyz', 'w' )
f.write( "13  " )
f.write( str(ee) + "\n" )
f.write( MOL.save_string_xyz() )
f.close()
--------------------------------------------------------------------------

    Molecular point group: c1

    Geometry (in Angstrom), charge = 0, multiplicity = 1:

       Center              X                  Y                   Z               Mass
    ------------   -----------------  -----------------  -----------------  -----------------
           H         -1.758721581275     0.545282796071    -1.985356819975     1.007825032070
           O         -2.049935581275     0.157506796071    -1.172206819975    15.994914619560
           C         -1.167371581275     0.507214796071    -0.139843819975    12.000000000000
           C          0.133829418725    -0.268931203929    -0.240534819975    12.000000000000
           H         -0.957715581275     1.573225796071    -0.135146819975     1.007825032070
           H         -1.660938581275     0.264936796071     0.790824180025     1.007825032070
           O          0.954865418725     0.129339796071     0.811634180025    15.994914619560
           H          0.615714418725    -0.069486203929    -1.199695819975     1.007825032070
           H         -0.073181581275    -1.336506203929    -0.195658819975     1.007825032070
           C          2.181194418725    -0.528012203929     0.867733180025    12.000000000000
           H          2.291401418725    -1.235247203929     0.047792180025     1.007825032070
           H          2.957146418725     0.220932796071     0.791034180025     1.007825032070
           H          2.300954418725    -1.065853203929     1.805910180025     1.007825032070

  Charge       = 0
  Multiplicity = 1
  Basis Set: 6-31G*
  Basis Set:

    Orbital Energies (a.u.)
    -----------------------

    Doubly Occupied:

       1A    -20.559951     2A    -20.559199     3A    -11.271463
       4A    -11.269249     5A    -11.268560     6A     -1.387726
       7A     -1.364931     8A     -1.017925     9A     -0.913008
      10A     -0.842937    11A     -0.708999    12A     -0.672813
      13A     -0.658686    14A     -0.636926    15A     -0.597591
      16A     -0.567563    17A     -0.547643    18A     -0.489873
      19A     -0.483287    20A     -0.438160    21A     -0.416362

  @DF-RHF Final Energy:  -267.94623778163464

   => Energetics <=

    Nuclear Repulsion Energy =            190.2837797089893854
    One-Electron Energy =                -743.1143460269094021
    Two-Electron Energy =                 284.8843285362855795
    DFT Exchange-Correlation Energy =       0.0000000000000000
    Empirical Dispersion Energy =           0.0000000000000000
    PCM Polarization Energy =               0.0000000000000000
    EFP Energy =                            0.0000000000000000
    Total Energy =                       -267.9462377816344087

  Mulliken Charges: (a.u.)
   Center  Symbol    Alpha    Beta     Spin     Total
       1     H     0.28133  0.28133  0.00000  0.43734
       2     O     4.37084  4.37084  0.00000 -0.74168
       3     C     3.00502  3.00502  0.00000 -0.01004
       4     C     2.99845  2.99845  0.00000  0.00311
       5     H     0.42237  0.42237  0.00000  0.15526
       6     H     0.40844  0.40844  0.00000  0.18313
       7     O     4.30939  4.30939  0.00000 -0.61877
       8     H     0.43723  0.43723  0.00000  0.12553
       9     H     0.42275  0.42275  0.00000  0.15451
      10     C     3.07768  3.07768  0.00000 -0.15536
      11     H     0.42818  0.42818  0.00000  0.14364
      12     H     0.41907  0.41907  0.00000  0.16187
      13     H     0.41927  0.41927  0.00000  0.16147

   Total alpha = 21.00000, Total beta = 21.00000, Total charge =  0.00000
