  ==> Input File <==

--------------------------------------------------------------------------
set {
	reference rhf
	basis 6-31G*
}

set_num_threads( 1 )
memory 2 gb

molecule MOL {
0 1

H	 2.840794	 -0.383337	 0.272257
O	 2.002060	 -0.834023	 0.286172
C	 1.050492	 0.053836	 0.000068
C	 -0.318135	 -0.576402	 0.000164
O	 1.296128	 1.194660	 -0.221694
C	 -1.454360	 0.441875	 -0.000474
H	 -0.374042	 -1.230163	 -0.866135
H	 -0.374274	 -1.229227	 0.867154
C	 -2.826123	 -0.230780	 0.000056
H	 -1.357605	 1.085198	 -0.868380
H	 -1.357504	 1.086451	 0.866496
H	 -2.959731	 -0.858053	 -0.876869
H	 -3.619374	 0.509403	 -0.000080
H	 -2.959371	 -0.857318	 0.877556

	symmetry c1
}
set optking {
	frozen_dihedral = ("
		7 4 6 10,
		1 2 3 5
	")
}

ee = energy('scf')
oeprop('DIPOLE', 'QUADRUPOLE', 'MULLIKEN_CHARGES')
f=open( 'psi4out.xyz', 'w' )
f.write( "14  " )
f.write( str(ee) + "\n" )
f.write( MOL.save_string_xyz() )
f.close()
--------------------------------------------------------------------------

    Molecular point group: c1

    Geometry (in Angstrom), charge = 0, multiplicity = 1:

       Center              X                  Y                   Z               Mass
    ------------   -----------------  -----------------  -----------------  -----------------
           H          2.841519641862    -0.384915287837     0.257456550845     1.007825032070
           O          2.002785641862    -0.835601287837     0.271371550845    15.994914619560
           C          1.051217641862     0.052257712163    -0.014732449155    12.000000000000
           C         -0.317409358138    -0.577980287837    -0.014636449155    12.000000000000
           O          1.296853641862     1.193081712163    -0.236494449155    15.994914619560
           C         -1.453634358138     0.440296712163    -0.015274449155    12.000000000000
           H         -0.373316358138    -1.231741287837    -0.880935449155     1.007825032070
           H         -0.373548358138    -1.230805287837     0.852353550845     1.007825032070
           C         -2.825397358138    -0.232358287837    -0.014744449155    12.000000000000
           H         -1.356879358138     1.083619712163    -0.883180449155     1.007825032070
           H         -1.356778358138     1.084872712163     0.851695550845     1.007825032070
           H         -2.959005358138    -0.859631287837    -0.891669449155     1.007825032070
           H         -3.618648358138     0.507824712163    -0.014880449155     1.007825032070
           H         -2.958645358138    -0.858896287837     0.862755550845     1.007825032070

  Charge       = 0
  Multiplicity = 1
  Basis Set: 6-31G*
  Basis Set:

    Orbital Energies (a.u.)
    -----------------------

    Doubly Occupied:

       1A    -20.613327     2A    -20.552031     3A    -11.381770
       4A    -11.241204     5A    -11.226128     6A    -11.217336
       7A     -1.475229     8A     -1.366261     9A     -1.083354
      10A     -0.979774    11A     -0.857341    12A     -0.791885
      13A     -0.700356    14A     -0.688728    15A     -0.666318
      16A     -0.616162    17A     -0.594127    18A     -0.572978
      19A     -0.545536    20A     -0.505953    21A     -0.492017
      22A     -0.482375    23A     -0.478809    24A     -0.444405

  @DF-RHF Final Energy:  -305.88066758820537

   => Energetics <=

    Nuclear Repulsion Energy =            239.9485271033836398
    One-Electron Energy =                -892.5116467412435668
    Two-Electron Energy =                 346.6824520496548416
    DFT Exchange-Correlation Energy =       0.0000000000000000
    Empirical Dispersion Energy =           0.0000000000000000
    PCM Polarization Energy =               0.0000000000000000
    EFP Energy =                            0.0000000000000000
    Total Energy =                       -305.8806675882050854

  Mulliken Charges: (a.u.)
   Center  Symbol    Alpha    Beta     Spin     Total
       1     H     0.26786  0.26786  0.00000  0.46429
       2     O     4.35100  4.35100  0.00000 -0.70201
       3     C     2.62301  2.62301  0.00000  0.75398
       4     C     3.20978  3.20978  0.00000 -0.41956
       5     O     4.27912  4.27912  0.00000 -0.55825
       6     C     3.15313  3.15313  0.00000 -0.30626
       7     H     0.39797  0.39797  0.00000  0.20407
       8     H     0.39949  0.39949  0.00000  0.20103
       9     C     3.24285  3.24285  0.00000 -0.48570
      10     H     0.40752  0.40752  0.00000  0.18495
      11     H     0.41243  0.41243  0.00000  0.17515
      12     H     0.42064  0.42064  0.00000  0.15873
      13     H     0.41444  0.41444  0.00000  0.17112
      14     H     0.42077  0.42077  0.00000  0.15847

   Total alpha = 24.00000, Total beta = 24.00000, Total charge = -0.00000
