  ==> Input File <==

--------------------------------------------------------------------------
set {
	reference rhf
	basis 6-31G*
}

set_num_threads( 1 )
memory 2 gb

molecule MOL {
0 1

O	 0.217294	 0.526472	 2.264163
C	 -0.511179	 0.840452	 1.379281
C	 -1.411146	 2.046399	 1.389120
O	 -0.632575	 0.154573	 0.251549
H	 -2.442762	 1.734459	 1.273321
H	 -1.288863	 2.582464	 2.318376
H	 -1.167595	 2.691793	 0.553114
C	 0.160891	 -1.019931	 0.106212
C	 1.589627	 -0.672828	 0.480843
H	 0.089836	 -1.367806	 -0.916050
H	 -0.238459	 -1.792301	 0.749618
C	 2.246377	 0.346236	 -0.452210
H	 2.163194	 -1.597435	 0.473358
H	 1.604769	 -0.303424	 1.502885
C	 3.691736	 0.652107	 -0.061850
H	 2.219579	 -0.032311	 -1.472055
H	 1.666466	 1.263317	 -0.447249
H	 4.134505	 1.377213	 -0.737283
H	 4.305508	 -0.243868	 -0.089969
H	 3.748266	 1.059562	 0.943567

	symmetry c1
}
set optking {
	frozen_dihedral = ("
		16 12 9 8,
		12 9 8 10,
		1 2 4 8
	")
}

ee = energy('scf')
oeprop('DIPOLE', 'QUADRUPOLE', 'MULLIKEN_CHARGES')
f=open( 'psi4out.xyz', 'w' )
f.write( "20  " )
f.write( str(ee) + "\n" )
f.write( MOL.save_string_xyz() )
f.close()
--------------------------------------------------------------------------

    Molecular point group: c1

    Geometry (in Angstrom), charge = 0, multiplicity = 1:

       Center              X                  Y                   Z               Mass
    ------------   -----------------  -----------------  -----------------  -----------------
           O         -0.450013116265     0.159356184542     1.587759247613    15.994914619560
           C         -1.178486116265     0.473336184542     0.702877247613    12.000000000000
           C         -2.078453116265     1.679283184542     0.712716247613    12.000000000000
           O         -1.299882116265    -0.212542815458    -0.424854752387    15.994914619560
           H         -3.110069116265     1.367343184542     0.596917247613     1.007825032070
           H         -1.956170116265     2.215348184542     1.641972247613     1.007825032070
           H         -1.834902116265     2.324677184542    -0.123289752387     1.007825032070
           C         -0.506416116265    -1.387046815458    -0.570191752387    12.000000000000
           C          0.922319883735    -1.039943815458    -0.195560752387    12.000000000000
           H         -0.577471116265    -1.734921815458    -1.592453752387     1.007825032070
           H         -0.905766116265    -2.159416815458     0.073214247613     1.007825032070
           C          1.579069883735    -0.020879815458    -1.128613752387    12.000000000000
           H          1.495886883735    -1.964550815458    -0.203045752387     1.007825032070
           H          0.937461883735    -0.670539815458     0.826481247613     1.007825032070
           C          3.024428883735     0.284991184542    -0.738253752387    12.000000000000
           H          1.552271883735    -0.399426815458    -2.148458752387     1.007825032070
           H          0.999158883735     0.896201184542    -1.123652752387     1.007825032070
           H          3.467197883735     1.010097184542    -1.413686752387     1.007825032070
           H          3.638200883735    -0.610983815458    -0.766372752387     1.007825032070
           H          3.080958883735     0.692446184542     0.267163247613     1.007825032070

  Charge       = 0
  Multiplicity = 1
  Basis Set: 6-31G*
  Basis Set:

    Orbital Energies (a.u.)
    -----------------------

    Doubly Occupied:

       1A    -20.602969     2A    -20.545660     3A    -11.380154
       4A    -11.282753     5A    -11.235666     6A    -11.213526
       7A    -11.206076     8A    -11.198418     9A     -1.473882
      10A     -1.368158    11A     -1.077453    12A     -1.027847
      13A     -0.975007    14A     -0.886435    15A     -0.810997
      16A     -0.756380    17A     -0.700703    18A     -0.688030
      19A     -0.667618    20A     -0.625904    21A     -0.599179
      22A     -0.591729    23A     -0.568229    24A     -0.563875
      25A     -0.544327    26A     -0.519355    27A     -0.511454
      28A     -0.489045    29A     -0.474207    30A     -0.464436
      31A     -0.440864    32A     -0.412212

  @DF-RHF Final Energy:  -383.92263918037759

   => Energetics <=

    Nuclear Repulsion Energy =            403.7276660005685471
    One-Electron Energy =               -1323.4954672532071527
    Two-Electron Energy =                 535.8451620722612461
    DFT Exchange-Correlation Energy =       0.0000000000000000
    Empirical Dispersion Energy =           0.0000000000000000
    PCM Polarization Energy =               0.0000000000000000
    EFP Energy =                            0.0000000000000000
    Total Energy =                       -383.9226391803773595

  Mulliken Charges: (a.u.)
   Center  Symbol    Alpha    Beta     Spin     Total
       1     O     4.28855  4.28855  0.00000 -0.57709
       2     C     2.61253  2.61253  0.00000  0.77494
       3     C     3.28196  3.28196  0.00000 -0.56391
       4     O     4.30961  4.30961  0.00000 -0.61921
       5     H     0.39909  0.39909  0.00000  0.20183
       6     H     0.39694  0.39694  0.00000  0.20612
       7     H     0.39982  0.39982  0.00000  0.20037
       8     C     3.00370  3.00370  0.00000 -0.00741
       9     C     3.20059  3.20059  0.00000 -0.40118
      10     H     0.40786  0.40786  0.00000  0.18427
      11     H     0.41030  0.41030  0.00000  0.17939
      12     C     3.15028  3.15028  0.00000 -0.30056
      13     H     0.42522  0.42522  0.00000  0.14956
      14     H     0.36475  0.36475  0.00000  0.27049
      15     C     3.23902  3.23902  0.00000 -0.47804
      16     H     0.42609  0.42609  0.00000  0.14783
      17     H     0.42340  0.42340  0.00000  0.15320
      18     H     0.42030  0.42030  0.00000  0.15939
      19     H     0.42193  0.42193  0.00000  0.15614
      20     H     0.41806  0.41806  0.00000  0.16388

   Total alpha = 32.00000, Total beta = 32.00000, Total charge =  0.00000
