  ==> Input File <==

--------------------------------------------------------------------------
set {
	reference rhf
	basis 6-31G*
}

set_num_threads( 4 )
memory 2 gb

molecule MOL {
0 1

H	 -1.227050	 0.537072	 0.994127
C	 -0.790252	 0.431209	 0.000000
N	 0.538815	 0.649616	 0.000000
O	 -1.452535	 0.151684	 -0.955226
C	 1.521968	 -0.411503	 0.000000
H	 0.852804	 1.592852	 0.000000
H	 2.150599	 -0.357004	 -0.881901
H	 0.999455	 -1.354525	 0.000000
H	 2.150599	 -0.357004	 0.881901

	symmetry c1
}
set optking {
	frozen_dihedral = ("
		1 2 3 6
	")
}

ee = optimize('scf')
oeprop('DIPOLE', 'QUADRUPOLE', 'MULLIKEN_CHARGES')
f=open( 'psi4out.xyz', 'w' )
f.write( "9  " )
f.write( str(ee) + "\n" )
f.write( MOL.save_string_xyz() )
f.close()
--------------------------------------------------------------------------

    Molecular point group: c1
  Charge       = 0
  Multiplicity = 1
  Basis Set: 6-31G*
  Basis Set:
  @DF-RHF Final Energy:  -207.91803879315842
    Total Energy =                       -207.9180387931583880
    Molecular point group: c1
  Basis Set: 6-31G*
  Basis Set:
  Basis Set: 6-31G*
  Basis Set:
  @DF-RHF Final Energy:  -207.92340224513904
    Total Energy =                       -207.9234022451390160
  Basis Set: 6-31G*
  Basis Set:
  Basis Set: 6-31G*
  Basis Set:
  @DF-RHF Final Energy:  -207.92825341660850
    Total Energy =                       -207.9282534166085270
  Basis Set: 6-31G*
  Basis Set:
  Basis Set: 6-31G*
  Basis Set:
  @DF-RHF Final Energy:  -207.88381730840570
    Total Energy =                       -207.8838173084056962
  Basis Set: 6-31G*
  Basis Set:
  @DF-RHF Final Energy:  -207.92911337808533
    Total Energy =                       -207.9291133780854182
  @DF-RHF Final Energy:  -207.94067884029079
    Total Energy =                       -207.9406788402907864
  @DF-RHF Final Energy:  -207.94034530660335
    Total Energy =                       -207.9403453066034047
  @DF-RHF Final Energy:  -207.93705445974751
    Total Energy =                       -207.9370544597475146
  @DF-RHF Final Energy:  -207.94295825505242
    Total Energy =                       -207.9429582550523889
  @DF-RHF Final Energy:  -207.94335606545690
    Total Energy =                       -207.9433560654568396
  Basis Set: 6-31G*
  Basis Set:
  @DF-RHF Final Energy:  -207.94348967932342
    Total Energy =                       -207.9434896793234202
  Basis Set: 6-31G*
  Basis Set:
  Basis Set: 6-31G*
  Basis Set:
  @DF-RHF Final Energy:  -207.94350343564932
    Total Energy =                       -207.9435034356492338
  Basis Set: 6-31G*
  Basis Set:
  Basis Set: 6-31G*
  Basis Set:
  @DF-RHF Final Energy:  -207.94350500796679
    Total Energy =                       -207.9435050079667633
  Basis Set: 6-31G*
  Basis Set:
  Charge       = 0
  Multiplicity = 1
  Basis Set: 6-31G*
  Basis Set:

    Orbital Energies (a.u.)
    -----------------------

    Doubly Occupied:

       1A    -20.559758     2A    -15.579580     3A    -11.352459
       4A    -11.252082     5A     -1.414774     6A     -1.226475
       7A     -0.949494     8A     -0.809408     9A     -0.725653
      10A     -0.655956    11A     -0.644225    12A     -0.569822
      13A     -0.547750    14A     -0.529894    15A     -0.441699
      16A     -0.410838

  @DF-RHF Final Energy:  -207.94350484454242

   => Energetics <=

    Nuclear Repulsion Energy =            122.6132439437848660
    One-Electron Energy =                -525.7737593012330990
    Two-Electron Energy =                 195.2170105129058584
    DFT Exchange-Correlation Energy =       0.0000000000000000
    Empirical Dispersion Energy =           0.0000000000000000
    PCM Polarization Energy =               0.0000000000000000
    EFP Energy =                            0.0000000000000000
    Total Energy =                       -207.9435048445423604
    Molecular point group: c1
  Basis Set: 6-31G*
  Basis Set:

  -Total Gradient:
     Atom            X                  Y                   Z
    ------   -----------------  -----------------  -----------------
       1       -0.002106302817    -0.011788672097     0.006074420551
       2        0.004146265738     0.014085245147    -0.010988563882
       3       -0.007693628136     0.002255890985     0.017137880824
       4       -0.000068492949     0.000057068561     0.000011015095
       5       -0.000024718623     0.000037023074     0.000005115455
       6        0.005706037569    -0.004625506608    -0.012262203166
       7        0.000016602385    -0.000002996700     0.000009690040
       8        0.000009809052    -0.000002199008     0.000018115110
       9        0.000014427784    -0.000015853353    -0.000005470028

  **** Optimization is complete! (in 14 steps) ****
    Final optimized geometry and variables:
    Molecular point group: c1

    Geometry (in Angstrom), charge = 0, multiplicity = 1:

    H           -1.576801936795     0.844149201279     0.737095499300
    C           -0.814427345943     0.383793476438     0.109150691393
    N            0.466672439118     0.450024330306     0.664738368514
    O           -1.112935520105    -0.260404923413    -0.842491915248
    C            1.399608658625    -0.543786628358     0.130163669909
    H            0.867598101850     1.357761071978     0.509756255902
    H            1.565994995368    -0.448348628423    -0.937347162311
    H            1.012606451097    -1.533927362835     0.324615936316
    H            2.341932761252    -0.434603800307     0.651254716588

  Mulliken Charges: (a.u.)
   Center  Symbol    Alpha    Beta     Spin     Total
       1     H     0.41538  0.41538  0.00000  0.16925
       2     C     2.77339  2.77339  0.00000  0.45321
       3     N     3.86407  3.86407  0.00000 -0.72813
       4     O     4.24574  4.24574  0.00000 -0.49148
       5     C     3.15386  3.15386  0.00000 -0.30771
       6     H     0.31684  0.31684  0.00000  0.36632
       7     H     0.41274  0.41274  0.00000  0.17453
       8     H     0.40437  0.40437  0.00000  0.19126
       9     H     0.41362  0.41362  0.00000  0.17276

   Total alpha = 16.00000, Total beta = 16.00000, Total charge = -0.00000
