                              Psi4 1.0.54 Driver

  ==> Input File <==

--------------------------------------------------------------------------
set {
	reference rhf
	basis cc-pvtz
}

set_num_threads( 4 )
memory 2 gb

molecule MOL {
0 1

H	 2.614283	 2.028610	 0.296620
O	 3.358864	 1.662087	 -0.142800
C	 3.565468	 0.338079	 0.273842
C	 2.533667	 -0.637565	 -0.272227
H	 4.548038	 0.064914	 -0.086598
H	 3.593945	 0.282242	 1.360360
C	 1.114816	 -0.402372	 0.240993
H	 2.544552	 -0.580764	 -1.356576
H	 2.850574	 -1.642962	 -0.005497
C	 0.051803	 -0.637988	 -0.831073
H	 1.032312	 0.612797	 0.614661
H	 0.922892	 -1.063066	 1.084756
C	 -1.393368	 -0.488419	 -0.352155
H	 0.226454	 0.040990	 -1.662165
H	 0.179429	 -1.640942	 -1.228895
C	 -1.799455	 0.929739	 0.044912
H	 -2.052547	 -0.826601	 -1.146916
H	 -1.564334	 -1.159540	 0.486608
C	 -3.274729	 1.045782	 0.419762
H	 -1.585819	 1.607090	 -0.779117
H	 -1.197837	 1.270096	 0.882299
C	 -3.682688	 2.459641	 0.820341
H	 -3.884492	 0.719193	 -0.418155
H	 -3.491726	 0.363470	 1.237335
H	 -3.507890	 3.161382	 0.011488
H	 -4.734744	 2.507294	 1.077276
H	 -3.116808	 2.801811	 1.680604

	symmetry c1
}
set optking {
	frozen_dihedral = ("
		10 7 4 8
	")
}

ee,wfn = optimize('scf', return_wfn=True)
oeprop( wfn, 'DIPOLE', 'QUADRUPOLE', 'MULLIKEN_CHARGES')
f=open( 'psi4out.xyz', 'w' )
f.write( "27  " )
f.write( str(ee) + "\n" )
f.write( MOL.save_string_xyz() )
f.close()
--------------------------------------------------------------------------

    Molecular point group: c1
  Charge       = 0
  Multiplicity = 1
  Basis Set: CC-PVTZ
  Basis Set:
  @DF-RHF Final Energy:  -388.42378105287122
    Total Energy =                       -388.4237810528716182
    Molecular point group: c1
  Basis Set: CC-PVTZ
  Basis Set:
  Basis Set: CC-PVTZ
  Basis Set:
  @DF-RHF Final Energy:  -388.42359011947133
    Total Energy =                       -388.4235901194711005
  Basis Set: CC-PVTZ
  Basis Set:
  Basis Set: CC-PVTZ
  Basis Set:
  @DF-RHF Final Energy:  -388.42410918410002
    Total Energy =                       -388.4241091841000753
  Basis Set: CC-PVTZ
  Basis Set:
  Basis Set: CC-PVTZ
  Basis Set:
  @DF-RHF Final Energy:  -388.42412562756181
    Total Energy =                       -388.4241256275614660
  Basis Set: CC-PVTZ
  Basis Set:
  Basis Set: CC-PVTZ
  Basis Set:
  @DF-RHF Final Energy:  -388.42413399679003
    Total Energy =                       -388.4241339967898057
  Basis Set: CC-PVTZ
  Basis Set:
  Basis Set: CC-PVTZ
  Basis Set:
  @DF-RHF Final Energy:  -388.42413954111800
    Total Energy =                       -388.4241395411180520
  Basis Set: CC-PVTZ
  Basis Set:
  Basis Set: CC-PVTZ
  Basis Set:
  @DF-RHF Final Energy:  -388.42414077317733
    Total Energy =                       -388.4241407731775553
  Basis Set: CC-PVTZ
  Basis Set:
  Charge       = 0
  Multiplicity = 1
  Basis Set: CC-PVTZ
  Basis Set:

    Orbital Energies (a.u.)
    -----------------------

    Doubly Occupied:

       1A    -20.545141     2A    -11.265208     3A    -11.217771
       4A    -11.214664     5A    -11.214258     6A    -11.213276
       7A    -11.213216     8A    -11.212441     9A    -11.207706
      10A     -1.363160    11A     -1.095881    12A     -1.061775
      13A     -1.012446    14A     -0.949844    15A     -0.888728
      16A     -0.821484    17A     -0.803420    18A     -0.778489
      19A     -0.694843    20A     -0.653802    21A     -0.641981
      22A     -0.613884    23A     -0.596917    24A     -0.584470
      25A     -0.579902    26A     -0.555568    27A     -0.540969
      28A     -0.536180    29A     -0.509768    30A     -0.492751
      31A     -0.487354    32A     -0.470006    33A     -0.468111
      34A     -0.460278    35A     -0.454321    36A     -0.441682
      37A     -0.426866

  @DF-RHF Final Energy:  -388.42414097672054

   => Energetics <=

    Nuclear Repulsion Energy =            462.1409196901198584
    One-Electron Energy =               -1442.5529949385074815
    Two-Electron Energy =                 591.9879342716665178
    DFT Exchange-Correlation Energy =       0.0000000000000000
    Empirical Dispersion Energy =           0.0000000000000000
    PCM Polarization Energy =               0.0000000000000000
    EFP Energy =                            0.0000000000000000
    Total Energy =                       -388.4241409767211053
    Molecular point group: c1
  Basis Set: CC-PVTZ
  Basis Set:

  -Total Gradient:
     Atom            X                  Y                   Z
    ------   -----------------  -----------------  -----------------
       1        0.000014956118    -0.000001549235     0.000006792309
       2       -0.000017770165    -0.000005135540    -0.000012606950
       3        0.000005965698    -0.000009900026     0.000007132046
       4        0.000850531683     0.005423022358    -0.000480559112
       5        0.000001405826     0.000002885217     0.000005047156
       6       -0.000003166803     0.000000764333    -0.000005050950
       7       -0.000364243229    -0.004299574590     0.001311700864
       8       -0.000624800548    -0.003583204410     0.000092079571
       9        0.000006143835     0.000002953104    -0.000005804938
      10        0.000139215438     0.002472515388    -0.000914000318
      11       -0.000008350427    -0.000010153928    -0.000006187998
      12       -0.000004619471     0.000006128895     0.000001645236
      13        0.000002918058     0.000003504987     0.000000478742
      14        0.000001132655    -0.000000304850    -0.000000322359
      15       -0.000000985871     0.000000931781     0.000003216187
      16       -0.000001247524    -0.000002128742    -0.000001795290
      17        0.000000832414     0.000002492868     0.000000218557
      18        0.000001948045    -0.000000150213     0.000000503085
      19        0.000000246512     0.000001788878    -0.000004165511
      20        0.000000342054    -0.000000829088     0.000000827964
      21        0.000001517779    -0.000002691953    -0.000001393743
      22       -0.000001483644    -0.000002680864     0.000001877940
      23       -0.000000652625     0.000001091011     0.000000870153
      24       -0.000000304608     0.000002507117    -0.000000902375
      25        0.000000450644    -0.000002545894     0.000000337557
      26       -0.000000500436     0.000000582700     0.000001165879
      27        0.000000518601    -0.000000319304    -0.000001103704

  **** Optimization is complete! (in 8 steps) ****
    Final optimized geometry and variables:
    Molecular point group: c1

    Geometry (in Angstrom), charge = 0, multiplicity = 1:

    H            2.577072387292     1.597079887731     0.039348452095
    O            3.342959080647     1.179498392085    -0.307925215493
    C            3.495243048639    -0.100920904908     0.245059738465
    C            2.458230586969    -1.097383465334    -0.247243115237
    H            4.482743830331    -0.431369916776    -0.047228822470
    H            3.480665442016    -0.050149516435     1.332125619298
    C            1.024345818305    -0.831792616300     0.240442033450
    H            2.483838245628    -1.128919212806    -1.331351921775
    H            2.767115479357    -2.086961563753     0.079589659189
    C           -0.035063954243    -1.159430446572    -0.811276757102
    H            0.920062494678     0.211491006337     0.522343807946
    H            0.833610854631    -1.401430148473     1.145019494147
    C           -1.482818978586    -1.038633148663    -0.333477340608
    H            0.116939238186    -0.515799390292    -1.673838328535
    H            0.126479620183    -2.175524232990    -1.161756892406
    C           -1.929229597357     0.377301299726     0.026781822171
    H           -2.133061948587    -1.416946028483    -1.117374465314
    H           -1.633146561756    -1.691188463865     0.523557607375
    C           -3.409333984836     0.462889174141     0.390380277741
    H           -1.728860776073     1.040387887311    -0.812193454777
    H           -1.342644909106     0.752903138770     0.859894764422
    C           -3.856679117888     1.873785037214     0.757705216247
    H           -4.004846449530     0.102341329653    -0.443765052971
    H           -3.613484983124    -0.207002871712     1.221313122659
    H           -3.695601747903     2.562160211783    -0.065348856083
    H           -4.911103374747     1.899278404277     1.007739580323
    H           -3.305312622498     2.249296288631     1.613464371907

  Mulliken Charges: (a.u.)
   Center  Symbol    Alpha    Beta     Spin     Total
       1     H     0.39187  0.39187  0.00000  0.21626
       2     O     4.20523  4.20523  0.00000 -0.41046
       3     C     2.98020  2.98020  0.00000  0.03960
       4     C     3.09174  3.09174  0.00000 -0.18349
       5     H     0.44779  0.44779  0.00000  0.10442
       6     H     0.47008  0.47008  0.00000  0.05983
       7     C     3.09880  3.09880  0.00000 -0.19760
       8     H     0.45204  0.45204  0.00000  0.09591
       9     H     0.45315  0.45315  0.00000  0.09369
      10     C     3.09787  3.09787  0.00000 -0.19574
      11     H     0.46583  0.46583  0.00000  0.06834
      12     H     0.44945  0.44945  0.00000  0.10110
      13     C     3.09812  3.09812  0.00000 -0.19623
      14     H     0.45043  0.45043  0.00000  0.09915
      15     H     0.44675  0.44675  0.00000  0.10650
      16     C     3.08929  3.08929  0.00000 -0.17858
      17     H     0.44796  0.44796  0.00000  0.10409
      18     H     0.45361  0.45361  0.00000  0.09278
      19     C     3.08395  3.08395  0.00000 -0.16790
      20     H     0.45398  0.45398  0.00000  0.09205
      21     H     0.45511  0.45511  0.00000  0.08977
      22     C     3.14975  3.14975  0.00000 -0.29951
      23     H     0.45356  0.45356  0.00000  0.09287
      24     H     0.45452  0.45452  0.00000  0.09096
      25     H     0.45493  0.45493  0.00000  0.09014
      26     H     0.44810  0.44810  0.00000  0.10379
      27     H     0.45586  0.45586  0.00000  0.08828

   Total alpha = 37.00000, Total beta = 37.00000, Total charge = -0.00000

*** Psi4 exiting successfully. Buy a developer a beer!
