  ==> Input File <==

--------------------------------------------------------------------------
set {
	reference rhf
	basis 6-31G*
}

set_num_threads( 4 )
memory 2 gb

molecule MOL {
0 1

H	 -3.892951	 0.981613	 -0.358725
C	 -3.196921	 0.361773	 0.172313
C	 -2.076860	 -0.007332	 -0.404944
H	 -3.439953	 0.057760	 1.173024
O	 -1.180634	 -0.819263	 0.215062
H	 -1.811520	 0.292194	 -1.403480
C	 0.051604	 -1.018856	 -0.387932
C	 1.043764	 0.054862	 -0.001873
H	 -0.017620	 -1.041351	 -1.469781
H	 0.437898	 -1.966374	 -0.042284
F	 0.990529	 0.254188	 1.307035
F	 2.284001	 -0.290991	 -0.305236
F	 0.789209	 1.201364	 -0.597797

	symmetry c1
}
set optking {
	frozen_dihedral = ("
		11 8 7 9
	")
}

ee = optimize('scf')
oeprop('DIPOLE', 'QUADRUPOLE', 'MULLIKEN_CHARGES')
f=open( 'psi4out.xyz', 'w' )
f.write( "13  " )
f.write( str(ee) + "\n" )
f.write( MOL.save_string_xyz() )
f.close()
--------------------------------------------------------------------------

    Molecular point group: c1
  Charge       = 0
  Multiplicity = 1
  Basis Set: 6-31G*
  Basis Set:
  @DF-RHF Final Energy:  -527.53455571599397
    Total Energy =                       -527.5345557159937471
    Molecular point group: c1
  Basis Set: 6-31G*
  Basis Set:
  Basis Set: 6-31G*
  Basis Set:
  @DF-RHF Final Energy:  -527.53512150501444
    Total Energy =                       -527.5351215050147857
  Basis Set: 6-31G*
  Basis Set:
  Basis Set: 6-31G*
  Basis Set:
  @DF-RHF Final Energy:  -527.53523946406460
    Total Energy =                       -527.5352394640647162
  Basis Set: 6-31G*
  Basis Set:
  Basis Set: 6-31G*
  Basis Set:
  @DF-RHF Final Energy:  -527.53525500339833
    Total Energy =                       -527.5352550033979924
  Basis Set: 6-31G*
  Basis Set:
  Basis Set: 6-31G*
  Basis Set:
  @DF-RHF Final Energy:  -527.53525877203992
    Total Energy =                       -527.5352587720398105
  Basis Set: 6-31G*
  Basis Set:
  Basis Set: 6-31G*
  Basis Set:
  @DF-RHF Final Energy:  -527.53526209219933
    Total Energy =                       -527.5352620921991047
  Basis Set: 6-31G*
  Basis Set:
  Basis Set: 6-31G*
  Basis Set:
  @DF-RHF Final Energy:  -527.53526413856662
    Total Energy =                       -527.5352641385667312
  Basis Set: 6-31G*
  Basis Set:
  Charge       = 0
  Multiplicity = 1
  Basis Set: 6-31G*
  Basis Set:

    Orbital Energies (a.u.)
    -----------------------

    Doubly Occupied:

       1A    -26.345270     2A    -26.342159     3A    -26.340468
       4A    -20.607619     5A    -11.503103     6A    -11.318865
       7A    -11.298927     8A    -11.216173     9A     -1.741540
      10A     -1.640333    11A     -1.637171    12A     -1.437589
      13A     -1.083239    14A     -1.016337    15A     -0.925071
      16A     -0.835828    17A     -0.830791    18A     -0.821060
      19A     -0.792442    20A     -0.720056    21A     -0.710886
      22A     -0.696032    23A     -0.675526    24A     -0.661111
      25A     -0.654220    26A     -0.642707    27A     -0.634484
      28A     -0.584662    29A     -0.563268    30A     -0.523027
      31A     -0.512787    32A     -0.352027

  @DF-RHF Final Energy:  -527.53526511095083

   => Energetics <=

    Nuclear Repulsion Energy =            414.1896504184330183
    One-Electron Energy =               -1552.1202782100317563
    Two-Electron Energy =                 610.3953626806478496
    DFT Exchange-Correlation Energy =       0.0000000000000000
    Empirical Dispersion Energy =           0.0000000000000000
    PCM Polarization Energy =               0.0000000000000000
    EFP Energy =                            0.0000000000000000
    Total Energy =                       -527.5352651109508315
    Molecular point group: c1
  Basis Set: 6-31G*
  Basis Set:

  -Total Gradient:
     Atom            X                  Y                   Z
    ------   -----------------  -----------------  -----------------
       1        0.000000396250     0.000004509070     0.000000783509
       2       -0.000000049676    -0.000015797316     0.000006391407
       3        0.000045536772     0.000039076841    -0.000051639243
       4       -0.000001485913    -0.000000558223    -0.000003548670
       5        0.000020342994    -0.000003143028     0.000021445816
       6       -0.000001034220     0.000002300580     0.000015934994
       7        0.002153328829    -0.001795826331    -0.000241369122
       8        0.001996956908    -0.001856488914     0.000268298701
       9       -0.002254710993     0.001915691720     0.000135586250
      10       -0.000017217071    -0.000022059272     0.000001682729
      11       -0.001771485449     0.001693531495    -0.000233907732
      12       -0.000111396541     0.000031222623     0.000075612880
      13       -0.000059181889     0.000007540758     0.000004728484

  **** Optimization is complete! (in 8 steps) ****
    Final optimized geometry and variables:
    Molecular point group: c1

    Geometry (in Angstrom), charge = 0, multiplicity = 1:

    H           -3.833313106731     1.018945551600    -0.362278814590
    C           -3.146962574698     0.381699294669     0.160781240673
    C           -2.051710747259    -0.029808049263    -0.435055059705
    H           -3.380222786347     0.093297477035     1.168482228605
    O           -1.174340873012    -0.872568987695     0.170944093752
    H           -1.795589080617     0.253502986403    -1.440958172628
    C            0.077298916449    -1.036678614807    -0.404586463351
    C            1.034183241898     0.060556391884     0.012639515936
    H            0.019113389663    -1.034317412260    -1.487374323927
    H            0.473460096309    -1.980937818982    -0.063256994070
    F            1.010056482370     0.274093376173     1.310593010231
    F            2.269035817553    -0.265924153752    -0.334744088570
    F            0.742980967851     1.208241156614    -0.583031708665

  Mulliken Charges: (a.u.)
   Center  Symbol    Alpha    Beta     Spin     Total
       1     H     0.40700  0.40700  0.00000  0.18600
       2     C     3.23399  3.23399  0.00000 -0.46799
       3     C     2.89801  2.89801  0.00000  0.20398
       4     H     0.40158  0.40158  0.00000  0.19684
       5     O     4.30082  4.30082  0.00000 -0.60164
       6     H     0.40667  0.40667  0.00000  0.18666
       7     C     3.06435  3.06435  0.00000 -0.12870
       8     C     2.45594  2.45594  0.00000  1.08812
       9     H     0.40531  0.40531  0.00000  0.18939
      10     H     0.38953  0.38953  0.00000  0.22095
      11     F     4.67334  4.67334  0.00000 -0.34668
      12     F     4.68201  4.68201  0.00000 -0.36402
      13     F     4.68145  4.68145  0.00000 -0.36291

   Total alpha = 32.00000, Total beta = 32.00000, Total charge =  0.00000
