                              Psi4 1.0.54 Driver

  ==> Input File <==

--------------------------------------------------------------------------
set {
	reference rhf
	basis cc-pvtz
}

set_num_threads( 4 )
memory 2 gb

molecule MOL {
0 1

O	 2.071602	 -0.122638	 0.661620
C	 1.121787	 0.124983	 0.000110
C	 -0.170912	 -0.649867	 -0.000147
O	 1.073250	 1.141063	 -0.845823
C	 -1.413045	 0.229353	 0.001137
H	 -0.152877	 -1.303435	 -0.866175
H	 -0.152278	 -1.305116	 0.864586
C	 -2.702562	 -0.586401	 0.000228
H	 -1.390744	 0.882001	 -0.864365
H	 -1.390549	 0.879837	 0.868264
C	 -3.953810	 0.284959	 -0.000782
H	 -2.717793	 -1.238567	 -0.869075
H	 -2.719108	 -1.238472	 0.869576
H	 -3.983727	 0.924403	 -0.876454
H	 -4.852989	 -0.320147	 -0.001515
H	 -3.985140	 0.924399	 0.874841
C	 2.223206	 1.956284	 -0.947482
H	 2.452880	 2.412078	 0.004216
H	 1.986854	 2.714790	 -1.675956
H	 3.073641	 1.376900	 -1.275043

	symmetry c1
}
set optking {
	frozen_dihedral = ("
		1 2 3 6
	")
}

ee,wfn = optimize('scf', return_wfn=True)
oeprop( wfn, 'DIPOLE', 'QUADRUPOLE', 'MULLIKEN_CHARGES')
f=open( 'psi4out.xyz', 'w' )
f.write( "20  " )
f.write( str(ee) + "\n" )
f.write( MOL.save_string_xyz() )
f.close()
--------------------------------------------------------------------------

    Molecular point group: c1
  Charge       = 0
  Multiplicity = 1
  Basis Set: CC-PVTZ
  Basis Set:
  @DF-RHF Final Energy:  -384.08110596972790
    Total Energy =                       -384.0811059697283554
    Molecular point group: c1
  Basis Set: CC-PVTZ
  Basis Set:
  Basis Set: CC-PVTZ
  Basis Set:
  @DF-RHF Final Energy:  -383.51831562010887
    Total Energy =                       -383.5183156201092061
  Basis Set: CC-PVTZ
  Basis Set:
  Basis Set: CC-PVTZ
  Basis Set:
  @DF-RHF Final Energy:  -383.72990181280232
    Total Energy =                       -383.7299018128021544
  Basis Set: CC-PVTZ
  Basis Set:
  Basis Set: CC-PVTZ
  Basis Set:
  @DF-RHF Final Energy:  -383.96268159316509
    Total Energy =                       -383.9626815931650867
  Basis Set: CC-PVTZ
  Basis Set:
  @DF-RHF Final Energy:  -384.07212613918648
    Total Energy =                       -384.0721261391863663
  @DF-RHF Final Energy:  -384.07987072916012
    Total Energy =                       -384.0798707291598930
  @DF-RHF Final Energy:  -384.08140050293582
    Total Energy =                       -384.0814005029358214
  @DF-RHF Final Energy:  -384.08008956668039
    Total Energy =                       -384.0800895666801580
  Basis Set: CC-PVTZ
  Basis Set:
  @DF-RHF Final Energy:  -384.08154298088971
    Total Energy =                       -384.0815429808899353
  Basis Set: CC-PVTZ
  Basis Set:
  Basis Set: CC-PVTZ
  Basis Set:
  @DF-RHF Final Energy:  -384.08158953274011
    Total Energy =                       -384.0815895327398266
  Basis Set: CC-PVTZ
  Basis Set:
  Basis Set: CC-PVTZ
  Basis Set:
  @DF-RHF Final Energy:  -384.08159339319917
    Total Energy =                       -384.0815933931990003
  Basis Set: CC-PVTZ
  Basis Set:
  Charge       = 0
  Multiplicity = 1
  Basis Set: CC-PVTZ
  Basis Set:

    Orbital Energies (a.u.)
    -----------------------

    Doubly Occupied:

       1A    -20.597669     2A    -20.532039     3A    -11.364095
       4A    -11.278970     5A    -11.233392     6A    -11.224496
       7A    -11.221475     8A    -11.212112     9A     -1.472523
      10A     -1.364565    11A     -1.093459    12A     -1.025758
      13A     -0.967444    14A     -0.892822    15A     -0.807377
      16A     -0.776423    17A     -0.695597    18A     -0.684662
      19A     -0.676397    20A     -0.649176    21A     -0.596184
      22A     -0.593262    23A     -0.580188    24A     -0.548577
      25A     -0.532997    26A     -0.524385    27A     -0.507749
      28A     -0.490538    29A     -0.481264    30A     -0.473846
      31A     -0.459091    32A     -0.431564

  @DF-RHF Final Energy:  -384.08159356604824

   => Energetics <=

    Nuclear Repulsion Energy =            384.1612338856671158
    One-Electron Energy =               -1284.5054605885316050
    Two-Electron Energy =                 516.2626331368159072
    DFT Exchange-Correlation Energy =       0.0000000000000000
    Empirical Dispersion Energy =           0.0000000000000000
    PCM Polarization Energy =               0.0000000000000000
    EFP Energy =                            0.0000000000000000
    Total Energy =                       -384.0815935660485820
    Molecular point group: c1
  Basis Set: CC-PVTZ
  Basis Set:

  -Total Gradient:
     Atom            X                  Y                   Z
    ------   -----------------  -----------------  -----------------
       1        0.000380982761    -0.000708783195    -0.000195885138
       2       -0.000511231834     0.000957251254     0.000484192936
       3       -0.000149014937    -0.000089171999    -0.000931171688
       4       -0.000006984900     0.000014015628    -0.000077346144
       5       -0.000001585136    -0.000000580607     0.000013657341
       6        0.000297627767    -0.000160666090     0.000696167202
       7        0.000001683073     0.000001592492     0.000008494170
       8        0.000008002819     0.000004217521    -0.000016222428
       9       -0.000000275946    -0.000001761408    -0.000010139030
      10       -0.000001495066     0.000011744700     0.000001888854
      11        0.000002285394    -0.000012964873     0.000011979133
      12        0.000001262611    -0.000014574111    -0.000003587937
      13        0.000000736987     0.000004445661     0.000001107178
      14       -0.000000171216    -0.000004563064    -0.000003460045
      15        0.000009663760     0.000009313660    -0.000004452470
      16       -0.000003668320     0.000010989510     0.000003068130
      17       -0.000014788373    -0.000031236127     0.000017008951
      18        0.000002728079     0.000002466600     0.000002744708
      19       -0.000003995899    -0.000003964875     0.000004024732
      20       -0.000011761613     0.000012229323    -0.000002068450

  **** Optimization is complete! (in 12 steps) ****
    Final optimized geometry and variables:
    Molecular point group: c1

    Geometry (in Angstrom), charge = 0, multiplicity = 1:

    O            2.091401005656     0.482555123768     1.137647775294
    C            1.269061978822     0.172058807011     0.344041248154
    C            0.061988225445    -0.674726446774     0.660433414440
    O            1.337705337457     0.505506442190    -0.933534972179
    C           -1.246427464773    -0.205783309702     0.026371433818
    H            0.295737579939    -1.682961983215     0.329663936831
    H           -0.016782518438    -0.705824657495     1.738010899190
    C           -2.429244955177    -1.079799300128     0.433263016776
    H           -1.147560555813    -0.203795966218    -1.052007807881
    H           -1.440672829215     0.821822007619     0.321225382866
    C           -3.744781506385    -0.622685952556    -0.187419659268
    H           -2.231652304338    -2.108159069184     0.142871082084
    H           -2.522339375203    -1.081131800037     1.515553482639
    H           -3.694266529845    -0.643521531566    -1.270815416307
    H           -4.564626326774    -1.262149938390     0.118017282751
    H           -3.986996433368     0.391458207669     0.112033867792
    C            2.453280070302     1.269668028004    -1.344965523452
    H            2.484878267566     2.211499635302    -0.817843223454
    H            2.324944053195     1.438242337386    -2.401872561693
    H            3.371632260254     0.732153319454    -1.161303768139

  Mulliken Charges: (a.u.)
   Center  Symbol    Alpha    Beta     Spin     Total
       1     O     4.20001  4.20001  0.00000 -0.40003
       2     C     2.81341  2.81341  0.00000  0.37318
       3     C     3.08016  3.08016  0.00000 -0.16033
       4     O     4.14676  4.14676  0.00000 -0.29351
       5     C     3.09281  3.09281  0.00000 -0.18562
       6     H     0.44682  0.44682  0.00000  0.10637
       7     H     0.43630  0.43630  0.00000  0.12740
       8     C     3.08889  3.08889  0.00000 -0.17777
       9     H     0.44326  0.44326  0.00000  0.11348
      10     H     0.45075  0.45075  0.00000  0.09851
      11     C     3.14909  3.14909  0.00000 -0.29819
      12     H     0.45385  0.45385  0.00000  0.09230
      13     H     0.45245  0.45245  0.00000  0.09510
      14     H     0.45439  0.45439  0.00000  0.09121
      15     H     0.44740  0.44740  0.00000  0.10519
      16     H     0.45417  0.45417  0.00000  0.09166
      17     C     3.03626  3.03626  0.00000 -0.07253
      18     H     0.45389  0.45389  0.00000  0.09223
      19     H     0.44609  0.44609  0.00000  0.10782
      20     H     0.45324  0.45324  0.00000  0.09352

   Total alpha = 32.00000, Total beta = 32.00000, Total charge = -0.00000

*** Psi4 exiting successfully. Buy a developer a beer!
