  ==> Input File <==

--------------------------------------------------------------------------
set {
	reference rhf
	basis 6-31G*
}

set_num_threads( 4 )
memory 2 gb

molecule MOL {
0 1

H	 -0.216825	 0.021369	 -3.357402
C	 0.374198	 0.036393	 -2.447010
C	 -0.521757	 -0.028637	 -1.217342
H	 0.969602	 0.942322	 -2.434777
H	 1.053364	 -0.811668	 -2.481329
N	 0.263400	 0.031178	 0.000000
H	 -1.199035	 0.820290	 -1.219355
H	 -1.147901	 -0.924895	 -1.265384
C	 -0.521757	 -0.028637	 1.217342
H	 0.935769	 -0.712709	 0.000000
C	 -0.318489	 1.224355	 2.058615
H	 -1.567643	 -0.108315	 0.935984
H	 -0.293578	 -0.915281	 1.816875
H	 -0.582891	 2.109247	 1.490793
H	 -0.929478	 1.191514	 2.955253
H	 0.718346	 1.322320	 2.370106

	symmetry c1
}
set optking {
	frozen_dihedral = ("
		12 9 6 3
	")
}

ee = optimize('scf')
oeprop('DIPOLE', 'QUADRUPOLE', 'MULLIKEN_CHARGES')
f=open( 'psi4out.xyz', 'w' )
f.write( "16  " )
f.write( str(ee) + "\n" )
f.write( MOL.save_string_xyz() )
f.close()
--------------------------------------------------------------------------

    Molecular point group: c1
  Charge       = 0
  Multiplicity = 1
  Basis Set: 6-31G*
  Basis Set:
  @DF-RHF Final Energy:  -212.30851508562046
    Total Energy =                       -212.3085150856205701
    Molecular point group: c1
  Basis Set: 6-31G*
  Basis Set:
  Basis Set: 6-31G*
  Basis Set:
  @DF-RHF Final Energy:  -212.30904451367491
    Total Energy =                       -212.3090445136747917
  Basis Set: 6-31G*
  Basis Set:
  Basis Set: 6-31G*
  Basis Set:
  @DF-RHF Final Energy:  -212.30921858221885
    Total Energy =                       -212.3092185822186480
  Basis Set: 6-31G*
  Basis Set:
  Basis Set: 6-31G*
  Basis Set:
  @DF-RHF Final Energy:  -212.30922095750910
    Total Energy =                       -212.3092209575090124
  Basis Set: 6-31G*
  Basis Set:
  Charge       = 0
  Multiplicity = 1
  Basis Set: 6-31G*
  Basis Set:

    Orbital Energies (a.u.)
    -----------------------

    Doubly Occupied:

       1A    -15.531572     2A    -11.241519     3A    -11.240835
       4A    -11.208050     5A    -11.200399     6A     -1.200548
       7A     -1.024961     8A     -0.962661     9A     -0.836607
      10A     -0.812321    11A     -0.663936    12A     -0.624637
      13A     -0.608639    14A     -0.566700    15A     -0.554761
      16A     -0.524920    17A     -0.504657    18A     -0.491380
      19A     -0.482266    20A     -0.469204    21A     -0.354288

  @DF-RHF Final Energy:  -212.30922133957233

   => Energetics <=

    Nuclear Repulsion Energy =            189.3804884452503643
    One-Electron Energy =                -661.1696991648132098
    Two-Electron Energy =                 259.4799893799904567
    DFT Exchange-Correlation Energy =       0.0000000000000000
    Empirical Dispersion Energy =           0.0000000000000000
    PCM Polarization Energy =               0.0000000000000000
    EFP Energy =                            0.0000000000000000
    Total Energy =                       -212.3092213395723888
    Molecular point group: c1
  Basis Set: 6-31G*
  Basis Set:

  -Total Gradient:
     Atom            X                  Y                   Z
    ------   -----------------  -----------------  -----------------
       1        0.000001976899    -0.000002136498    -0.000013216214
       2       -0.000001140065    -0.000003044893     0.000005163009
       3       -0.000020954069    -0.000100553237    -0.000013382008
       4       -0.000007312309    -0.000004149242     0.000006417418
       5       -0.000002809718     0.000003123801     0.000002214167
       6        0.000039930433     0.000223806014    -0.000021137846
       7        0.000005032755    -0.000003728143     0.000007982343
       8        0.000011961134     0.000007285523     0.000005407689
       9       -0.000006673691    -0.000214641879     0.000041696747
      10        0.000005576193    -0.000023232014    -0.000010745458
      11       -0.000002784903    -0.000020619938    -0.000004617977
      12       -0.000013165966     0.000142468074    -0.000005005165
      13        0.000003581788     0.000008350688     0.000018347023
      14       -0.000002436113    -0.000005799006    -0.000004865916
      15       -0.000002733947     0.000004856661    -0.000006412027
      16       -0.000008048419    -0.000011985910    -0.000007845784

  **** Optimization is complete! (in 5 steps) ****
    Final optimized geometry and variables:
    Molecular point group: c1

    Geometry (in Angstrom), charge = 0, multiplicity = 1:

    H           -0.037951578266    -0.230888646710    -3.291271043295
    C            0.535494929746    -0.205472630081    -2.369850837068
    C           -0.381597942038    -0.291134116773    -1.157487353294
    H            1.112362723528     0.712070174782    -2.344539915618
    H            1.232209958484    -1.039703641249    -2.392639807004
    N            0.383446530858    -0.219935393826     0.072504527875
    H           -1.072865908149     0.545984032955    -1.170805723438
    H           -0.990197486940    -1.197967332585    -1.222215370081
    C           -0.396678487586    -0.255279870763     1.306008973266
    H            1.080428862275    -0.936617459728     0.079002910519
    C           -0.157190166836     0.985308176914     2.159714820698
    H           -1.455249080500    -0.331839690324     1.070876331753
    H           -0.152728954993    -1.144109962065     1.883650365845
    H           -0.422967275388     1.881784751474     1.609247338133
    H           -0.748174316634     0.954028018147     3.071620119698
    H            0.889786761556     1.063808635903     2.433303549526

  Mulliken Charges: (a.u.)
   Center  Symbol    Alpha    Beta     Spin     Total
       1     H     0.42032  0.42032  0.00000  0.15935
       2     C     3.24276  3.24276  0.00000 -0.48553
       3     C     3.05309  3.05309  0.00000 -0.10617
       4     H     0.41198  0.41198  0.00000  0.17604
       5     H     0.42501  0.42501  0.00000  0.14997
       6     N     3.85378  3.85378  0.00000 -0.70755
       7     H     0.42034  0.42034  0.00000  0.15932
       8     H     0.43513  0.43513  0.00000  0.12974
       9     C     3.06158  3.06158  0.00000 -0.12317
      10     H     0.33244  0.33244  0.00000  0.33512
      11     C     3.22586  3.22586  0.00000 -0.45172
      12     H     0.42359  0.42359  0.00000  0.15282
      13     H     0.42606  0.42606  0.00000  0.14788
      14     H     0.41969  0.41969  0.00000  0.16061
      15     H     0.42809  0.42809  0.00000  0.14383
      16     H     0.42027  0.42027  0.00000  0.15946

   Total alpha = 21.00000, Total beta = 21.00000, Total charge = -0.00000
