                              Psi4 1.0.54 Driver

  ==> Input File <==

--------------------------------------------------------------------------
set {
	reference rhf
	basis cc-pvtz
}

set_num_threads( 4 )
memory 2 gb

molecule MOL {
0 1

H	 -3.162190	 0.493205	 -0.000107
C	 -2.363908	 -0.234727	 0.000005
O	 -1.158738	 0.454634	 -0.000087
H	 -2.464314	 -0.863616	 -0.882153
H	 -2.464327	 -0.863359	 0.882345
C	 -0.028611	 -0.359694	 0.000037
C	 1.212847	 0.509314	 -0.000053
H	 -0.034155	 -1.007047	 -0.877198
H	 -0.034195	 -1.006836	 0.877430
C	 2.007488	 0.389395	 -1.295629
H	 0.913623	 1.539145	 0.160689
H	 1.831489	 0.227913	 0.844960
H	 1.413994	 0.689798	 -2.152722
H	 2.887725	 1.019850	 -1.268631
H	 2.338245	 -0.630120	 -1.463726

	symmetry c1
}
set optking {
	frozen_dihedral = ("
		11 7 6 8
	")
}

ee,wfn = optimize('scf', return_wfn=True)
oeprop( wfn, 'DIPOLE', 'QUADRUPOLE', 'MULLIKEN_CHARGES')
f=open( 'psi4out.xyz', 'w' )
f.write( "15  " )
f.write( str(ee) + "\n" )
f.write( MOL.save_string_xyz() )
f.close()
--------------------------------------------------------------------------

    Molecular point group: c1
  Charge       = 0
  Multiplicity = 1
  Basis Set: CC-PVTZ
  Basis Set:
  @DF-RHF Final Energy:  -232.22220184226751
    Total Energy =                       -232.2222018422675092
    Molecular point group: c1
  Basis Set: CC-PVTZ
  Basis Set:
  Basis Set: CC-PVTZ
  Basis Set:
  @DF-RHF Final Energy:  -232.22261153518684
    Total Energy =                       -232.2226115351866156
  Basis Set: CC-PVTZ
  Basis Set:
  Basis Set: CC-PVTZ
  Basis Set:
  @DF-RHF Final Energy:  -232.22273485730346
    Total Energy =                       -232.2227348573033510
  Basis Set: CC-PVTZ
  Basis Set:
  Basis Set: CC-PVTZ
  Basis Set:
  @DF-RHF Final Energy:  -232.22273765320568
    Total Energy =                       -232.2227376532055700
  Basis Set: CC-PVTZ
  Basis Set:
  Charge       = 0
  Multiplicity = 1
  Basis Set: CC-PVTZ
  Basis Set:

    Orbital Energies (a.u.)
    -----------------------

    Doubly Occupied:

       1A    -20.547418     2A    -11.264789     3A    -11.261343
       4A    -11.212641     5A    -11.207787     6A     -1.380750
       7A     -1.054206     8A     -0.954122     9A     -0.879601
      10A     -0.808109    11A     -0.671418    12A     -0.660295
      13A     -0.632994    14A     -0.590942    15A     -0.576231
      16A     -0.546094    17A     -0.491266    18A     -0.489436
      19A     -0.482531    20A     -0.462253    21A     -0.414216

  @DF-RHF Final Energy:  -232.22273793604768

   => Energetics <=

    Nuclear Repulsion Energy =            190.6890778309683583
    One-Electron Energy =                -692.6467425076107247
    Two-Electron Energy =                 269.7349267405946875
    DFT Exchange-Correlation Energy =       0.0000000000000000
    Empirical Dispersion Energy =           0.0000000000000000
    PCM Polarization Energy =               0.0000000000000000
    EFP Energy =                            0.0000000000000000
    Total Energy =                       -232.2227379360476789
    Molecular point group: c1
  Basis Set: CC-PVTZ
  Basis Set:

  -Total Gradient:
     Atom            X                  Y                   Z
    ------   -----------------  -----------------  -----------------
       1        0.000015391280     0.000005630905     0.000001060611
       2       -0.000014685049    -0.000024186083    -0.000001277345
       3        0.000030579099    -0.000016886406    -0.000001283444
       4       -0.000002813877     0.000001890018    -0.000002229298
       5       -0.000002735644     0.000002600642     0.000002121522
       6        0.001227271139    -0.001816570689     0.000953873492
       7        0.000021510529     0.000082503364     0.002254900680
       8       -0.001050126071     0.001513713548    -0.001107764183
       9        0.000006242873     0.000009049964    -0.000003236829
      10       -0.000015049948     0.000006727548     0.000007758473
      11       -0.000205016207     0.000257040777    -0.002098947075
      12       -0.000015685912    -0.000019597819    -0.000010301655
      13        0.000004339778    -0.000010682878     0.000001198683
      14        0.000001892211     0.000003403174     0.000000994187
      15       -0.000001114203     0.000005363935     0.000003132184

  **** Optimization is complete! (in 5 steps) ****
    Final optimized geometry and variables:
    Molecular point group: c1

    Geometry (in Angstrom), charge = 0, multiplicity = 1:

    H           -3.063581150669     0.365484832303     0.230563316937
    C           -2.269824736656    -0.367405730213     0.247617627754
    O           -1.060673302019     0.313814599429     0.261119430676
    H           -2.361640994177    -1.002348378370    -0.631349793499
    H           -2.387922130868    -0.989584084724     1.132594490172
    C            0.065068017139    -0.514064927734     0.286418365669
    C            1.328095515383     0.351651961856     0.267506465084
    H            0.040027452010    -1.169777070514    -0.582608309600
    H            0.034392541191    -1.143134736222     1.173563620616
    C            2.107863186435     0.260080933743    -1.041315999707
    H            1.017705263827     1.376592092913     0.423749200944
    H            1.975214797950     0.081325015429     1.093997705249
    H            1.486555945610     0.549870657956    -1.881777311771
    H            2.972885286046     0.913010806830    -1.026275555063
    H            2.460306925480    -0.750183232376    -1.221669740557

  Mulliken Charges: (a.u.)
   Center  Symbol    Alpha    Beta     Spin     Total
       1     H     0.44718  0.44718  0.00000  0.10565
       2     C     3.02960  3.02960  0.00000 -0.05920
       3     O     4.17300  4.17300  0.00000 -0.34600
       4     H     0.47308  0.47308  0.00000  0.05385
       5     H     0.47237  0.47237  0.00000  0.05527
       6     C     2.96452  2.96452  0.00000  0.07096
       7     C     3.08581  3.08581  0.00000 -0.17162
       8     H     0.47536  0.47536  0.00000  0.04927
       9     H     0.47121  0.47121  0.00000  0.05758
      10     C     3.15107  3.15107  0.00000 -0.30213
      11     H     0.44581  0.44581  0.00000  0.10838
      12     H     0.45244  0.45244  0.00000  0.09511
      13     H     0.45163  0.45163  0.00000  0.09675
      14     H     0.44965  0.44965  0.00000  0.10071
      15     H     0.45728  0.45728  0.00000  0.08543

   Total alpha = 21.00000, Total beta = 21.00000, Total charge = -0.00000

*** Psi4 exiting successfully. Buy a developer a beer!
