  ==> Input File <==

--------------------------------------------------------------------------
set {
	reference rhf
	basis 6-31G*
}

set_num_threads( 1 )
memory 2 gb

molecule MOL {
0 1

H	 -2.595951	 1.108464	 -2.067436
C	 -1.878858	 0.447560	 -1.620621
C	 -2.076860	 -0.007332	 -0.404944
H	 -1.009335	 0.174091	 -2.188121
O	 -1.180634	 -0.819263	 0.215062
H	 -2.944435	 0.248729	 0.177242
C	 0.051604	 -1.018856	 -0.387932
C	 1.043764	 0.054862	 -0.001873
H	 -0.017620	 -1.041351	 -1.469781
H	 0.437898	 -1.966374	 -0.042284
F	 2.212596	 -0.199467	 -0.571921
F	 0.652529	 1.252447	 -0.405055
F	 1.230877	 0.110694	 1.300533

	symmetry c1
}
set optking {
	frozen_dihedral = ("
		11 8 7 9,
		3 5 7 9,
		6 3 2 1
	")
}

ee = energy('scf')
oeprop('DIPOLE', 'QUADRUPOLE', 'MULLIKEN_CHARGES')
f=open( 'psi4out.xyz', 'w' )
f.write( "13  " )
f.write( str(ee) + "\n" )
f.write( MOL.save_string_xyz() )
f.close()
--------------------------------------------------------------------------

    Molecular point group: c1

    Geometry (in Angstrom), charge = 0, multiplicity = 1:

       Center              X                  Y                   Z               Mass
    ------------   -----------------  -----------------  -----------------  -----------------
           H         -2.742200791754     1.098698648350    -1.868818612911     1.007825032070
           C         -2.025107791754     0.437794648350    -1.422003612911    12.000000000000
           C         -2.223109791754    -0.017097351650    -0.206326612911    12.000000000000
           H         -1.155584791754     0.164325648350    -1.989503612911     1.007825032070
           O         -1.326883791754    -0.829028351650     0.413679387089    15.994914619560
           H         -3.090684791754     0.238963648350     0.375859387089     1.007825032070
           C         -0.094645791754    -1.028621351650    -0.189314612911    12.000000000000
           C          0.897514208246     0.045096648350     0.196744387089    12.000000000000
           H         -0.163869791754    -1.051116351650    -1.271163612911     1.007825032070
           H          0.291648208246    -1.976139351650     0.156333387089     1.007825032070
           F          2.066346208246    -0.209232351650    -0.373303612911    18.998403224000
           F          0.506279208246     1.242681648350    -0.206437612911    18.998403224000
           F          1.084627208246     0.100928648350     1.499150387089    18.998403224000

  Charge       = 0
  Multiplicity = 1
  Basis Set: 6-31G*
  Basis Set:

    Orbital Energies (a.u.)
    -----------------------

    Doubly Occupied:

       1A    -26.342276     2A    -26.338555     3A    -26.337112
       4A    -20.608741     5A    -11.500887     6A    -11.313845
       7A    -11.301707     8A    -11.217262     9A     -1.738502
      10A     -1.637078    11A     -1.634333    12A     -1.438960
      13A     -1.076203    14A     -1.026050    15A     -0.931766
      16A     -0.833837    17A     -0.828267    18A     -0.824800
      19A     -0.762613    20A     -0.736385    21A     -0.707273
      22A     -0.700208    23A     -0.676072    24A     -0.657263
      25A     -0.655015    26A     -0.639637    27A     -0.630548
      28A     -0.594384    29A     -0.556322    30A     -0.522909
      31A     -0.511483    32A     -0.355626

  @DF-RHF Final Energy:  -527.52634169247210

   => Energetics <=

    Nuclear Repulsion Energy =            423.4215457493505710
    One-Electron Energy =               -1570.6239597670078183
    Two-Electron Energy =                 619.6760723251854870
    DFT Exchange-Correlation Energy =       0.0000000000000000
    Empirical Dispersion Energy =           0.0000000000000000
    PCM Polarization Energy =               0.0000000000000000
    EFP Energy =                            0.0000000000000000
    Total Energy =                       -527.5263416924717603

  Mulliken Charges: (a.u.)
   Center  Symbol    Alpha    Beta     Spin     Total
       1     H     0.40419  0.40419  0.00000  0.19163
       2     C     3.24011  3.24011  0.00000 -0.48022
       3     C     2.89850  2.89850  0.00000  0.20301
       4     H     0.40995  0.40995  0.00000  0.18009
       5     O     4.30719  4.30719  0.00000 -0.61439
       6     H     0.39136  0.39136  0.00000  0.21728
       7     C     3.06658  3.06658  0.00000 -0.13317
       8     C     2.45466  2.45466  0.00000  1.09067
       9     H     0.40290  0.40290  0.00000  0.19420
      10     H     0.38941  0.38941  0.00000  0.22117
      11     F     4.68297  4.68297  0.00000 -0.36594
      12     F     4.67686  4.67686  0.00000 -0.35371
      13     F     4.67532  4.67532  0.00000 -0.35063

   Total alpha = 32.00000, Total beta = 32.00000, Total charge =  0.00000
