  ==> Input File <==

--------------------------------------------------------------------------
set {
	reference rhf
	basis cc-pvtz
}

set_num_threads( 4 )
memory 2 gb

molecule MOL {
0 1

O	 -0.694481	 1.313155	 -0.204815
C	 -0.862519	 0.151932	 -0.046791
C	 -2.171428	 -0.477048	 0.339095
O	 0.085519	 -0.757083	 -0.192238
H	 -2.467997	 -1.191667	 -0.417688
H	 -2.923379	 0.287970	 0.444097
H	 -2.053854	 -1.015120	 1.270901
C	 1.392036	 -0.330828	 -0.560749
C	 1.427568	 1.147881	 -0.886408
H	 1.736282	 -0.921222	 -1.395462
H	 2.004446	 -0.549639	 0.301125
H	 2.447641	 1.449022	 -1.096690
H	 0.822686	 1.366878	 -1.755626
H	 1.065567	 1.732805	 -0.049501

	symmetry c1
}
set optking {
	frozen_dihedral = ("
		10 8 4 2
	")
}

ee = optimize('scf')
oeprop('DIPOLE', 'QUADRUPOLE', 'MULLIKEN_CHARGES')
f=open( 'psi4out.xyz', 'w' )
f.write( "14  " )
f.write( str(ee) + "\n" )
f.write( MOL.save_string_xyz() )
f.close()
--------------------------------------------------------------------------

    Molecular point group: c1
  Charge       = 0
  Multiplicity = 1
  Basis Set: CC-PVTZ
  Basis Set:
  @DF-RHF Final Energy:  -305.94684998467721
    Total Energy =                       -305.9468499846772147
    Molecular point group: c1
  Basis Set: CC-PVTZ
  Basis Set:
  Basis Set: CC-PVTZ
  Basis Set:
  @DF-RHF Final Energy:  -305.97207229095949
    Total Energy =                       -305.9720722909594315
  Basis Set: CC-PVTZ
  Basis Set:
  Basis Set: CC-PVTZ
  Basis Set:
  @DF-RHF Final Energy:  -305.97725349869620
    Total Energy =                       -305.9772534986964274
  Basis Set: CC-PVTZ
  Basis Set:
  Basis Set: CC-PVTZ
  Basis Set:
  @DF-RHF Final Energy:  -305.97589102487876
    Total Energy =                       -305.9758910248788197
  Basis Set: CC-PVTZ
  Basis Set:
  @DF-RHF Final Energy:  -305.97961897128880
    Total Energy =                       -305.9796189712886871
  Basis Set: CC-PVTZ
  Basis Set:
  @DF-RHF Final Energy:  -305.97976425422394
    Total Energy =                       -305.9797642542235963
  Basis Set: CC-PVTZ
  Basis Set:
  Basis Set: CC-PVTZ
  Basis Set:
  @DF-RHF Final Energy:  -305.97978490177184
    Total Energy =                       -305.9797849017718931
  Basis Set: CC-PVTZ
  Basis Set:
  Basis Set: CC-PVTZ
  Basis Set:
  @DF-RHF Final Energy:  -305.97979103075704
    Total Energy =                       -305.9797910307568145
  Basis Set: CC-PVTZ
  Basis Set:
  Charge       = 0
  Multiplicity = 1
  Basis Set: CC-PVTZ
  Basis Set:

    Orbital Energies (a.u.)
    -----------------------

    Doubly Occupied:

       1A    -20.591171     2A    -20.528409     3A    -11.368297
       4A    -11.290194     5A    -11.228522     6A    -11.213881
       7A     -1.463280     8A     -1.364913     9A     -1.056251
      10A     -0.996399    11A     -0.894435    12A     -0.748476
      13A     -0.689319    14A     -0.684252    15A     -0.674210
      16A     -0.611492    17A     -0.588536    18A     -0.569139
      19A     -0.548090    20A     -0.535476    21A     -0.516915
      22A     -0.496163    23A     -0.445462    24A     -0.433260

  @DF-RHF Final Energy:  -305.97979178719663

   => Energetics <=

    Nuclear Repulsion Energy =            249.0801223077613997
    One-Electron Energy =                -911.0467459096876155
    Two-Electron Energy =                 355.9868318147294985
    DFT Exchange-Correlation Energy =       0.0000000000000000
    Empirical Dispersion Energy =           0.0000000000000000
    PCM Polarization Energy =               0.0000000000000000
    EFP Energy =                            0.0000000000000000
    Total Energy =                       -305.9797917871967456
    Molecular point group: c1
  Basis Set: CC-PVTZ
  Basis Set:

  -Total Gradient:
     Atom            X                  Y                   Z
    ------   -----------------  -----------------  -----------------
       1       -0.000004407742     0.000100476972     0.000036372805
       2       -0.000463917214    -0.000278011222    -0.001880691380
       3       -0.000028390140    -0.000004724731    -0.000088146635
       4        0.000632284164     0.000563447154     0.002674525797
       5       -0.000001857968    -0.000023795458     0.000026239488
       6        0.000010502361    -0.000006325938     0.000013793170
       7       -0.000004547517     0.000007125429     0.000034194799
       8        0.000567339462    -0.001658942606     0.000473946112
       9       -0.000026791504     0.000009768142    -0.000024564611
      10       -0.000721094697     0.001277837051    -0.001284084630
      11       -0.000010434513     0.000018840190    -0.000001244009
      12        0.000033185747    -0.000001542407    -0.000023199134
      13        0.000015481290    -0.000022185849    -0.000000854994
      14        0.000002648269     0.000018033269     0.000043713223

  **** Optimization is complete! (in 9 steps) ****
    Final optimized geometry and variables:
    Molecular point group: c1

    Geometry (in Angstrom), charge = 0, multiplicity = 1:

    O           -0.787948428243     1.155949855745     0.176651218215
    C           -0.810125179705    -0.024321129648     0.247283913449
    C           -2.048972047656    -0.823894806508     0.551183200598
    O            0.224661071095    -0.827512204683     0.088443725637
    H           -2.251431637341    -1.505950272410    -0.264430581565
    H           -2.882873651089    -0.155920081062     0.693374998283
    H           -1.889349180595    -1.416626482167     1.442562524967
    C            1.552529068333    -0.462578568077    -0.293697325004
    C            1.829337731045     0.958703438470    -0.749213198262
    H            1.790709395105    -1.139762329708    -1.101723008892
    H            2.180076242791    -0.710811119860     0.551125639123
    H            2.867777672517     0.982867665551    -1.065069700441
    H            1.212304457855     1.243219385398    -1.588887449497
    H            1.688038091197     1.682727371676     0.036344240867

  Mulliken Charges: (a.u.)
   Center  Symbol    Alpha    Beta     Spin     Total
       1     O     4.19743  4.19743  0.00000 -0.39485
       2     C     2.80638  2.80638  0.00000  0.38724
       3     C     3.13475  3.13475  0.00000 -0.26950
       4     O     4.15613  4.15613  0.00000 -0.31227
       5     H     0.44704  0.44704  0.00000  0.10591
       6     H     0.43909  0.43909  0.00000  0.12183
       7     H     0.44606  0.44606  0.00000  0.10788
       8     C     2.98056  2.98056  0.00000  0.03888
       9     C     3.14888  3.14888  0.00000 -0.29775
      10     H     0.45247  0.45247  0.00000  0.09507
      11     H     0.45388  0.45388  0.00000  0.09225
      12     H     0.45274  0.45274  0.00000  0.09453
      13     H     0.44537  0.44537  0.00000  0.10926
      14     H     0.43924  0.43924  0.00000  0.12152

   Total alpha = 24.00000, Total beta = 24.00000, Total charge =  0.00000
