  ==> Input File <==

--------------------------------------------------------------------------
set {
	reference rhf
	basis cc-pvtz
}

set_num_threads( 4 )
memory 2 gb

molecule MOL {
0 1

H	 3.889604	 0.356866	 -0.089510
N	 3.091268	 -0.241216	 -0.065538
C	 1.860978	 0.530248	 0.016256
H	 3.192566	 -0.835836	 0.730398
C	 0.644130	 -0.381765	 -0.031064
H	 1.835721	 1.204666	 -0.833114
H	 1.808789	 1.151975	 0.911067
C	 -0.678115	 0.376691	 0.025731
H	 0.693998	 -0.977147	 -0.936845
H	 0.693309	 -1.082142	 0.800523
C	 -0.712350	 1.451465	 1.108732
H	 -1.489316	 -0.327303	 0.196898
H	 -0.874852	 0.837285	 -0.939680
C	 -2.038063	 2.203014	 1.166490
H	 -0.515535	 0.993424	 2.074006
H	 0.094976	 2.158417	 0.937811
H	 -2.862252	 1.527632	 1.370968
H	 -2.028703	 2.957435	 1.944800
H	 -2.247054	 2.701436	 0.225621

	symmetry c1
}
set optking {
	frozen_dihedral = ("
		12 8 5 9
	")
}

ee = optimize('scf')
oeprop('DIPOLE', 'QUADRUPOLE', 'MULLIKEN_CHARGES')
f=open( 'psi4out.xyz', 'w' )
f.write( "19  " )
f.write( str(ee) + "\n" )
f.write( MOL.save_string_xyz() )
f.close()
--------------------------------------------------------------------------

    Molecular point group: c1
  Charge       = 0
  Multiplicity = 1
  Basis Set: CC-PVTZ
  Basis Set:
  @DF-RHF Final Energy:  -251.44271432218932
    Total Energy =                       -251.4427143221893743
    Molecular point group: c1
  Basis Set: CC-PVTZ
  Basis Set:
  Basis Set: CC-PVTZ
  Basis Set:
  @DF-RHF Final Energy:  -251.44364844551509
    Total Energy =                       -251.4436484455148388
  Basis Set: CC-PVTZ
  Basis Set:
  Basis Set: CC-PVTZ
  Basis Set:
  @DF-RHF Final Energy:  -251.44479316002690
    Total Energy =                       -251.4447931600269612
  Basis Set: CC-PVTZ
  Basis Set:
  Basis Set: CC-PVTZ
  Basis Set:
  @DF-RHF Final Energy:  -251.44490595501480
    Total Energy =                       -251.4449059550144625
  Basis Set: CC-PVTZ
  Basis Set:
  Basis Set: CC-PVTZ
  Basis Set:
  @DF-RHF Final Energy:  -251.44491722031714
    Total Energy =                       -251.4449172203170519
  Basis Set: CC-PVTZ
  Basis Set:
  Basis Set: CC-PVTZ
  Basis Set:
  @DF-RHF Final Energy:  -251.44491997962396
    Total Energy =                       -251.4449199796241601
  Basis Set: CC-PVTZ
  Basis Set:
  Charge       = 0
  Multiplicity = 1
  Basis Set: CC-PVTZ
  Basis Set:

    Orbital Energies (a.u.)
    -----------------------

    Doubly Occupied:

       1A    -15.526062     2A    -11.237091     3A    -11.212513
       4A    -11.211139     5A    -11.208313     6A    -11.206053
       7A     -1.177783     8A     -1.073572     9A     -0.997396
      10A     -0.899847    11A     -0.832257    12A     -0.773222
      13A     -0.656222    14A     -0.642783    15A     -0.629676
      16A     -0.586854    17A     -0.571131    18A     -0.544899
      19A     -0.529900    20A     -0.506160    21A     -0.484940
      22A     -0.461740    23A     -0.456467    24A     -0.450374
      25A     -0.383096

  @DF-RHF Final Energy:  -251.44492026420775

   => Energetics <=

    Nuclear Repulsion Energy =            249.7577096708941156
    One-Electron Energy =                -833.8862746876461642
    Two-Electron Energy =                 332.6836447525445237
    DFT Exchange-Correlation Energy =       0.0000000000000000
    Empirical Dispersion Energy =           0.0000000000000000
    PCM Polarization Energy =               0.0000000000000000
    EFP Energy =                            0.0000000000000000
    Total Energy =                       -251.4449202642075534
    Molecular point group: c1
  Basis Set: CC-PVTZ
  Basis Set:

  -Total Gradient:
     Atom            X                  Y                   Z
    ------   -----------------  -----------------  -----------------
       1        0.000012024690    -0.000003724386    -0.000002905452
       2        0.000015246261    -0.000000953707     0.000011786174
       3       -0.000011257402    -0.000000865222    -0.000027061227
       4        0.000007043027    -0.000000385287     0.000001695576
       5       -0.002006104294    -0.003319422963     0.003008761980
       6       -0.000000699323     0.000008255600     0.000001743319
       7       -0.000005829408    -0.000008413598     0.000001321992
       8        0.000010819234     0.000044068434    -0.004842405576
       9        0.001681931671     0.002801785620    -0.001787946358
      10       -0.000007077119    -0.000002985213    -0.000003263328
      11        0.000008637508     0.000004328919    -0.000009366663
      12        0.000293419564     0.000482497489     0.003646863606
      13        0.000005767600    -0.000001541632     0.000002611570
      14       -0.000005110198     0.000000828523     0.000000287024
      15        0.000003942282    -0.000004540581    -0.000004003397
      16       -0.000000179237     0.000000956893    -0.000000791008
      17       -0.000000808116     0.000000720034    -0.000000239388
      18       -0.000001692910     0.000000210417     0.000001086420
      19       -0.000000073833    -0.000000819339     0.000001824736

  **** Optimization is complete! (in 7 steps) ****
    Final optimized geometry and variables:
    Molecular point group: c1

    Geometry (in Angstrom), charge = 0, multiplicity = 1:

    H            3.545947929392    -0.446449797440    -0.558214716937
    N            2.711831127578    -0.994160809508    -0.542718581973
    C            1.540430253037    -0.155459009534    -0.332512843903
    H            2.810845226406    -1.656751270536     0.198255835115
    C            0.274091543863    -1.004558055052    -0.344006809468
    H            1.497149195589     0.562766734280    -1.145529148585
    H            1.599266612605     0.416957541656     0.590806121733
    C           -1.037772335251    -0.214370591164    -0.338204783412
    H            0.316871214209    -1.607709249910    -1.243952136643
    H            0.295825045998    -1.685262192530     0.503929509020
    C           -1.151785709905     0.866118570871     0.738483771030
    H           -1.851420112336    -0.916256712589    -0.178357594316
    H           -1.194858544360     0.237202169536    -1.313857826978
    C           -2.537521708250     1.502379773950     0.782719376591
    H           -0.924281619864     0.433004003291     1.709497196702
    H           -0.413495158491     1.642603605916     0.569978218329
    H           -3.301580865277     0.763498267437     1.000231963438
    H           -2.593604266879     2.270660787765     1.545459696016
    H           -2.786467592689     1.962248956078    -0.168080283723

  Mulliken Charges: (a.u.)
   Center  Symbol    Alpha    Beta     Spin     Total
       1     H     0.43008  0.43008  0.00000  0.13984
       2     N     3.69118  3.69118  0.00000 -0.38236
       3     C     3.02769  3.02769  0.00000 -0.05538
       4     H     0.43091  0.43091  0.00000  0.13817
       5     C     3.09253  3.09253  0.00000 -0.18506
       6     H     0.45638  0.45638  0.00000  0.08724
       7     H     0.46367  0.46367  0.00000  0.07265
       8     C     3.09850  3.09850  0.00000 -0.19700
       9     H     0.44374  0.44374  0.00000  0.11252
      10     H     0.45768  0.45768  0.00000  0.08464
      11     C     3.09022  3.09022  0.00000 -0.18044
      12     H     0.45046  0.45046  0.00000  0.09908
      13     H     0.45148  0.45148  0.00000  0.09704
      14     C     3.14975  3.14975  0.00000 -0.29951
      15     H     0.45421  0.45421  0.00000  0.09159
      16     H     0.45295  0.45295  0.00000  0.09409
      17     H     0.45479  0.45479  0.00000  0.09042
      18     H     0.44870  0.44870  0.00000  0.10261
      19     H     0.45507  0.45507  0.00000  0.08986

   Total alpha = 25.00000, Total beta = 25.00000, Total charge =  0.00000
