                              Psi4 1.0.54 Driver

  ==> Input File <==

--------------------------------------------------------------------------
set {
	reference rhf
	basis cc-pvtz
}

set_num_threads( 4 )
memory 2 gb

molecule MOL {
0 1

H	 0.340424	 3.450736	 0.074556
C	 0.486873	 2.839389	 0.975496
C	 -0.693894	 1.992114	 1.365116
O	 1.511017	 2.888798	 1.563712
C	 -1.216901	 1.136108	 0.207794
H	 -0.416024	 1.384865	 2.216804
H	 -1.475848	 2.677690	 1.684236
C	 -0.247837	 0.040196	 -0.230469
H	 -2.156144	 0.686484	 0.511111
H	 -1.449204	 1.778196	 -0.638345
C	 1.181757	 0.280428	 0.247371
H	 -0.259600	 -0.030819	 -1.314870
H	 -0.591284	 -0.923375	 0.136958
C	 2.151032	 -0.811012	 -0.202643
H	 1.515939	 1.247397	 -0.115449
H	 1.191514	 0.341223	 1.333422
C	 3.580021	 -0.656538	 0.320835
H	 2.170545	 -0.847575	 -1.289412
H	 1.766632	 -1.772905	 0.124928
C	 4.327657	 0.562694	 -0.213579
H	 4.138806	 -1.549270	 0.057813
H	 3.561991	 -0.620783	 1.406976
H	 4.355973	 0.557257	 -1.298551
H	 3.867136	 1.491650	 0.100501
H	 5.351524	 0.571613	 0.142204

	symmetry c1
}
set optking {
	frozen_dihedral = ("
		3 5 8 12
	")
}

ee,wfn = optimize('scf', return_wfn=True)
oeprop( wfn, 'DIPOLE', 'QUADRUPOLE', 'MULLIKEN_CHARGES')
f=open( 'psi4out.xyz', 'w' )
f.write( "25  " )
f.write( str(ee) + "\n" )
f.write( MOL.save_string_xyz() )
f.close()
--------------------------------------------------------------------------

    Molecular point group: c1
  Charge       = 0
  Multiplicity = 1
  Basis Set: CC-PVTZ
  Basis Set:
  @DF-RHF Final Energy:  -387.23992345893140
    Total Energy =                       -387.2399234589314574
    Molecular point group: c1
  Basis Set: CC-PVTZ
  Basis Set:
  Basis Set: CC-PVTZ
  Basis Set:
  @DF-RHF Final Energy:  -387.24679785478497
    Total Energy =                       -387.2467978547846315
  Basis Set: CC-PVTZ
  Basis Set:
  Basis Set: CC-PVTZ
  Basis Set:
  @DF-RHF Final Energy:  -387.24933718572095
    Total Energy =                       -387.2493371857212878
  Basis Set: CC-PVTZ
  Basis Set:
  Basis Set: CC-PVTZ
  Basis Set:
  @DF-RHF Final Energy:  -387.24853975954687
    Total Energy =                       -387.2485397595470431
  Basis Set: CC-PVTZ
  Basis Set:
  @DF-RHF Final Energy:  -387.25048761516410
    Total Energy =                       -387.2504876151640474
  @DF-RHF Final Energy:  -387.25076429323246
    Total Energy =                       -387.2507642932324643
  @DF-RHF Final Energy:  -387.25082054533169
    Total Energy =                       -387.2508205453315213
  @DF-RHF Final Energy:  -387.25085259133402
    Total Energy =                       -387.2508525913342510
  Basis Set: CC-PVTZ
  Basis Set:
  @DF-RHF Final Energy:  -387.25086625192642
    Total Energy =                       -387.2508662519262543
  Basis Set: CC-PVTZ
  Basis Set:
  Basis Set: CC-PVTZ
  Basis Set:
  @DF-RHF Final Energy:  -387.25086638786939
    Total Energy =                       -387.2508663878695643
  Basis Set: CC-PVTZ
  Basis Set:
  Basis Set: CC-PVTZ
  Basis Set:
  @DF-RHF Final Energy:  -387.25087224323568
    Total Energy =                       -387.2508722432360173
  Basis Set: CC-PVTZ
  Basis Set:
  Charge       = 0
  Multiplicity = 1
  Basis Set: CC-PVTZ
  Basis Set:

    Orbital Energies (a.u.)
    -----------------------

    Doubly Occupied:

       1A    -20.550108     2A    -11.321647     3A    -11.234461
       4A    -11.233016     5A    -11.222112     6A    -11.215178
       7A    -11.213545     8A    -11.212498     9A    -11.203676
      10A     -1.406129    11A     -1.101782    12A     -1.066862
      13A     -1.009866    14A     -0.944473    15A     -0.881851
      16A     -0.814378    17A     -0.787761    18A     -0.776901
      19A     -0.664320    20A     -0.660576    21A     -0.633026
      22A     -0.629219    23A     -0.607321    24A     -0.593984
      25A     -0.564600    26A     -0.552923    27A     -0.540062
      28A     -0.528900    29A     -0.509583    30A     -0.501587
      31A     -0.478799    32A     -0.471189    33A     -0.460440
      34A     -0.453987    35A     -0.443291    36A     -0.411298

  @DF-RHF Final Energy:  -387.25087282989995

   => Energetics <=

    Nuclear Repulsion Energy =            457.3449973500896135
    One-Electron Energy =               -1431.3890472921355013
    Two-Electron Energy =                 586.7931771121462816
    DFT Exchange-Correlation Energy =       0.0000000000000000
    Empirical Dispersion Energy =           0.0000000000000000
    PCM Polarization Energy =               0.0000000000000000
    EFP Energy =                            0.0000000000000000
    Total Energy =                       -387.2508728298995493
    Molecular point group: c1
  Basis Set: CC-PVTZ
  Basis Set:

  -Total Gradient:
     Atom            X                  Y                   Z
    ------   -----------------  -----------------  -----------------
       1        0.000000031851     0.000009155069    -0.000009876889
       2        0.000005429230    -0.000000865366     0.000015518198
       3        0.001643656423     0.002625897328    -0.002112080075
       4       -0.000005697973     0.000006576790    -0.000005890467
       5       -0.001645088003    -0.003078709648     0.003185588582
       6       -0.000008446731    -0.000006238890    -0.000001072272
       7       -0.000002655119    -0.000006676824    -0.000001575992
       8       -0.003533034739    -0.002927822586    -0.001314050126
       9       -0.000001616456    -0.000004348364    -0.000003184614
      10       -0.000000414564     0.000000961778    -0.000001559202
      11        0.000009290986     0.000015284351    -0.000030179612
      12        0.003544638445     0.003404344289     0.000264409894
      13        0.000001074710    -0.000005664313     0.000002288090
      14       -0.000006119872    -0.000013406874     0.000019858146
      15       -0.000006522460    -0.000005929328     0.000003368194
      16        0.000003559464    -0.000002649397    -0.000001970146
      17        0.000005232865    -0.000002818863    -0.000023383669
      18        0.000003860418     0.000006952025     0.000011180662
      19        0.000006716756    -0.000010468151     0.000000412501
      20       -0.000008978560     0.000001678493     0.000007625761
      21        0.000005661059    -0.000010125339    -0.000001133904
      22       -0.000006575759     0.000005646999    -0.000007185516
      23       -0.000000750688    -0.000003901223     0.000001022698
      24       -0.000002433096     0.000007363965     0.000000015729
      25       -0.000000818188    -0.000004235915     0.000001854033

  **** Optimization is complete! (in 12 steps) ****
    Final optimized geometry and variables:
    Molecular point group: c1

    Geometry (in Angstrom), charge = 0, multiplicity = 1:

    H           -1.123266326065     2.613839503925    -0.216802024695
    C           -1.036594292118     2.066589981059     0.731736352023
    C           -2.055799100380     0.976984364543     0.934146854214
    O           -0.212770226379     2.375471613411     1.520908584887
    C           -2.378869762274     0.152781649117    -0.317794536502
    H           -1.752222790209     0.369389923228     1.775847728219
    H           -2.964976871827     1.496945247255     1.232013244852
    C           -1.338639072014    -0.892668814773    -0.790346891160
    H           -3.323342802588    -0.349807783217    -0.151945204958
    H           -2.565093684061     0.853991594867    -1.126684711081
    C            0.097141416555    -0.724466084514    -0.287707839189
    H           -1.295145428901    -0.854517685151    -1.873724144886
    H           -1.682785061331    -1.885164087268    -0.521129306083
    C            1.022188329701    -1.812675781691    -0.830933713498
    H            0.475571000305     0.248096389899    -0.582573966574
    H            0.125826218439    -0.748260360913     0.796759183611
    C            2.455072653866    -1.757700805324    -0.298300982235
    H            1.042220716624    -1.758812425656    -1.917152590171
    H            0.600185230224    -2.783222881454    -0.584197314530
    C            3.241530673434    -0.514884936106    -0.708025313522
    H            2.984074684922    -2.637758517521    -0.651156727993
    H            2.436738956617    -1.829872143729     0.785755145269
    H            3.263121249738    -0.405921543238    -1.787943925615
    H            2.816868743113     0.389776463155    -0.290566872999
    H            4.267235801863    -0.580165989387    -0.363729128138

  Mulliken Charges: (a.u.)
   Center  Symbol    Alpha    Beta     Spin     Total
       1     H     0.46234  0.46234  0.00000  0.07532
       2     C     2.90040  2.90040  0.00000  0.19920
       3     C     3.09596  3.09596  0.00000 -0.19191
       4     O     4.17075  4.17075  0.00000 -0.34149
       5     C     3.12060  3.12060  0.00000 -0.24121
       6     H     0.43900  0.43900  0.00000  0.12199
       7     H     0.43547  0.43547  0.00000  0.12905
       8     C     3.08828  3.08828  0.00000 -0.17656
       9     H     0.43933  0.43933  0.00000  0.12133
      10     H     0.45039  0.45039  0.00000  0.09921
      11     C     3.10854  3.10854  0.00000 -0.21708
      12     H     0.44945  0.44945  0.00000  0.10110
      13     H     0.44869  0.44869  0.00000  0.10262
      14     C     3.09705  3.09705  0.00000 -0.19410
      15     H     0.44819  0.44819  0.00000  0.10361
      16     H     0.44418  0.44418  0.00000  0.11164
      17     C     3.08930  3.08930  0.00000 -0.17860
      18     H     0.45389  0.45389  0.00000  0.09222
      19     H     0.44946  0.44946  0.00000  0.10109
      20     C     3.15555  3.15555  0.00000 -0.31110
      21     H     0.44898  0.44898  0.00000  0.10203
      22     H     0.45365  0.45365  0.00000  0.09269
      23     H     0.45637  0.45637  0.00000  0.08726
      24     H     0.44830  0.44830  0.00000  0.10340
      25     H     0.44587  0.44587  0.00000  0.10827

   Total alpha = 36.00000, Total beta = 36.00000, Total charge = -0.00000

*** Psi4 exiting successfully. Buy a developer a beer!
