  ==> Input File <==

--------------------------------------------------------------------------
set {
	reference rhf
	basis cc-pvtz
}

set_num_threads( 4 )
memory 2 gb

molecule MOL {
0 1

O	 2.365569	 2.130822	 0.134221
C	 1.292431	 2.560722	 0.405644
C	 0.046609	 1.698423	 0.391442
C	 1.097913	 4.010905	 0.786901
C	 0.288398	 0.247429	 0.000314
H	 -0.406248	 1.761266	 1.378376
H	 -0.667259	 2.165641	 -0.283173
C	 -0.993089	 -0.581367	 -0.000217
H	 1.009270	 -0.189137	 0.682126
H	 0.748166	 0.215640	 -0.980877
C	 -2.258482	 0.271340	 0.000669
H	 -1.002280	 -1.233920	 -0.870484
H	 -1.002061	 -1.235367	 0.868958
C	 -3.544441	 -0.550271	 -0.000253
H	 -2.250545	 0.925250	 -0.867923
H	 -2.250598	 0.923423	 0.870642
C	 -4.804551	 0.308747	 0.000556
H	 -3.553737	 -1.201524	 -0.870151
H	 -3.553831	 -1.203282	 0.868313
H	 -4.842050	 0.949078	 -0.874436
H	 -5.698404	 -0.304480	 -0.000254
H	 -4.842277	 0.947103	 0.876982
H	 0.666813	 4.082182	 1.779433
H	 2.046019	 4.525680	 0.764686
H	 0.407115	 4.488391	 0.100718

	symmetry c1
}
set optking {
	frozen_dihedral = ("
		9 5 8 12
	")
}

ee = optimize('scf')
oeprop('DIPOLE', 'QUADRUPOLE', 'MULLIKEN_CHARGES')
f=open( 'psi4out.xyz', 'w' )
f.write( "25  " )
f.write( str(ee) + "\n" )
f.write( MOL.save_string_xyz() )
f.close()
--------------------------------------------------------------------------

    Molecular point group: c1
  Charge       = 0
  Multiplicity = 1
  Basis Set: CC-PVTZ
  Basis Set:
  @DF-RHF Final Energy:  -387.26126024460046
    Total Energy =                       -387.2612602446001802
    Molecular point group: c1
  Basis Set: CC-PVTZ
  Basis Set:
  Basis Set: CC-PVTZ
  Basis Set:
  @DF-RHF Final Energy:  -387.26165547322034
    Total Energy =                       -387.2616554732205714
  Basis Set: CC-PVTZ
  Basis Set:
  Basis Set: CC-PVTZ
  Basis Set:
  @DF-RHF Final Energy:  -387.26515508542121
    Total Energy =                       -387.2651550854209290
  Basis Set: CC-PVTZ
  Basis Set:
  Basis Set: CC-PVTZ
  Basis Set:
  @DF-RHF Final Energy:  -387.26563460772047
    Total Energy =                       -387.2656346077203580
  Basis Set: CC-PVTZ
  Basis Set:
  @DF-RHF Final Energy:  -387.26549290297373
    Total Energy =                       -387.2654929029737332
  @DF-RHF Final Energy:  -387.26566011918936
    Total Energy =                       -387.2656601191894197
  Basis Set: CC-PVTZ
  Basis Set:
  @DF-RHF Final Energy:  -387.26551405722665
    Total Energy =                       -387.2655140572261416
  Basis Set: CC-PVTZ
  Basis Set:
  Basis Set: CC-PVTZ
  Basis Set:
  @DF-RHF Final Energy:  -387.26569662863346
    Total Energy =                       -387.2656966286334637
  Basis Set: CC-PVTZ
  Basis Set:
  Basis Set: CC-PVTZ
  Basis Set:
  @DF-RHF Final Energy:  -387.26570360550937
    Total Energy =                       -387.2657036055087474
  Basis Set: CC-PVTZ
  Basis Set:
  Charge       = 0
  Multiplicity = 1
  Basis Set: CC-PVTZ
  Basis Set:

    Orbital Energies (a.u.)
    -----------------------

    Doubly Occupied:

       1A    -20.538453     2A    -11.319959     3A    -11.229206
       4A    -11.226164     5A    -11.215934     6A    -11.215680
       7A    -11.215280     8A    -11.214901     9A    -11.209335
      10A     -1.398546    11A     -1.094241    12A     -1.056587
      13A     -1.014168    14A     -0.968540    15A     -0.900411
      16A     -0.818139    17A     -0.786680    18A     -0.727844
      19A     -0.662968    20A     -0.656363    21A     -0.634305
      22A     -0.623603    23A     -0.597361    24A     -0.584215
      25A     -0.569345    26A     -0.561713    27A     -0.543902
      28A     -0.526465    29A     -0.523196    30A     -0.494578
      31A     -0.493765    32A     -0.477851    33A     -0.459863
      34A     -0.454839    35A     -0.447604    36A     -0.402460

  @DF-RHF Final Energy:  -387.26570358328001

   => Energetics <=

    Nuclear Repulsion Energy =            446.7859944185639733
    One-Electron Energy =               -1410.3744717642748583
    Two-Electron Energy =                 576.3227737624307565
    DFT Exchange-Correlation Energy =       0.0000000000000000
    Empirical Dispersion Energy =           0.0000000000000000
    PCM Polarization Energy =               0.0000000000000000
    EFP Energy =                            0.0000000000000000
    Total Energy =                       -387.2657035832801284
    Molecular point group: c1
  Basis Set: CC-PVTZ
  Basis Set:

  -Total Gradient:
     Atom            X                  Y                   Z
    ------   -----------------  -----------------  -----------------
       1        0.000008288294     0.000003628967     0.000048072136
       2       -0.000043647862    -0.000005566818    -0.000134725446
       3       -0.000006629592    -0.000005120337     0.000080201539
       4        0.000019678067    -0.000008967336     0.000031018140
       5        0.001764216672    -0.002966006582    -0.005562893266
       6       -0.000015208634     0.000000566791    -0.000002803192
       7        0.000035816569     0.000008611757     0.000000317215
       8        0.002631815097    -0.003927624044     0.004429900155
       9       -0.001870649080     0.003112652352     0.004020075873
      10        0.000005347866    -0.000010281206     0.000008429980
      11        0.000005439209     0.000002378540    -0.000132502108
      12       -0.002525887047     0.003812785040    -0.002840159397
      13        0.000002536369    -0.000028070616    -0.000016563712
      14        0.000004334780     0.000004085833     0.000015551862
      15       -0.000035842627    -0.000024583702    -0.000005105115
      16        0.000029371619     0.000023814228     0.000019357804
      17       -0.000001001358     0.000000310303     0.000022606367
      18        0.000004467287     0.000015385306     0.000004095631
      19       -0.000004892946    -0.000015058545     0.000001737887
      20        0.000005732091    -0.000004156858     0.000000185491
      21       -0.000000218140     0.000000387931     0.000003289730
      22       -0.000005111953     0.000003530209    -0.000000379054
      23        0.000003417254     0.000009640195     0.000005808223
      24       -0.000004135806    -0.000003875933     0.000001946303
      25       -0.000007236127     0.000001534525     0.000002536956

  **** Optimization is complete! (in 10 steps) ****
    Final optimized geometry and variables:
    Molecular point group: c1

    Geometry (in Angstrom), charge = 0, multiplicity = 1:

    O            3.169545642580     0.932895356063    -0.094673246169
    C            2.141520002877     1.441318794194     0.213042990773
    C            0.828050297497     0.684126145086     0.227634298030
    C            2.074350237874     2.897614226984     0.616161479257
    C            0.961352662803    -0.778575830291    -0.189557334965
    H            0.420537529575     0.771002581026     1.231574716496
    H            0.139652873840     1.226950858578    -0.412298975991
    C           -0.340362754723    -1.615089779683    -0.149505416518
    H            1.681101859150    -1.220595537659     0.486992985928
    H            1.399215157500    -0.814275909907    -1.177796392069
    C           -1.664628295959    -0.847791017237    -0.188981146599
    H           -0.343643717395    -2.268084992194    -1.015992892797
    H           -0.337091842362    -2.251488815817     0.728732404110
    C           -2.875153625099    -1.777941312953    -0.203223781809
    H           -1.698119146144    -0.215427445205    -1.072882458183
    H           -1.745777302218    -0.183763615337     0.666264128827
    C           -4.204703180711    -1.031623776215    -0.237558271426
    H           -2.810886451764    -2.438101922489    -1.063644399570
    H           -2.844869164347    -2.418754133294     0.673797449354
    H           -4.280771144224    -0.407360158440    -1.121755977411
    H           -5.041573964620    -1.720411627726    -0.247227276234
    H           -4.316161291668    -0.389067005311     0.629647968549
    H            1.675815665178     2.990143021858     1.620455300687
    H            3.060100775885     3.334747542133     0.574869021245
    H            1.407448574253     3.438534851070    -0.046156014480

  Mulliken Charges: (a.u.)
   Center  Symbol    Alpha    Beta     Spin     Total
       1     O     4.17034  4.17034  0.00000 -0.34069
       2     C     2.86365  2.86365  0.00000  0.27270
       3     C     3.11821  3.11821  0.00000 -0.23642
       4     C     3.15115  3.15115  0.00000 -0.30230
       5     C     3.08963  3.08963  0.00000 -0.17927
       6     H     0.44436  0.44436  0.00000  0.11128
       7     H     0.44220  0.44220  0.00000  0.11561
       8     C     3.09786  3.09786  0.00000 -0.19572
       9     H     0.44265  0.44265  0.00000  0.11470
      10     H     0.44285  0.44285  0.00000  0.11431
      11     C     3.09263  3.09263  0.00000 -0.18526
      12     H     0.44933  0.44933  0.00000  0.10134
      13     H     0.44990  0.44990  0.00000  0.10021
      14     C     3.08475  3.08475  0.00000 -0.16950
      15     H     0.45421  0.45421  0.00000  0.09158
      16     H     0.45356  0.45356  0.00000  0.09288
      17     C     3.14992  3.14992  0.00000 -0.29984
      18     H     0.45308  0.45308  0.00000  0.09384
      19     H     0.45416  0.45416  0.00000  0.09167
      20     H     0.45537  0.45537  0.00000  0.08927
      21     H     0.44769  0.44769  0.00000  0.10462
      22     H     0.45585  0.45585  0.00000  0.08829
      23     H     0.45085  0.45085  0.00000  0.09831
      24     H     0.43510  0.43510  0.00000  0.12979
      25     H     0.45071  0.45071  0.00000  0.09859

   Total alpha = 36.00000, Total beta = 36.00000, Total charge = -0.00000
