  ==> Input File <==

--------------------------------------------------------------------------
set {
	reference rhf
	basis 6-31G*
}

set_num_threads( 1 )
memory 2 gb

molecule MOL {
0 1

H	 2.591676	 2.013956	 0.335017
O	 3.341076	 1.666752	 -0.126416
C	 3.569581	 0.339145	 0.272707
C	 2.539767	 -0.640285	 -0.279495
H	 4.553106	 0.084646	 -0.100901
H	 3.608576	 0.269204	 1.359154
C	 2.608205	 -0.825308	 -1.797372
H	 2.678441	 -1.599873	 0.211757
H	 1.549327	 -0.282535	 -0.003073
C	 1.527498	 -1.772091	 -2.326986
H	 3.588966	 -1.207350	 -2.066661
H	 2.504255	 0.143933	 -2.285335
C	 1.497307	 -1.925994	 -3.852025
H	 1.653745	 -2.751419	 -1.868918
H	 0.556558	 -1.407250	 -1.998552
C	 2.725458	 -2.613583	 -4.454805
H	 0.612456	 -2.499558	 -4.120131
H	 1.371600	 -0.945926	 -4.309737
C	 2.602206	 -2.838759	 -5.963295
H	 2.878872	 -3.572021	 -3.960870
H	 3.617963	 -2.023956	 -4.259669
C	 3.829524	 -3.519172	 -6.568599
H	 1.719271	 -3.440998	 -6.166327
H	 2.439157	 -1.883251	 -6.457568
H	 4.000502	 -4.492597	 -6.117564
H	 3.710897	 -3.666536	 -7.637639
H	 4.724684	 -2.923074	 -6.414589

	symmetry c1
}
set optking {
	frozen_dihedral = ("
		14 10 7 4,
		14 10 13 16,
		10 7 4 8,
		10 13 16 20,
		20 16 19 22,
		4 3 2 1
	")
}

ee = energy('scf')
oeprop('DIPOLE', 'QUADRUPOLE', 'MULLIKEN_CHARGES')
f=open( 'psi4out.xyz', 'w' )
f.write( "27  " )
f.write( str(ee) + "\n" )
f.write( MOL.save_string_xyz() )
f.close()
--------------------------------------------------------------------------

    Molecular point group: c1

    Geometry (in Angstrom), charge = 0, multiplicity = 1:

       Center              X                  Y                   Z               Mass
    ------------   -----------------  -----------------  -----------------  -----------------
           H         -0.120670200765     3.315011158158     3.085676493519     1.007825032070
           O          0.628729799235     2.967807158158     2.624243493519    15.994914619560
           C          0.857234799235     1.640200158158     3.023366493519    12.000000000000
           C         -0.172579200765     0.660770158158     2.471164493519    12.000000000000
           H          1.840759799235     1.385701158158     2.649758493519     1.007825032070
           H          0.896229799235     1.570259158158     4.109813493519     1.007825032070
           C         -0.104141200765     0.475747158158     0.953287493519    12.000000000000
           H         -0.033905200765    -0.298817841842     2.962416493519     1.007825032070
           H         -1.163019200765     1.018520158158     2.747586493519     1.007825032070
           C         -1.184848200765    -0.471035841842     0.423673493519    12.000000000000
           H          0.876619799235     0.093705158158     0.683998493519     1.007825032070
           H         -0.208091200765     1.444988158158     0.465324493519     1.007825032070
           C         -1.215039200765    -0.624938841842    -1.101365506481    12.000000000000
           H         -1.058601200765    -1.450363841842     0.881741493519     1.007825032070
           H         -2.155788200765    -0.106194841842     0.752107493519     1.007825032070
           C          0.013111799235    -1.312527841842    -1.704145506481    12.000000000000
           H         -2.099890200765    -1.198502841842    -1.369471506481     1.007825032070
           H         -1.340746200765     0.355129158158    -1.559077506481     1.007825032070
           C         -0.110140200765    -1.537703841842    -3.212635506481    12.000000000000
           H          0.166525799235    -2.270965841842    -1.210210506481     1.007825032070
           H          0.905616799235    -0.722900841842    -1.509009506481     1.007825032070
           C          1.117177799235    -2.218116841842    -3.817939506481    12.000000000000
           H         -0.993075200765    -2.139942841842    -3.415667506481     1.007825032070
           H         -0.273189200765    -0.582195841842    -3.706908506481     1.007825032070
           H          1.288155799235    -3.191541841842    -3.366904506481     1.007825032070
           H          0.998550799235    -2.365480841842    -4.886979506481     1.007825032070
           H          2.012337799235    -1.622018841842    -3.663929506481     1.007825032070

  Charge       = 0
  Multiplicity = 1
  Basis Set: 6-31G*
  Basis Set:

    Orbital Energies (a.u.)
    -----------------------

    Doubly Occupied:

       1A    -20.553101     2A    -11.267557     3A    -11.216035
       4A    -11.212720     5A    -11.212288     6A    -11.211362
       7A    -11.210630     8A    -11.210264     9A    -11.206564
      10A     -1.359750    11A     -1.090733    12A     -1.058299
      13A     -1.009205    14A     -0.944602    15A     -0.882718
      16A     -0.820067    17A     -0.800795    18A     -0.774134
      19A     -0.683605    20A     -0.651164    21A     -0.637668
      22A     -0.607866    23A     -0.606381    24A     -0.583408
      25A     -0.571243    26A     -0.555040    27A     -0.536969
      28A     -0.517662    29A     -0.511085    30A     -0.491328
      31A     -0.479412    32A     -0.469842    33A     -0.464087
      34A     -0.456634    35A     -0.453105    36A     -0.439189
      37A     -0.419506

  @DF-RHF Final Energy:  -388.28180075445903

   => Energetics <=

    Nuclear Repulsion Energy =            457.7438099784685619
    One-Electron Energy =               -1433.6991559532523297
    Two-Electron Energy =                 587.6735452203204204
    DFT Exchange-Correlation Energy =       0.0000000000000000
    Empirical Dispersion Energy =           0.0000000000000000
    PCM Polarization Energy =               0.0000000000000000
    EFP Energy =                            0.0000000000000000
    Total Energy =                       -388.2818007544633474

  Mulliken Charges: (a.u.)
   Center  Symbol    Alpha    Beta     Spin     Total
       1     H     0.28278  0.28278  0.00000  0.43444
       2     O     4.36899  4.36899  0.00000 -0.73798
       3     C     2.99814  2.99814  0.00000  0.00373
       4     C     3.16326  3.16326  0.00000 -0.32652
       5     H     0.41679  0.41679  0.00000  0.16641
       6     H     0.42859  0.42859  0.00000  0.14281
       7     C     3.15580  3.15580  0.00000 -0.31159
       8     H     0.42323  0.42323  0.00000  0.15354
       9     H     0.42792  0.42792  0.00000  0.14416
      10     C     3.15293  3.15293  0.00000 -0.30586
      11     H     0.42175  0.42175  0.00000  0.15650
      12     H     0.41262  0.41262  0.00000  0.17475
      13     C     3.15293  3.15293  0.00000 -0.30585
      14     H     0.42541  0.42541  0.00000  0.14917
      15     H     0.42322  0.42322  0.00000  0.15357
      16     C     3.15282  3.15282  0.00000 -0.30565
      17     H     0.42262  0.42262  0.00000  0.15475
      18     H     0.42316  0.42316  0.00000  0.15368
      19     C     3.15111  3.15111  0.00000 -0.30221
      20     H     0.42531  0.42531  0.00000  0.14938
      21     H     0.42133  0.42133  0.00000  0.15734
      22     C     3.23915  3.23915  0.00000 -0.47830
      23     H     0.42362  0.42362  0.00000  0.15276
      24     H     0.42280  0.42280  0.00000  0.15440
      25     H     0.42227  0.42227  0.00000  0.15545
      26     H     0.41970  0.41970  0.00000  0.16059
      27     H     0.42173  0.42173  0.00000  0.15654

   Total alpha = 37.00000, Total beta = 37.00000, Total charge =  0.00000
