  ==> Input File <==

--------------------------------------------------------------------------
set {
	reference rhf
	basis 6-31G*
}

set_num_threads( 4 )
memory 2 gb

molecule MOL {
0 1

H	 1.244019	 -2.355286	 -3.278676
O	 2.138344	 -2.060374	 -3.369683
C	 2.155918	 -0.753947	 -3.886398
C	 1.714017	 0.298350	 -2.875397
H	 3.180304	 -0.568485	 -4.182896
H	 1.543084	 -0.691258	 -4.784887
C	 0.258506	 0.155111	 -2.423913
H	 2.371188	 0.243855	 -2.011382
H	 1.858916	 1.280289	 -3.322798
C	 -0.170165	 1.257507	 -1.451399
H	 0.124161	 -0.815361	 -1.954337
H	 -0.394809	 0.174620	 -3.296346
C	 -1.644565	 1.210352	 -1.033951
H	 0.456970	 1.214672	 -0.562742
H	 0.025918	 2.222536	 -1.913970
C	 -2.037799	 -0.007733	 -0.193645
H	 -1.867572	 2.110562	 -0.465001
H	 -2.271444	 1.252625	 -1.923375
C	 -3.489788	 0.042957	 0.286558
H	 -1.377218	 -0.076836	 0.669471
H	 -1.888773	 -0.920635	 -0.765225
C	 -4.216917	 1.317354	 -0.141063
H	 -4.025645	 -0.823308	 -0.095450
H	 -3.513059	 -0.038752	 1.371301
H	 -4.239342	 1.411634	 -1.223113
H	 -5.243387	 1.322503	 0.212445
H	 -3.726170	 2.201406	 0.256408

	symmetry c1
}
set optking {
	frozen_dihedral = ("
		20 16 19 22
	")
}

ee = optimize('scf')
oeprop('DIPOLE', 'QUADRUPOLE', 'MULLIKEN_CHARGES')
f=open( 'psi4out.xyz', 'w' )
f.write( "27  " )
f.write( str(ee) + "\n" )
f.write( MOL.save_string_xyz() )
f.close()
--------------------------------------------------------------------------

    Molecular point group: c1
  Charge       = 0
  Multiplicity = 1
  Basis Set: 6-31G*
  Basis Set:
  @DF-RHF Final Energy:  -388.26659650493133
    Total Energy =                       -388.2665965049317265
    Molecular point group: c1
  Basis Set: 6-31G*
  Basis Set:
  Basis Set: 6-31G*
  Basis Set:
  @DF-RHF Final Energy:  -388.26631151692681
    Total Energy =                       -388.2663115169266348
  Basis Set: 6-31G*
  Basis Set:
  Basis Set: 6-31G*
  Basis Set:
  @DF-RHF Final Energy:  -388.27074955530742
    Total Energy =                       -388.2707495553072476
  Basis Set: 6-31G*
  Basis Set:
  Basis Set: 6-31G*
  Basis Set:
  @DF-RHF Final Energy:  -388.27145668970121
    Total Energy =                       -388.2714566897018358
  Basis Set: 6-31G*
  Basis Set:
  Basis Set: 6-31G*
  Basis Set:
  @DF-RHF Final Energy:  -388.27149584132047
    Total Energy =                       -388.2714958413209843
  Basis Set: 6-31G*
  Basis Set:
  Basis Set: 6-31G*
  Basis Set:
  @DF-RHF Final Energy:  -388.27157554681645
    Total Energy =                       -388.2715755468163934
  Basis Set: 6-31G*
  Basis Set:
  Charge       = 0
  Multiplicity = 1
  Basis Set: 6-31G*
  Basis Set:

    Orbital Energies (a.u.)
    -----------------------

    Doubly Occupied:

       1A    -20.552279     2A    -11.267015     3A    -11.219703
       4A    -11.217118     5A    -11.216787     6A    -11.215323
       7A    -11.215163     8A    -11.214610     9A    -11.209078
      10A     -1.359032    11A     -1.093550    12A     -1.057831
      13A     -1.008834    14A     -0.946113    15A     -0.895190
      16A     -0.830879    17A     -0.798300    18A     -0.763337
      19A     -0.693523    20A     -0.649388    21A     -0.636995
      22A     -0.613900    23A     -0.604758    24A     -0.586966
      25A     -0.578785    26A     -0.555287    27A     -0.535809
      28A     -0.525985    29A     -0.512887    30A     -0.498217
      31A     -0.484596    32A     -0.476487    33A     -0.468340
      34A     -0.451178    35A     -0.445887    36A     -0.440268
      37A     -0.423052

  @DF-RHF Final Energy:  -388.27157579188219

   => Energetics <=

    Nuclear Repulsion Energy =            462.2207830684475880
    One-Electron Energy =               -1442.4598202448351003
    Two-Electron Energy =                 591.9674613845053273
    DFT Exchange-Correlation Energy =       0.0000000000000000
    Empirical Dispersion Energy =           0.0000000000000000
    PCM Polarization Energy =               0.0000000000000000
    EFP Energy =                            0.0000000000000000
    Total Energy =                       -388.2715757918821282
    Molecular point group: c1
  Basis Set: 6-31G*
  Basis Set:

  -Total Gradient:
     Atom            X                  Y                   Z
    ------   -----------------  -----------------  -----------------
       1       -0.000003762825     0.000004647504     0.000001687880
       2        0.000004349956    -0.000001979832     0.000000605163
       3       -0.000007550104     0.000001703110     0.000002020395
       4        0.000004774106     0.000022185882     0.000001770563
       5        0.000000158167    -0.000004193440     0.000001863516
       6        0.000002526547     0.000001671727    -0.000001816234
       7        0.000010572680     0.000011609866     0.000017134027
       8        0.000007409911     0.000003809702    -0.000000809549
       9       -0.000001961162     0.000000642561    -0.000001856618
      10       -0.000051477243    -0.000053717689    -0.000119921989
      11        0.000041902387    -0.000001218237    -0.000004614361
      12       -0.000052321962    -0.000007037127     0.000009347164
      13        0.000008954911     0.000016600592     0.000125677867
      14       -0.000069608144    -0.000068540491     0.000027828032
      15       -0.000004649450     0.000044197683     0.000041435071
      16       -0.000110739790     0.001196251837    -0.000245027084
      17        0.000040474736     0.000067397262    -0.000023225053
      18       -0.000041486293    -0.000059294513    -0.000008448854
      19        0.000341646004     0.000301543784     0.000970338290
      20       -0.000021375524    -0.001101669013    -0.000063786647
      21        0.000048559307    -0.000011702230     0.000015591860
      22       -0.000200736881    -0.000381135656    -0.000742667072
      23       -0.000019187705    -0.000001124688     0.000012450448
      24        0.000035358176    -0.000018512992    -0.000004750918
      25        0.000024521077     0.000009367353    -0.000012821331
      26        0.000003803977    -0.000000722506    -0.000009468079
      27        0.000009845140     0.000029219556     0.000011463516

  **** Optimization is complete! (in 7 steps) ****
    Final optimized geometry and variables:
    Molecular point group: c1

    Geometry (in Angstrom), charge = 0, multiplicity = 1:

    H            1.766121872101    -2.502374860085    -1.586249692456
    O            2.669796218116    -2.234265773530    -1.667253029740
    C            2.731661057670    -0.927263044808    -2.179045341792
    C            2.312417506913     0.134569995187    -1.168361871425
    H            3.763993773088    -0.772105472743    -2.465149520116
    H            2.129653533456    -0.843017516111    -3.083076753484
    C            0.849150039136     0.033651094393    -0.730544124480
    H            2.959774832374     0.057582923446    -0.298657954936
    H            2.490825042728     1.113112575596    -1.611015029205
    C            0.447426710852     1.143430867037     0.245368827126
    H            0.681484196096    -0.935658597589    -0.269781894003
    H            0.204546698661     0.079574310461    -1.608492132862
    C           -1.035335090924     1.158233300448     0.638397156685
    H            1.057579961421     1.068371367353     1.143705650440
    H            0.690255876520     2.103243429855    -0.205859909576
    C           -1.463794864565    -0.044035609464     1.488124480568
    H           -1.226620718683     2.075814164187     1.187040210871
    H           -1.639229046198     1.211667577432    -0.264626808030
    C           -2.937955540308    -0.066733614305     1.985493029424
    H           -0.800812428016    -0.105436313570     2.347697970819
    H           -1.282896106448    -0.952624186576     0.922732238951
    C           -3.813637780111     1.143044803583     1.644769174496
    H           -3.427178046515    -0.951246130749     1.587729039119
    H           -2.941623991426    -0.193309836473     3.064027239181
    H           -3.903150155395     1.292844177609     0.574120641105
    H           -4.814847623961     0.993210027877     2.037349630114
    H           -3.429800401126     2.060904664521     2.077886955349

  Mulliken Charges: (a.u.)
   Center  Symbol    Alpha    Beta     Spin     Total
       1     H     0.27991  0.27991  0.00000  0.44019
       2     O     4.37093  4.37093  0.00000 -0.74187
       3     C     2.99738  2.99738  0.00000  0.00523
       4     C     3.16089  3.16089  0.00000 -0.32178
       5     H     0.41444  0.41444  0.00000  0.17112
       6     H     0.43206  0.43206  0.00000  0.13588
       7     C     3.16327  3.16327  0.00000 -0.32654
       8     H     0.41496  0.41496  0.00000  0.17008
       9     H     0.42434  0.42434  0.00000  0.15132
      10     C     3.15235  3.15235  0.00000 -0.30471
      11     H     0.42303  0.42303  0.00000  0.15394
      12     H     0.42552  0.42552  0.00000  0.14896
      13     C     3.15536  3.15536  0.00000 -0.31071
      14     H     0.42169  0.42169  0.00000  0.15663
      15     H     0.42141  0.42141  0.00000  0.15718
      16     C     3.15818  3.15818  0.00000 -0.31636
      17     H     0.41958  0.41958  0.00000  0.16084
      18     H     0.42345  0.42345  0.00000  0.15310
      19     C     3.15536  3.15536  0.00000 -0.31071
      20     H     0.42116  0.42116  0.00000  0.15769
      21     H     0.42115  0.42115  0.00000  0.15769
      22     C     3.24193  3.24193  0.00000 -0.48386
      23     H     0.42105  0.42105  0.00000  0.15789
      24     H     0.41985  0.41985  0.00000  0.16029
      25     H     0.42076  0.42076  0.00000  0.15848
      26     H     0.41917  0.41917  0.00000  0.16166
      27     H     0.42082  0.42082  0.00000  0.15837

   Total alpha = 37.00000, Total beta = 37.00000, Total charge = -0.00000
