  ==> Input File <==

--------------------------------------------------------------------------
set {
	reference rhf
	basis 6-31G*
}

set_num_threads( 4 )
memory 2 gb

molecule MOL {
0 1

O	 1.975642	 2.746346	 1.831985
C	 1.475867	 2.307069	 2.821944
C	 0.193960	 1.494293	 2.789595
C	 2.094518	 2.534763	 4.185976
C	 -0.383238	 1.298894	 1.390704
H	 0.396940	 0.533097	 3.260010
H	 -0.528963	 1.986129	 3.439120
C	 -1.672681	 0.476069	 1.398173
H	 0.359459	 0.815739	 0.763733
H	 -0.567724	 2.270360	 0.943081
C	 -2.259874	 0.272531	 0.000494
H	 -1.481306	 -0.495486	 1.851499
H	 -2.412544	 0.965385	 2.030028
C	 -3.549786	 -0.549746	 -0.000374
H	 -1.521372	 -0.217185	 -0.631813
H	 -2.452396	 1.243097	 -0.453304
C	 -4.809590	 0.315458	 -0.000369
H	 -3.560515	 -1.202009	 -0.871156
H	 -3.561123	 -1.202955	 0.869711
H	 -4.844746	 0.956611	 -0.876632
H	 -5.706986	 -0.295590	 -0.001609
H	 -4.845960	 0.954827	 0.877144
H	 2.329408	 1.585626	 4.658824
H	 2.997527	 3.120407	 4.083845
H	 1.396933	 3.054664	 4.836139

	symmetry c1
}
set optking {
	frozen_dihedral = ("
		15 11 14 18
	")
}

ee = optimize('scf')
oeprop('DIPOLE', 'QUADRUPOLE', 'MULLIKEN_CHARGES')
f=open( 'psi4out.xyz', 'w' )
f.write( "25  " )
f.write( str(ee) + "\n" )
f.write( MOL.save_string_xyz() )
f.close()
--------------------------------------------------------------------------

    Molecular point group: c1
  Charge       = 0
  Multiplicity = 1
  Basis Set: 6-31G*
  Basis Set:
  @DF-RHF Final Energy:  -387.13239342570108
    Total Energy =                       -387.1323934257013661
    Molecular point group: c1
  Basis Set: 6-31G*
  Basis Set:
  Basis Set: 6-31G*
  Basis Set:
  @DF-RHF Final Energy:  -387.13265176691169
    Total Energy =                       -387.1326517669118630
  Basis Set: 6-31G*
  Basis Set:
  Basis Set: 6-31G*
  Basis Set:
  @DF-RHF Final Energy:  -387.13273544972162
    Total Energy =                       -387.1327354497216220
  Basis Set: 6-31G*
  Basis Set:
  Basis Set: 6-31G*
  Basis Set:
  @DF-RHF Final Energy:  -387.13267731193514
    Total Energy =                       -387.1326773119353675
  Basis Set: 6-31G*
  Basis Set:
  Basis Set: 6-31G*
  Basis Set:
  @DF-RHF Final Energy:  -387.13273684516093
    Total Energy =                       -387.1327368451607072
  Basis Set: 6-31G*
  Basis Set:
  Basis Set: 6-31G*
  Basis Set:
  @DF-RHF Final Energy:  -387.13273809247465
    Total Energy =                       -387.1327380924747104
  Basis Set: 6-31G*
  Basis Set:
  Charge       = 0
  Multiplicity = 1
  Basis Set: 6-31G*
  Basis Set:

    Orbital Energies (a.u.)
    -----------------------

    Doubly Occupied:

       1A    -20.550524     2A    -11.326364     3A    -11.231994
       4A    -11.228392     5A    -11.217386     6A    -11.216609
       7A    -11.215209     8A    -11.213326     9A    -11.209228
      10A     -1.395831    11A     -1.093206    12A     -1.055263
      13A     -1.013921    14A     -0.968208    15A     -0.892759
      16A     -0.819552    17A     -0.786358    18A     -0.729814
      19A     -0.657860    20A     -0.653132    21A     -0.624663
      22A     -0.619699    23A     -0.607966    24A     -0.588258
      25A     -0.568877    26A     -0.556918    27A     -0.536006
      28A     -0.525532    29A     -0.516192    30A     -0.491618
      31A     -0.485562    32A     -0.478410    33A     -0.462912
      34A     -0.455030    35A     -0.450429    36A     -0.399512

  @DF-RHF Final Energy:  -387.13273815841438

   => Energetics <=

    Nuclear Repulsion Energy =            441.0726348520987017
    One-Electron Energy =               -1398.7257113398638921
    Two-Electron Energy =                 570.5203383293504658
    DFT Exchange-Correlation Energy =       0.0000000000000000
    Empirical Dispersion Energy =           0.0000000000000000
    PCM Polarization Energy =               0.0000000000000000
    EFP Energy =                            0.0000000000000000
    Total Energy =                       -387.1327381584147815
    Molecular point group: c1
  Basis Set: 6-31G*
  Basis Set:

  -Total Gradient:
     Atom            X                  Y                   Z
    ------   -----------------  -----------------  -----------------
       1       -0.000000314562     0.000001562246    -0.000001400712
       2       -0.000001119612    -0.000001456606    -0.000003019406
       3       -0.000001267575    -0.000001242735     0.000001370621
       4       -0.000001485410    -0.000002699561    -0.000000053903
       5        0.000012127829    -0.000018261376     0.000001675143
       6        0.000001133840    -0.000001347022     0.000000608022
       7       -0.000000592954    -0.000001117793     0.000000053947
       8       -0.000004834701     0.000030306446     0.000012375351
       9        0.000004376556     0.000002089703    -0.000002090150
      10       -0.000006127048    -0.000002110536     0.000001055708
      11        0.001664872636    -0.002848743986     0.003737601298
      12        0.000003187573     0.000006657069    -0.000001803030
      13       -0.000005421657     0.000001302701     0.000009427388
      14       -0.002052868877     0.003502303323    -0.002885433180
      15       -0.001043737427     0.001825795862    -0.002681052140
      16        0.000006452603    -0.000007107268     0.000003136613
      17       -0.000011989867     0.000003732145     0.000004984434
      18        0.001446236897    -0.002495270384     0.001809018210
      19       -0.000002854141    -0.000001727561    -0.000007951417
      20       -0.000001124135    -0.000000007751    -0.000000702462
      21        0.000001000602     0.000002315888     0.000000711516
      22       -0.000003633504     0.000003896349     0.000002129047
      23       -0.000000540620     0.000000369076     0.000000733701
      24       -0.000001094492    -0.000000167477    -0.000001461469
      25       -0.000000381954     0.000000929242     0.000000086869

  **** Optimization is complete! (in 7 steps) ****
    Final optimized geometry and variables:
    Molecular point group: c1

    Geometry (in Angstrom), charge = 0, multiplicity = 1:

    O            2.730632363476     1.558510280051     0.233985483381
    C            2.241615464786     1.102329161817     1.221651676966
    C            0.973906186564     0.267682066708     1.186193867458
    C            2.860336091640     1.329309960643     2.585761412411
    C            0.396383566452     0.073585033274    -0.212749144725
    H            1.194882632296    -0.693543575802     1.648340853772
    H            0.244389830061     0.741753885482     1.841550535573
    C           -0.879428767650    -0.769640911057    -0.208715336389
    H            1.145010748297    -0.393177820907    -0.845230000312
    H            0.195469219346     1.045225066228    -0.652746552878
    C           -1.457585403152    -0.985001863147    -1.608558395578
    H           -0.674418211157    -1.738444200230     0.244085235186
    H           -1.628060034988    -0.292459061353     0.422182769750
    C           -2.785257729950    -1.765506224519    -1.619417362567
    H           -0.726010008704    -1.488768513949    -2.235266659387
    H           -1.612218671273    -0.015579690355    -2.079582994388
    C           -4.024003016639    -0.871026731584    -1.584065229856
    H           -2.823485316921    -2.415874055661    -2.488798126903
    H           -2.809199084283    -2.437590947275    -0.763606155706
    H           -4.075157758777    -0.240679096922    -2.467088379397
    H           -4.934600871301    -1.461021257044    -1.544409275835
    H           -4.016153122404    -0.219427421889    -0.714688999218
    H            3.113528326264     0.380477467884     3.049688008705
    H            3.752490869542     1.931742148356     2.486008208521
    H            2.155674338861     1.831135740174     3.242472599365

  Mulliken Charges: (a.u.)
   Center  Symbol    Alpha    Beta     Spin     Total
       1     O     4.26112  4.26112  0.00000 -0.52224
       2     C     2.73571  2.73571  0.00000  0.52858
       3     C     3.21083  3.21083  0.00000 -0.42167
       4     C     3.28665  3.28665  0.00000 -0.57330
       5     C     3.14842  3.14842  0.00000 -0.29684
       6     H     0.40995  0.40995  0.00000  0.18009
       7     H     0.41005  0.41005  0.00000  0.17989
       8     C     3.15470  3.15470  0.00000 -0.30941
       9     H     0.41211  0.41211  0.00000  0.17578
      10     H     0.41195  0.41195  0.00000  0.17609
      11     C     3.15502  3.15502  0.00000 -0.31004
      12     H     0.42433  0.42433  0.00000  0.15133
      13     H     0.42441  0.42441  0.00000  0.15119
      14     C     3.15516  3.15516  0.00000 -0.31033
      15     H     0.41954  0.41954  0.00000  0.16091
      16     H     0.42140  0.42140  0.00000  0.15720
      17     C     3.23944  3.23944  0.00000 -0.47889
      18     H     0.41955  0.41955  0.00000  0.16091
      19     H     0.42292  0.42292  0.00000  0.15416
      20     H     0.42067  0.42067  0.00000  0.15866
      21     H     0.41986  0.41986  0.00000  0.16028
      22     H     0.42231  0.42231  0.00000  0.15538
      23     H     0.40873  0.40873  0.00000  0.18255
      24     H     0.39644  0.39644  0.00000  0.20711
      25     H     0.40870  0.40870  0.00000  0.18261

   Total alpha = 36.00000, Total beta = 36.00000, Total charge = -0.00000
