  ==> Input File <==

--------------------------------------------------------------------------
set {
	reference rhf
	basis 6-31G*
}

set_num_threads( 4 )
memory 2 gb

molecule MOL {
0 1

O	 1.846825	 1.296220	 0.000415
C	 1.705091	 0.115954	 0.001797
C	 0.381791	 -0.609817	 0.001258
O	 2.721346	 -0.737485	 -0.000216
C	 -0.823008	 0.326187	 0.001381
H	 0.371250	 -1.265087	 -0.865474
H	 0.370908	 -1.265746	 0.867490
C	 -1.876893	 -0.084164	 -1.028182
H	 -0.488504	 1.339601	 -0.196833
H	 -1.263071	 0.342542	 0.993543
C	 -3.092225	 0.844613	 -1.042262
H	 -1.428547	 -0.102154	 -2.020481
H	 -2.206561	 -1.102060	 -0.825479
C	 -4.145433	 0.433390	 -2.070318
H	 -2.764881	 1.861469	 -1.247175
H	 -3.541713	 0.862966	 -0.051928
H	 -3.735088	 0.438984	 -3.076201
H	 -4.993941	 1.110353	 -2.055936
H	 -4.517780	 -0.567718	 -1.871693
C	 4.024888	 -0.184556	 -0.001949
H	 4.179030	 0.422472	 -0.882452
H	 4.701782	 -1.024608	 -0.003642
H	 4.181981	 0.421185	 0.878906

	symmetry c1
}
set optking {
	frozen_dihedral = ("
		9 5 3 6
	")
}

ee = optimize('scf')
oeprop('DIPOLE', 'QUADRUPOLE', 'MULLIKEN_CHARGES')
f=open( 'psi4out.xyz', 'w' )
f.write( "23  " )
f.write( str(ee) + "\n" )
f.write( MOL.save_string_xyz() )
f.close()
--------------------------------------------------------------------------

    Molecular point group: c1
  Charge       = 0
  Multiplicity = 1
  Basis Set: 6-31G*
  Basis Set:
  @DF-RHF Final Energy:  -422.97191383100210
    Total Energy =                       -422.9719138310020980
    Molecular point group: c1
  Basis Set: 6-31G*
  Basis Set:
  Basis Set: 6-31G*
  Basis Set:
  @DF-RHF Final Energy:  -422.97216972242705
    Total Energy =                       -422.9721697224267700
  Basis Set: 6-31G*
  Basis Set:
  Basis Set: 6-31G*
  Basis Set:
  @DF-RHF Final Energy:  -422.97177438877867
    Total Energy =                       -422.9717743887782717
  Basis Set: 6-31G*
  Basis Set:
  Basis Set: 6-31G*
  Basis Set:
  @DF-RHF Final Energy:  -422.97227006016539
    Total Energy =                       -422.9722700601655561
  Basis Set: 6-31G*
  Basis Set:
  Basis Set: 6-31G*
  Basis Set:
  @DF-RHF Final Energy:  -422.97228462243072
    Total Energy =                       -422.9722846224316299
  Basis Set: 6-31G*
  Basis Set:
  Basis Set: 6-31G*
  Basis Set:
  @DF-RHF Final Energy:  -422.97228351093730
    Total Energy =                       -422.9722835109364496
  Basis Set: 6-31G*
  Basis Set:
  Basis Set: 6-31G*
  Basis Set:
  @DF-RHF Final Energy:  -422.97228638215506
    Total Energy =                       -422.9722863821546071
  Basis Set: 6-31G*
  Basis Set:
  Charge       = 0
  Multiplicity = 1
  Basis Set: 6-31G*
  Basis Set:

    Orbital Energies (a.u.)
    -----------------------

    Doubly Occupied:

       1A    -20.603898     2A    -20.546190     3A    -11.373217
       4A    -11.281029     5A    -11.235251     6A    -11.217704
       7A    -11.217114     8A    -11.215682     9A    -11.209089
      10A     -1.469893    11A     -1.363239    12A     -1.090965
      13A     -1.042721    14A     -0.986748    15A     -0.931702
      16A     -0.844080    17A     -0.795145    18A     -0.767139
      19A     -0.700477    20A     -0.681424    21A     -0.672199
      22A     -0.645805    23A     -0.610058    24A     -0.599691
      25A     -0.571271    26A     -0.557793    27A     -0.556233
      28A     -0.526958    29A     -0.523411    30A     -0.502145
      31A     -0.484760    32A     -0.468655    33A     -0.463222
      34A     -0.458059    35A     -0.456352    36A     -0.437725

  @DF-RHF Final Energy:  -422.97228653048774

   => Energetics <=

    Nuclear Repulsion Energy =            453.0696995314447122
    One-Electron Energy =               -1473.8698877997142063
    Two-Electron Energy =                 597.8279017377819855
    DFT Exchange-Correlation Energy =       0.0000000000000000
    Empirical Dispersion Energy =           0.0000000000000000
    PCM Polarization Energy =               0.0000000000000000
    EFP Energy =                            0.0000000000000000
    Total Energy =                       -422.9722865304875086
    Molecular point group: c1
  Basis Set: 6-31G*
  Basis Set:

  -Total Gradient:
     Atom            X                  Y                   Z
    ------   -----------------  -----------------  -----------------
       1       -0.000004705336     0.000003917717     0.000006070708
       2        0.000000794304    -0.000010753219     0.000015754610
       3        0.001635659863     0.002146115382    -0.001066354940
       4        0.000017868378    -0.000008775642    -0.000010991853
       5       -0.000660378034    -0.000881289891    -0.002541716447
       6       -0.001242401169    -0.001630197263     0.001248646421
       7        0.000002689573    -0.000001891272     0.000016232897
       8        0.000003462072     0.000001269160     0.000016167071
       9        0.000257876079     0.000375540346     0.002324738676
      10       -0.000002821138     0.000005273896    -0.000005036277
      11       -0.000001592249    -0.000000460698    -0.000004524593
      12        0.000002348511    -0.000003448106     0.000004089836
      13       -0.000004027904     0.000001257324    -0.000000157757
      14       -0.000002722738     0.000003557318    -0.000002154389
      15       -0.000000651261     0.000000446504    -0.000000181176
      16        0.000003200610    -0.000001555906    -0.000001256144
      17        0.000000094474    -0.000000728628    -0.000000106742
      18       -0.000000132507     0.000000095457    -0.000001199330
      19       -0.000000532311    -0.000000350654     0.000001177591
      20        0.000000091077     0.000004640178    -0.000000921421
      21        0.000000648748    -0.000000612595     0.000000337057
      22       -0.000004174273    -0.000001825045     0.000000346409
      23       -0.000000594779    -0.000000224360     0.000001039792

  **** Optimization is complete! (in 8 steps) ****
    Final optimized geometry and variables:
    Molecular point group: c1

    Geometry (in Angstrom), charge = 0, multiplicity = 1:

    O            1.775836395951     1.147786566869     0.440654037656
    C            1.606709032898    -0.028729776710     0.452019265415
    C            0.273070611178    -0.737839889952     0.425058205471
    O            2.604476702263    -0.902906857094     0.489926359457
    C           -0.949306204254     0.192449879093     0.417873271486
    H            0.277045359404    -1.397601081575    -0.438053382063
    H            0.257979274697    -1.406021257370     1.280691501760
    C           -2.020444483313    -0.231352882249    -0.588425078357
    H           -0.625648820431     1.206657455020     0.218691012384
    H           -1.384821996089     0.213650196098     1.413263821057
    C           -3.253486094073     0.672557728945    -0.565484899334
    H           -1.591926984837    -0.229575280753    -1.589417922093
    H           -2.324099670624    -1.258077668344    -0.388493594617
    C           -4.318493504016     0.255023204412    -1.578861562150
    H           -2.949659765675     1.698302850134    -0.761754840390
    H           -3.684377814521     0.667879320703     0.433452079166
    H           -3.928187148128     0.283727574103    -2.592266127504
    H           -5.179916403623     0.914330219862    -1.537948125741
    H           -4.666789506109    -0.756247707729    -1.388079574806
    C            3.919176715949    -0.377587058817     0.515261027012
    H            4.109976559388     0.212266908388    -0.369694346816
    H            4.577507851007    -1.231819235291     0.544326380276
    H            4.065568099959     0.238051255489     1.391058048941

  Mulliken Charges: (a.u.)
   Center  Symbol    Alpha    Beta     Spin     Total
       1     O     4.28493  4.28493  0.00000 -0.56986
       2     C     2.61159  2.61159  0.00000  0.77682
       3     C     3.21045  3.21045  0.00000 -0.42089
       4     O     4.30545  4.30545  0.00000 -0.61091
       5     C     3.16052  3.16052  0.00000 -0.32104
       6     H     0.39809  0.39809  0.00000  0.20381
       7     H     0.39792  0.39792  0.00000  0.20417
       8     C     3.15495  3.15495  0.00000 -0.30990
       9     H     0.39538  0.39538  0.00000  0.20925
      10     H     0.41870  0.41870  0.00000  0.16261
      11     C     3.15254  3.15254  0.00000 -0.30509
      12     H     0.42231  0.42231  0.00000  0.15537
      13     H     0.42429  0.42429  0.00000  0.15142
      14     C     3.23949  3.23949  0.00000 -0.47897
      15     H     0.42009  0.42009  0.00000  0.15983
      16     H     0.42254  0.42254  0.00000  0.15492
      17     H     0.42140  0.42140  0.00000  0.15720
      18     H     0.41867  0.41867  0.00000  0.16266
      19     H     0.42212  0.42212  0.00000  0.15576
      20     C     3.09205  3.09205  0.00000 -0.18410
      21     H     0.40910  0.40910  0.00000  0.18181
      22     H     0.40845  0.40845  0.00000  0.18309
      23     H     0.40897  0.40897  0.00000  0.18205

   Total alpha = 36.00000, Total beta = 36.00000, Total charge = -0.00000
