  ==> Input File <==

--------------------------------------------------------------------------
set {
	reference rhf
	basis cc-pvtz
}

set_num_threads( 4 )
memory 2 gb

molecule MOL {
0 1

H	 -3.294565	 0.569785	 0.000000
C	 -2.246225	 0.343737	 0.000000
C	 -1.809462	 -0.973484	 0.000000
C	 -1.312577	 1.353775	 0.000000
H	 -2.523539	 -1.775124	 0.000000
C	 -0.467257	 -1.267606	 0.000000
H	 -1.631287	 2.379013	 0.000000
C	 0.046966	 1.074396	 0.000000
H	 -0.119372	 -2.281828	 0.000000
C	 0.471772	 -0.241514	 0.000000
H	 0.748162	 1.882966	 0.000000
O	 1.760432	 -0.625184	 0.000000
C	 2.488426	 -0.622836	 -1.190873
H	 2.056259	 -1.296286	 -1.922587
H	 3.480857	 -0.964112	 -0.941918
H	 2.553177	 0.372747	 -1.615525

	symmetry c1
}
set optking {
	frozen_dihedral = ("
		13 12 10 8
	")
}

ee = optimize('scf')
oeprop('DIPOLE', 'QUADRUPOLE', 'MULLIKEN_CHARGES')
f=open( 'psi4out.xyz', 'w' )
f.write( "16  " )
f.write( str(ee) + "\n" )
f.write( MOL.save_string_xyz() )
f.close()
--------------------------------------------------------------------------

    Molecular point group: c1
  Charge       = 0
  Multiplicity = 1
  Basis Set: CC-PVTZ
  Basis Set:
  @DF-RHF Final Energy:  -344.69906870578404
    Total Energy =                       -344.6990687057840432
    Molecular point group: c1
  Basis Set: CC-PVTZ
  Basis Set:
  Basis Set: CC-PVTZ
  Basis Set:
  @DF-RHF Final Energy:  -344.70084824947190
    Total Energy =                       -344.7008482494712780
  Basis Set: CC-PVTZ
  Basis Set:
  Basis Set: CC-PVTZ
  Basis Set:
  @DF-RHF Final Energy:  -344.70104337108990
    Total Energy =                       -344.7010433710900656
  Basis Set: CC-PVTZ
  Basis Set:
  Basis Set: CC-PVTZ
  Basis Set:
  @DF-RHF Final Energy:  -344.70107196526453
    Total Energy =                       -344.7010719652648163
  Basis Set: CC-PVTZ
  Basis Set:
  Basis Set: CC-PVTZ
  Basis Set:
  @DF-RHF Final Energy:  -344.70107625819122
    Total Energy =                       -344.7010762581914491
  Basis Set: CC-PVTZ
  Basis Set:
  Charge       = 0
  Multiplicity = 1
  Basis Set: CC-PVTZ
  Basis Set:

    Orbital Energies (a.u.)
    -----------------------

    Doubly Occupied:

       1A    -20.566718     2A    -11.285511     3A    -11.274049
       4A    -11.232197     5A    -11.231741     6A    -11.224757
       7A    -11.224177     8A    -11.223612     9A     -1.405141
      10A     -1.153068    11A     -1.021348    12A     -1.019049
      13A     -0.935325    14A     -0.839158    15A     -0.810289
      16A     -0.718452    17A     -0.669662    18A     -0.668033
      19A     -0.639008    20A     -0.614847    21A     -0.601528
      22A     -0.588739    23A     -0.532992    24A     -0.509609
      25A     -0.508130    26A     -0.488734    27A     -0.440767
      28A     -0.340420    29A     -0.326092

  @DF-RHF Final Energy:  -344.70107693490013

   => Energetics <=

    Nuclear Repulsion Energy =            348.7665879522897967
    One-Electron Energy =               -1158.7490199837682212
    Two-Electron Energy =                 465.2813550965784088
    DFT Exchange-Correlation Energy =       0.0000000000000000
    Empirical Dispersion Energy =           0.0000000000000000
    PCM Polarization Energy =               0.0000000000000000
    EFP Energy =                            0.0000000000000000
    Total Energy =                       -344.7010769349000157
    Molecular point group: c1
  Basis Set: CC-PVTZ
  Basis Set:

  -Total Gradient:
     Atom            X                  Y                   Z
    ------   -----------------  -----------------  -----------------
       1       -0.000000508451    -0.000015710340    -0.000003669074
       2        0.000001267854     0.000040409521    -0.000027511705
       3        0.000003821166    -0.000027305499     0.000017526597
       4       -0.000012960060    -0.000046170240     0.000039350243
       5       -0.000024914272     0.000003762186    -0.000000589965
       6        0.000003388712    -0.000075645830    -0.000005798333
       7        0.000008508468     0.000002390027    -0.000002913048
       8        0.000067145929    -0.000031169485    -0.000140041207
       9       -0.000007254959     0.000027583469    -0.000005333170
      10       -0.000118559309     0.000208904182     0.000208383691
      11       -0.000001259441    -0.000004284794    -0.000009308016
      12        0.000038019016    -0.000196598375    -0.000044718283
      13        0.000042876004     0.000125750907    -0.000065471342
      14        0.000003589656    -0.000000841088     0.000011632778
      15       -0.000005941438    -0.000000717173     0.000011477582
      16        0.000002781125    -0.000010357466     0.000016983255

  **** Optimization is complete! (in 6 steps) ****
    Final optimized geometry and variables:
    Molecular point group: c1

    Geometry (in Angstrom), charge = 0, multiplicity = 1:

    H           -3.234675233211     0.746787571627     0.152521343112
    C           -2.191510239911     0.496285676211     0.155496137393
    C           -1.793099767331    -0.826656900543     0.178155848414
    C           -1.235552938212     1.495057650789     0.145250161699
    H           -2.528312834984    -1.608628771405     0.193449332982
    C           -0.449829337421    -1.152775344711     0.183539369551
    H           -1.536040134252     2.525536579150     0.137285194819
    C            0.108885663805     1.177397838651     0.154060614075
    H           -0.128256672960    -2.175788649091     0.209773209366
    C            0.499901610212    -0.149158191794     0.169103576704
    H            0.855264203925     1.948171442289     0.163033307340
    O            1.817614076926    -0.479016132144     0.211822477392
    C            2.509525036829    -0.419192820978    -1.007456901381
    H            2.080073181349    -1.102998532214    -1.731950716992
    H            3.529868135885    -0.707642825884    -0.805350688688
    H            2.497641225941     0.583257390207    -1.420358995851

  Mulliken Charges: (a.u.)
   Center  Symbol    Alpha    Beta     Spin     Total
       1     H     0.42355  0.42355  0.00000  0.15291
       2     C     3.08838  3.08838  0.00000 -0.17676
       3     C     3.06527  3.06527  0.00000 -0.13055
       4     C     3.06772  3.06772  0.00000 -0.13543
       5     H     0.42205  0.42205  0.00000  0.15589
       6     C     3.11418  3.11418  0.00000 -0.22836
       7     H     0.42219  0.42219  0.00000  0.15563
       8     C     3.11740  3.11740  0.00000 -0.23479
       9     H     0.41766  0.41766  0.00000  0.16468
      10     C     2.84995  2.84995  0.00000  0.30011
      11     H     0.41927  0.41927  0.00000  0.16145
      12     O     4.18357  4.18357  0.00000 -0.36715
      13     C     3.03232  3.03232  0.00000 -0.06463
      14     H     0.46563  0.46563  0.00000  0.06875
      15     H     0.44526  0.44526  0.00000  0.10948
      16     H     0.46561  0.46561  0.00000  0.06877

   Total alpha = 29.00000, Total beta = 29.00000, Total charge = -0.00000
