  ==> Input File <==

--------------------------------------------------------------------------
set {
	reference rhf
	basis cc-pvtz
}

set_num_threads( 4 )
memory 2 gb

molecule MOL {
0 1

H	 1.346022	 -0.279460	 -1.279432
O	 1.675515	 -0.612943	 -0.465627
C	 1.135873	 0.113391	 0.608264
C	 0.027642	 1.012027	 0.090274
H	 1.902972	 0.727968	 1.072615
H	 0.756163	 -0.561896	 1.370018
C	 -1.138737	 0.285728	 -0.581921
H	 0.464661	 1.708096	 -0.618252
H	 -0.340737	 1.603071	 0.925246
C	 -1.933983	 -0.631436	 0.343653
H	 -0.763151	 -0.285569	 -1.422081
H	 -1.808359	 1.035291	 -0.992333
H	 -2.789188	 -1.049673	 -0.174718
H	 -1.335629	 -1.461368	 0.700418
H	 -2.305435	 -0.092167	 1.209725

	symmetry c1
}
set optking {
	frozen_dihedral = ("
		1 2 3 4
	")
}

ee = optimize('scf')
oeprop('DIPOLE', 'QUADRUPOLE', 'MULLIKEN_CHARGES')
f=open( 'psi4out.xyz', 'w' )
f.write( "15  " )
f.write( str(ee) + "\n" )
f.write( MOL.save_string_xyz() )
f.close()
--------------------------------------------------------------------------

    Molecular point group: c1
  Charge       = 0
  Multiplicity = 1
  Basis Set: CC-PVTZ
  Basis Set:
  @DF-RHF Final Energy:  -232.23300389714421
    Total Energy =                       -232.2330038971443287
    Molecular point group: c1
  Basis Set: CC-PVTZ
  Basis Set:
  Basis Set: CC-PVTZ
  Basis Set:
  @DF-RHF Final Energy:  -232.23438146465685
    Total Energy =                       -232.2343814646567353
  Basis Set: CC-PVTZ
  Basis Set:
  Basis Set: CC-PVTZ
  Basis Set:
  @DF-RHF Final Energy:  -232.23484335934967
    Total Energy =                       -232.2348433593494406
  Basis Set: CC-PVTZ
  Basis Set:
  Basis Set: CC-PVTZ
  Basis Set:
  @DF-RHF Final Energy:  -232.23484693955064
    Total Energy =                       -232.2348469395505504
  Basis Set: CC-PVTZ
  Basis Set:
  Basis Set: CC-PVTZ
  Basis Set:
  @DF-RHF Final Energy:  -232.23485478585258
    Total Energy =                       -232.2348547858525194
  Basis Set: CC-PVTZ
  Basis Set:
  Basis Set: CC-PVTZ
  Basis Set:
  @DF-RHF Final Energy:  -232.23485651786470
    Total Energy =                       -232.2348565178647277
  Basis Set: CC-PVTZ
  Basis Set:
  Charge       = 0
  Multiplicity = 1
  Basis Set: CC-PVTZ
  Basis Set:

    Orbital Energies (a.u.)
    -----------------------

    Doubly Occupied:

       1A    -20.543408     2A    -11.264400     3A    -11.222801
       4A    -11.222188     5A    -11.210979     6A     -1.361650
       7A     -1.074123     8A     -0.976474     9A     -0.882842
      10A     -0.794314    11A     -0.668322    12A     -0.652020
      13A     -0.636903    14A     -0.587286    15A     -0.575995
      16A     -0.547438    17A     -0.507461    18A     -0.484700
      19A     -0.479785    20A     -0.457903    21A     -0.432338

  @DF-RHF Final Energy:  -232.23485657933841

   => Energetics <=

    Nuclear Repulsion Energy =            191.6650862334067540
    One-Electron Energy =                -694.6332327569220979
    Two-Electron Energy =                 270.7332899441768177
    DFT Exchange-Correlation Energy =       0.0000000000000000
    Empirical Dispersion Energy =           0.0000000000000000
    PCM Polarization Energy =               0.0000000000000000
    EFP Energy =                            0.0000000000000000
    Total Energy =                       -232.2348565793384978
    Molecular point group: c1
  Basis Set: CC-PVTZ
  Basis Set:

  -Total Gradient:
     Atom            X                  Y                   Z
    ------   -----------------  -----------------  -----------------
       1       -0.001140759300    -0.001020419286     0.000016968475
       2        0.001704016724     0.001574252521    -0.000123552569
       3       -0.001181367732    -0.001306650439     0.000221365061
       4        0.000629364670     0.000739854135    -0.000130326760
       5       -0.000014625640     0.000008310693     0.000005357425
       6        0.000000406313     0.000013723943     0.000014903146
       7        0.000007345352    -0.000012764295    -0.000005854258
       8        0.000001112412     0.000003858740    -0.000001838515
       9        0.000003161390     0.000000135124    -0.000004610892
      10       -0.000002769999    -0.000000591039     0.000004585163
      11       -0.000003360864     0.000003372927     0.000001872515
      12        0.000003357426    -0.000003329802     0.000004610267
      13       -0.000001688951     0.000000796335     0.000001836134
      14       -0.000007843331    -0.000002319059    -0.000004897617
      15        0.000003651536     0.000001769502    -0.000000417573

  **** Optimization is complete! (in 7 steps) ****
    Final optimized geometry and variables:
    Molecular point group: c1

    Geometry (in Angstrom), charge = 0, multiplicity = 1:

    H            1.490947779129    -0.347600720685    -1.264180690531
    O            1.767779907364    -0.639853980201    -0.416573814471
    C            1.138752310327     0.104776598487     0.595974993758
    C            0.017524978903     1.002214711904     0.092745319392
    H            1.884072174675     0.722081549610     1.087489863357
    H            0.767431141470    -0.595328639796     1.334077626418
    C           -1.162458291590     0.284626478650    -0.569165782688
    H            0.439674188779     1.717201263322    -0.610119435692
    H           -0.344908170551     1.584623029381     0.935170714713
    C           -1.942139335769    -0.640041186706     0.361497940697
    H           -0.818644336317    -0.284946740976    -1.427720854334
    H           -1.835539833131     1.038952585420    -0.963837536080
    H           -2.806753129728    -1.052107498376    -0.145506638899
    H           -1.337425076300    -1.471650956358     0.701362136836
    H           -2.296488227100    -0.105170721839     1.236784188086

  Mulliken Charges: (a.u.)
   Center  Symbol    Alpha    Beta     Spin     Total
       1     H     0.39144  0.39144  0.00000  0.21712
       2     O     4.20926  4.20926  0.00000 -0.41852
       3     C     2.95801  2.95801  0.00000  0.08399
       4     C     3.12038  3.12038  0.00000 -0.24076
       5     H     0.46274  0.46274  0.00000  0.07451
       6     H     0.46799  0.46799  0.00000  0.06401
       7     C     3.08468  3.08468  0.00000 -0.16936
       8     H     0.44612  0.44612  0.00000  0.10775
       9     H     0.45052  0.45052  0.00000  0.09896
      10     C     3.15336  3.15336  0.00000 -0.30671
      11     H     0.45826  0.45826  0.00000  0.08349
      12     H     0.44731  0.44731  0.00000  0.10537
      13     H     0.44587  0.44587  0.00000  0.10826
      14     H     0.44930  0.44930  0.00000  0.10140
      15     H     0.45476  0.45476  0.00000  0.09048

   Total alpha = 21.00000, Total beta = 21.00000, Total charge =  0.00000
