  ==> Input File <==

--------------------------------------------------------------------------
set {
	reference rhf
	basis 6-31G*
}

set_num_threads( 4 )
memory 2 gb

molecule MOL {
0 1

O	 -3.334598	 0.265849	 -0.976305
C	 -2.668563	 0.129746	 -0.000350
C	 -3.080755	 0.602056	 1.370157
O	 -1.481751	 -0.454642	 0.000584
H	 -4.017482	 0.126359	 1.634956
H	 -2.331786	 0.378650	 2.115525
H	 -3.255213	 1.670693	 1.331977
C	 -0.334255	 0.388708	 0.000906
C	 0.891947	 -0.504646	 0.000751
H	 -0.365390	 1.025305	 -0.873475
H	 -0.365484	 1.024911	 0.875569
C	 2.191998	 0.301789	 0.000897
H	 0.855148	 -1.151283	 -0.871571
H	 0.855132	 -1.151660	 0.872805
C	 3.441114	 -0.581407	 0.000108
H	 2.215074	 0.954890	 -0.869742
H	 2.215465	 0.953923	 0.872248
C	 4.739576	 0.224112	 -0.001102
H	 3.419457	 -1.233487	 -0.870178
H	 3.420834	 -1.233096	 0.870717
H	 4.804918	 0.861552	 -0.878265
H	 5.606527	 -0.429058	 -0.001824
H	 4.806469	 0.861674	 0.875853

	symmetry c1
}
set optking {
	frozen_dihedral = ("
		1 2 4 8
	")
}

ee = optimize('scf')
oeprop('DIPOLE', 'QUADRUPOLE', 'MULLIKEN_CHARGES')
f=open( 'psi4out.xyz', 'w' )
f.write( "23  " )
f.write( str(ee) + "\n" )
f.write( MOL.save_string_xyz() )
f.close()
--------------------------------------------------------------------------

    Molecular point group: c1
  Charge       = 0
  Multiplicity = 1
  Basis Set: 6-31G*
  Basis Set:
  @DF-RHF Final Energy:  -422.95717491139675
    Total Energy =                       -422.9571749113965780
    Molecular point group: c1
  Basis Set: 6-31G*
  Basis Set:
  Basis Set: 6-31G*
  Basis Set:
  @DF-RHF Final Energy:  -422.95759337728248
    Total Energy =                       -422.9575933772829330
  Basis Set: 6-31G*
  Basis Set:
  Basis Set: 6-31G*
  Basis Set:
  @DF-RHF Final Energy:  -422.95858515988738
    Total Energy =                       -422.9585851598878889
  Basis Set: 6-31G*
  Basis Set:
  Basis Set: 6-31G*
  Basis Set:
  @DF-RHF Final Energy:  -422.95880316760105
    Total Energy =                       -422.9588031676005357
  Basis Set: 6-31G*
  Basis Set:
  Basis Set: 6-31G*
  Basis Set:
  @DF-RHF Final Energy:  -422.95881304918487
    Total Energy =                       -422.9588130491853235
  Basis Set: 6-31G*
  Basis Set:
  Basis Set: 6-31G*
  Basis Set:
  @DF-RHF Final Energy:  -422.95882072431471
    Total Energy =                       -422.9588207243151601
  Basis Set: 6-31G*
  Basis Set:
  Charge       = 0
  Multiplicity = 1
  Basis Set: 6-31G*
  Basis Set:

    Orbital Energies (a.u.)
    -----------------------

    Doubly Occupied:

       1A    -20.583347     2A    -20.552931     3A    -11.376925
       4A    -11.293705     5A    -11.237108     6A    -11.227519
       7A    -11.226894     8A    -11.223778     9A    -11.214898
      10A     -1.457295    11A     -1.366223    12A     -1.095339
      13A     -1.035553    14A     -1.008747    15A     -0.936008
      16A     -0.843437    17A     -0.805779    18A     -0.775591
      19A     -0.697993    20A     -0.687041    21A     -0.654215
      22A     -0.648370    23A     -0.619473    24A     -0.592144
      25A     -0.582632    26A     -0.577986    27A     -0.560852
      28A     -0.548709    29A     -0.516413    30A     -0.501940
      31A     -0.486727    32A     -0.479417    33A     -0.473988
      34A     -0.472575    35A     -0.453407    36A     -0.432933

  @DF-RHF Final Energy:  -422.95882125448196

   => Energetics <=

    Nuclear Repulsion Energy =            448.8821780544140552
    One-Electron Energy =               -1465.1862178076085002
    Two-Electron Energy =                 593.3452184987123701
    DFT Exchange-Correlation Energy =       0.0000000000000000
    Empirical Dispersion Energy =           0.0000000000000000
    PCM Polarization Energy =               0.0000000000000000
    EFP Energy =                            0.0000000000000000
    Total Energy =                       -422.9588212544821317
    Molecular point group: c1
  Basis Set: 6-31G*
  Basis Set:

  -Total Gradient:
     Atom            X                  Y                   Z
    ------   -----------------  -----------------  -----------------
       1        0.000064420070     0.000149431453    -0.000026384759
       2       -0.000118217081    -0.000218063707    -0.000073020677
       3       -0.000033237806    -0.000090551524     0.000015496679
       4        0.000090980744     0.000116839152     0.000233110252
       5       -0.000000993535     0.000040050318    -0.000017803153
       6        0.000006640204     0.000003580459    -0.000010998552
       7        0.000025623899     0.000026726635     0.000012164470
       8       -0.000035958427    -0.000028127767    -0.000140554180
       9        0.000018054149     0.000006065595     0.000003463987
      10       -0.000034029436    -0.000000812651     0.000010087954
      11        0.000013327805     0.000009374111    -0.000004588100
      12       -0.000002279637    -0.000006293197    -0.000009009038
      13        0.000007748021    -0.000012029651    -0.000002024020
      14       -0.000001814588     0.000003800841     0.000001872410
      15        0.000001887351    -0.000000069024     0.000005377314
      16        0.000001502125     0.000007649076     0.000006467740
      17       -0.000002269465    -0.000006868066     0.000005313605
      18       -0.000001229173    -0.000000200213    -0.000012934171
      19       -0.000001413125    -0.000004989006     0.000002729595
      20        0.000001435433     0.000004288634     0.000003269922
      21        0.000001280770     0.000003956271     0.000000767706
      22       -0.000000392342    -0.000000298269    -0.000003554077
      23       -0.000001065945    -0.000003459470     0.000000749098

  **** Optimization is complete! (in 7 steps) ****
    Final optimized geometry and variables:
    Molecular point group: c1

    Geometry (in Angstrom), charge = 0, multiplicity = 1:

    O           -3.330712699325     0.230486149658    -1.021425225220
    C           -2.698192760158     0.101733591323    -0.031826157983
    C           -3.191123519588     0.557827180865     1.323286011058
    O           -1.495573032694    -0.509493005561    -0.034811127777
    H           -4.129583616752     0.058117533758     1.532357926479
    H           -2.485678771080     0.337324417603     2.111816993352
    H           -3.390075274196     1.622862393481     1.294499944267
    C           -0.350197423126     0.328746729408    -0.032597488197
    C            0.880528258503    -0.557999931832    -0.036341023008
    H           -0.375555760693     0.962916303166    -0.912317201093
    H           -0.361201501977     0.967094285280     0.847437111328
    C            2.180016808958     0.248799012208    -0.048861457098
    H            0.831756974022    -1.205985807284    -0.905966089212
    H            0.846204107674    -1.200886452193     0.838548432352
    C            3.428393972063    -0.635564911561    -0.058118084903
    H            2.196496385151     0.899003528251    -0.921804098471
    H            2.212638739398     0.903284844587     0.820840105575
    C            4.727286194671     0.169033731701    -0.073865291248
    H            3.397698088818    -1.290027378704    -0.926075479714
    H            3.415323267800    -1.284482549918     0.814635580305
    H            4.785043165759     0.803676755058    -0.953565501306
    H            5.593437603629    -0.485013132961    -0.080876637412
    H            4.803301897213     0.809057638043     0.800642595481

  Mulliken Charges: (a.u.)
   Center  Symbol    Alpha    Beta     Spin     Total
       1     O     4.24740  4.24740  0.00000 -0.49480
       2     C     2.62684  2.62684  0.00000  0.74633
       3     C     3.29348  3.29348  0.00000 -0.58696
       4     O     4.32160  4.32160  0.00000 -0.64320
       5     H     0.39303  0.39303  0.00000  0.21393
       6     H     0.40548  0.40548  0.00000  0.18904
       7     H     0.39789  0.39789  0.00000  0.20422
       8     C     2.99663  2.99663  0.00000  0.00674
       9     C     3.16280  3.16280  0.00000 -0.32559
      10     H     0.41291  0.41291  0.00000  0.17417
      11     H     0.42451  0.42451  0.00000  0.15097
      12     C     3.16106  3.16106  0.00000 -0.32211
      13     H     0.40802  0.40802  0.00000  0.18395
      14     H     0.41328  0.41328  0.00000  0.17345
      15     C     3.15170  3.15170  0.00000 -0.30340
      16     H     0.42040  0.42040  0.00000  0.15919
      17     H     0.42273  0.42273  0.00000  0.15454
      18     C     3.24000  3.24000  0.00000 -0.47999
      19     H     0.41980  0.41980  0.00000  0.16040
      20     H     0.42108  0.42108  0.00000  0.15785
      21     H     0.42062  0.42062  0.00000  0.15876
      22     H     0.41731  0.41731  0.00000  0.16537
      23     H     0.42144  0.42144  0.00000  0.15713

   Total alpha = 36.00000, Total beta = 36.00000, Total charge =  0.00000
