  ==> Input File <==

--------------------------------------------------------------------------
set {
	reference rhf
	basis cc-pvtz
}

set_num_threads( 4 )
memory 2 gb

molecule MOL {
0 1

H	 1.762451	 0.757267	 1.175497
O	 0.977942	 0.232791	 1.229699
C	 0.489979	 0.078084	 0.002623
C	 -0.763662	 -0.754014	 0.000816
O	 1.012829	 0.547659	 -0.948186
C	 -2.038001	 0.074705	 -0.000833
H	 -0.712945	 -1.405886	 -0.864342
H	 -0.715137	 -1.405770	 0.866182
H	 -2.087267	 0.710831	 -0.874232
H	 -2.903419	 -0.576199	 -0.001922
H	 -2.089467	 0.710909	 0.872389

	symmetry c1
}
set optking {
	frozen_dihedral = ("
		2 3 4 7
	")
}

ee = optimize('scf')
oeprop('DIPOLE', 'QUADRUPOLE', 'MULLIKEN_CHARGES')
f=open( 'psi4out.xyz', 'w' )
f.write( "11  " )
f.write( str(ee) + "\n" )
f.write( MOL.save_string_xyz() )
f.close()
--------------------------------------------------------------------------

    Molecular point group: c1
  Charge       = 0
  Multiplicity = 1
  Basis Set: CC-PVTZ
  Basis Set:
  @DF-RHF Final Energy:  -266.95062585998784
    Total Energy =                       -266.9506258599880084
    Molecular point group: c1
  Basis Set: CC-PVTZ
  Basis Set:
  Basis Set: CC-PVTZ
  Basis Set:
  @DF-RHF Final Energy:  -266.95109919995150
    Total Energy =                       -266.9510991999514999
  Basis Set: CC-PVTZ
  Basis Set:
  Basis Set: CC-PVTZ
  Basis Set:
  @DF-RHF Final Energy:  -266.94998784881960
    Total Energy =                       -266.9499878488196032
  Basis Set: CC-PVTZ
  Basis Set:
  Basis Set: CC-PVTZ
  Basis Set:
  @DF-RHF Final Energy:  -266.95136398288514
    Total Energy =                       -266.9513639828853115
  Basis Set: CC-PVTZ
  Basis Set:
  Basis Set: CC-PVTZ
  Basis Set:
  @DF-RHF Final Energy:  -266.95136802377624
    Total Energy =                       -266.9513680237762401
  Basis Set: CC-PVTZ
  Basis Set:
  Charge       = 0
  Multiplicity = 1
  Basis Set: CC-PVTZ
  Basis Set:

    Orbital Energies (a.u.)
    -----------------------

    Doubly Occupied:

       1A    -20.606860     2A    -20.538992     3A    -11.373727
       4A    -11.241346     5A    -11.228676     6A     -1.478683
       7A     -1.369109     8A     -1.068299     9A     -0.915207
      10A     -0.815948    11A     -0.706940    12A     -0.689848
      13A     -0.646174    14A     -0.617424    15A     -0.595829
      16A     -0.542916    17A     -0.527962    18A     -0.513341
      19A     -0.479499    20A     -0.444710

  @DF-RHF Final Energy:  -266.95136822786276

   => Energetics <=

    Nuclear Repulsion Energy =            180.2601932859230374
    One-Electron Energy =                -721.6201434751352508
    Two-Electron Energy =                 274.4085819613495119
    DFT Exchange-Correlation Energy =       0.0000000000000000
    Empirical Dispersion Energy =           0.0000000000000000
    PCM Polarization Energy =               0.0000000000000000
    EFP Energy =                            0.0000000000000000
    Total Energy =                       -266.9513682278627016
    Molecular point group: c1
  Basis Set: CC-PVTZ
  Basis Set:

  -Total Gradient:
     Atom            X                  Y                   Z
    ------   -----------------  -----------------  -----------------
       1       -0.000020032688     0.000003925403    -0.000014610178
       2        0.000182500758    -0.000297337120     0.000007285173
       3       -0.000182778299     0.000331241000     0.000030879976
       4       -0.000174192897     0.000251235428    -0.000231968351
       5       -0.000022122613    -0.000021852218     0.000010028438
       6        0.000017643318    -0.000001950692    -0.000001022223
       7        0.000199872340    -0.000263811707     0.000204859006
       8        0.000000323127    -0.000001094913    -0.000004626496
       9       -0.000001248812     0.000001812597     0.000001424339
      10        0.000000198845    -0.000005423208    -0.000001213209
      11       -0.000000163075     0.000003255428    -0.000001036478

  **** Optimization is complete! (in 6 steps) ****
    Final optimized geometry and variables:
    Molecular point group: c1

    Geometry (in Angstrom), charge = 0, multiplicity = 1:

    H            1.806025423180     0.730474902775     1.072257900265
    O            1.056206405678     0.158462776834     1.143151535968
    C            0.521894366531     0.015944960735    -0.065002142393
    C           -0.714017841773    -0.843745095191    -0.062636013838
    O            0.977469479946     0.541315271241    -1.022047283801
    C           -1.976391391615     0.022172028941    -0.088595885110
    H           -0.672199896800    -1.465657749268    -0.946110391595
    H           -0.709315800455    -1.479713389557     0.811066632370
    H           -1.987556558091     0.656310607886    -0.965112134735
    H           -2.856902576442    -0.606731201224    -0.110476343816
    H           -2.035827680756     0.651807225161     0.791023658247

  Mulliken Charges: (a.u.)
   Center  Symbol    Alpha    Beta     Spin     Total
       1     H     0.37980  0.37980  0.00000  0.24039
       2     O     4.16226  4.16226  0.00000 -0.32453
       3     C     2.79821  2.79821  0.00000  0.40358
       4     C     3.08944  3.08944  0.00000 -0.17889
       5     O     4.19905  4.19905  0.00000 -0.39810
       6     C     3.14858  3.14858  0.00000 -0.29717
       7     H     0.44011  0.44011  0.00000  0.11978
       8     H     0.44144  0.44144  0.00000  0.11713
       9     H     0.44358  0.44358  0.00000  0.11284
      10     H     0.44735  0.44735  0.00000  0.10529
      11     H     0.45016  0.45016  0.00000  0.09967

   Total alpha = 20.00000, Total beta = 20.00000, Total charge = -0.00000
