  ==> Input File <==

--------------------------------------------------------------------------
set {
	reference rhf
	basis cc-pvtz
}

set_num_threads( 4 )
memory 2 gb

molecule MOL {
0 1

H	 -3.941973	 0.934228	 -0.390224
C	 -3.240162	 0.342701	 0.161016
C	 -2.105997	 -0.000418	 -0.398703
H	 -3.485368	 0.047206	 1.162193
O	 -1.189946	 -0.765863	 0.237511
H	 -1.846458	 0.297311	 -1.398265
C	 0.026572	 -0.995256	 -0.379403
C	 1.057223	 0.049888	 -0.004615
H	 -0.054361	 -1.010670	 -1.459674
H	 0.397526	 -1.952058	 -0.044198
F	 0.669497	 1.228125	 -0.450154
F	 1.207787	 0.145666	 1.299097
F	 2.233065	 -0.209342	 -0.522934

	symmetry c1
}
set optking {
	frozen_dihedral = ("
		11 8 7 9
	")
}

ee = optimize('scf')
oeprop('DIPOLE', 'QUADRUPOLE', 'MULLIKEN_CHARGES')
f=open( 'psi4out.xyz', 'w' )
f.write( "13  " )
f.write( str(ee) + "\n" )
f.write( MOL.save_string_xyz() )
f.close()
--------------------------------------------------------------------------

    Molecular point group: c1
  Charge       = 0
  Multiplicity = 1
  Basis Set: CC-PVTZ
  Basis Set:
  @DF-RHF Final Energy:  -527.74149901303167
    Total Energy =                       -527.7414990130315573
    Molecular point group: c1
  Basis Set: CC-PVTZ
  Basis Set:
  Basis Set: CC-PVTZ
  Basis Set:
  @DF-RHF Final Energy:  -527.74193741569752
    Total Energy =                       -527.7419374156971799
  Basis Set: CC-PVTZ
  Basis Set:
  Basis Set: CC-PVTZ
  Basis Set:
  @DF-RHF Final Energy:  -527.74205069782818
    Total Energy =                       -527.7420506978282901
  Basis Set: CC-PVTZ
  Basis Set:
  Basis Set: CC-PVTZ
  Basis Set:
  @DF-RHF Final Energy:  -527.74206474183177
    Total Energy =                       -527.7420647418318822
  Basis Set: CC-PVTZ
  Basis Set:
  Basis Set: CC-PVTZ
  Basis Set:
  @DF-RHF Final Energy:  -527.74206648407187
    Total Energy =                       -527.7420664840717563
  Basis Set: CC-PVTZ
  Basis Set:
  Charge       = 0
  Multiplicity = 1
  Basis Set: CC-PVTZ
  Basis Set:

    Orbital Energies (a.u.)
    -----------------------

    Doubly Occupied:

       1A    -26.341637     2A    -26.340604     3A    -26.338307
       4A    -20.604063     5A    -11.497872     6A    -11.320176
       7A    -11.298649     8A    -11.213872     9A     -1.750495
      10A     -1.646757    11A     -1.645660    12A     -1.444636
      13A     -1.088166    14A     -1.020677    15A     -0.932302
      16A     -0.844013    17A     -0.839547    18A     -0.827212
      19A     -0.798333    20A     -0.728692    21A     -0.719290
      22A     -0.703754    23A     -0.681882    24A     -0.668097
      25A     -0.661720    26A     -0.650986    27A     -0.640933
      28A     -0.588041    29A     -0.566405    30A     -0.528896
      31A     -0.518542    32A     -0.356683

  @DF-RHF Final Energy:  -527.74206715482228

   => Energetics <=

    Nuclear Repulsion Energy =            413.6115734478884747
    One-Electron Energy =               -1551.0934839299497980
    Two-Electron Energy =                 609.7398433272395550
    DFT Exchange-Correlation Energy =       0.0000000000000000
    Empirical Dispersion Energy =           0.0000000000000000
    PCM Polarization Energy =               0.0000000000000000
    EFP Energy =                            0.0000000000000000
    Total Energy =                       -527.7420671548217115
    Molecular point group: c1
  Basis Set: CC-PVTZ
  Basis Set:

  -Total Gradient:
     Atom            X                  Y                   Z
    ------   -----------------  -----------------  -----------------
       1       -0.000008706547    -0.000017514363    -0.000004770002
       2       -0.000003240134     0.000004774660    -0.000006556818
       3        0.000038984460     0.000092745583     0.000004893646
       4       -0.000000717628     0.000001285740     0.000004219465
       5        0.000033094705    -0.000095997851    -0.000009931243
       6       -0.000016895826    -0.000009353612    -0.000007900691
       7        0.000432082075    -0.000344038280    -0.000184511911
       8       -0.000449249347     0.000238923653     0.000618241941
       9       -0.000349657893     0.000312127208     0.000046883598
      10        0.000003280390    -0.000026965330     0.000021651011
      11        0.000219853628    -0.000167593880    -0.000333950206
      12       -0.000044103707     0.000022565624    -0.000002889139
      13        0.000145275826    -0.000010959150    -0.000145379650

  **** Optimization is complete! (in 6 steps) ****
    Final optimized geometry and variables:
    Molecular point group: c1

    Geometry (in Angstrom), charge = 0, multiplicity = 1:

    H           -3.937115647103     0.922849790325    -0.399070755731
    C           -3.235945223651     0.332571051929     0.154337237916
    C           -2.101361027870    -0.012268494692    -0.403581441468
    H           -3.482249286620     0.039348143265     1.155928181811
    O           -1.186629208526    -0.777602447834     0.234610192747
    H           -1.841051800476     0.283319152945    -1.403610036764
    C            0.034469761041    -0.999787534200    -0.376189630222
    C            1.055158077107     0.055282865506    -0.001420919830
    H           -0.043864434262    -1.017239658953    -1.456608332258
    H            0.410769956430    -1.952731727851    -0.036245333980
    F            0.704435290346     1.250113166667    -0.427334225032
    F            1.234931909936     0.130666426506     1.294470432755
    F            2.214417521936    -0.240364893391    -0.555213372095

  Mulliken Charges: (a.u.)
   Center  Symbol    Alpha    Beta     Spin     Total
       1     H     0.42515  0.42515  0.00000  0.14970
       2     C     3.19734  3.19734  0.00000 -0.39468
       3     C     2.95896  2.95896  0.00000  0.08208
       4     H     0.42473  0.42473  0.00000  0.15055
       5     O     4.14448  4.14448  0.00000 -0.28897
       6     H     0.43446  0.43446  0.00000  0.13108
       7     C     3.01911  3.01911  0.00000 -0.03823
       8     C     2.67566  2.67566  0.00000  0.64868
       9     H     0.45520  0.45520  0.00000  0.08960
      10     H     0.43506  0.43506  0.00000  0.12988
      11     F     4.61066  4.61066  0.00000 -0.22132
      12     F     4.60646  4.60646  0.00000 -0.21291
      13     F     4.61273  4.61273  0.00000 -0.22545

   Total alpha = 32.00000, Total beta = 32.00000, Total charge = -0.00000
