  ==> Input File <==

--------------------------------------------------------------------------
set {
	reference rhf
	basis 6-31G*
}

set_num_threads( 4 )
memory 2 gb

molecule MOL {
0 1

H	 -3.261111	 -0.295142	 1.469456
C	 -3.306842	 -0.277400	 0.373456
C	 -2.660244	 0.921717	 -0.272021
O	 -3.838538	 -1.161155	 -0.216482
C	 -1.220012	 1.144545	 0.209990
H	 -2.705793	 0.797307	 -1.347733
H	 -3.263782	 1.790044	 -0.010477
C	 -0.252658	 0.041456	 -0.226725
H	 -0.873521	 2.100229	 -0.171974
H	 -1.211708	 1.231594	 1.295398
C	 1.180775	 0.282413	 0.250794
H	 -0.266029	 -0.034465	 -1.312038
H	 -0.597733	 -0.921000	 0.146291
C	 2.148627	 -0.814315	 -0.201312
H	 1.516199	 1.249228	 -0.115937
H	 1.192670	 0.346017	 1.338083
C	 3.580890	 -0.659131	 0.322722
H	 2.166869	 -0.852443	 -1.289387
H	 1.762857	 -1.776509	 0.128956
C	 4.221141	 -1.957428	 0.816808
H	 3.571127	 0.057107	 1.140558
H	 4.203654	 -0.222000	 -0.455097
H	 3.611071	 -2.425705	 1.584792
H	 4.353245	 -2.676320	 0.015112
H	 5.200163	 -1.765114	 1.245209

	symmetry c1
}
set optking {
	frozen_dihedral = ("
		20 17 14 18
	")
}

ee = optimize('scf')
oeprop('DIPOLE', 'QUADRUPOLE', 'MULLIKEN_CHARGES')
f=open( 'psi4out.xyz', 'w' )
f.write( "25  " )
f.write( str(ee) + "\n" )
f.write( MOL.save_string_xyz() )
f.close()
--------------------------------------------------------------------------

    Molecular point group: c1
  Charge       = 0
  Multiplicity = 1
  Basis Set: 6-31G*
  Basis Set:
  @DF-RHF Final Energy:  -387.11864537881155
    Total Energy =                       -387.1186453788127437
    Molecular point group: c1
  Basis Set: 6-31G*
  Basis Set:
  Basis Set: 6-31G*
  Basis Set:
  @DF-RHF Final Energy:  -387.11909074568678
    Total Energy =                       -387.1190907456870036
  Basis Set: 6-31G*
  Basis Set:
  Basis Set: 6-31G*
  Basis Set:
  @DF-RHF Final Energy:  -387.11921627700679
    Total Energy =                       -387.1192162770070126
  Basis Set: 6-31G*
  Basis Set:
  Basis Set: 6-31G*
  Basis Set:
  @DF-RHF Final Energy:  -387.11930842257289
    Total Energy =                       -387.1193084225729990
  Basis Set: 6-31G*
  Basis Set:
  @DF-RHF Final Energy:  -387.11933155911964
    Total Energy =                       -387.1193315591199280
  Basis Set: 6-31G*
  Basis Set:
  @DF-RHF Final Energy:  -387.11933734049410
    Total Energy =                       -387.1193373404937574
  Basis Set: 6-31G*
  Basis Set:
  Basis Set: 6-31G*
  Basis Set:
  @DF-RHF Final Energy:  -387.11933756870496
    Total Energy =                       -387.1193375687048501
  Basis Set: 6-31G*
  Basis Set:
  Basis Set: 6-31G*
  Basis Set:
  @DF-RHF Final Energy:  -387.11933911883597
    Total Energy =                       -387.1193391188355690
  Basis Set: 6-31G*
  Basis Set:
  Charge       = 0
  Multiplicity = 1
  Basis Set: 6-31G*
  Basis Set:

    Orbital Energies (a.u.)
    -----------------------

    Doubly Occupied:

       1A    -20.562015     2A    -11.326172     3A    -11.235372
       4A    -11.234676     5A    -11.223772     6A    -11.220398
       7A    -11.217486     8A    -11.216569     9A    -11.210469
      10A     -1.401959    11A     -1.103558    12A     -1.068570
      13A     -1.014724    14A     -0.943410    15A     -0.867969
      16A     -0.815160    17A     -0.793929    18A     -0.787034
      19A     -0.664210    20A     -0.663572    21A     -0.635994
      22A     -0.618724    23A     -0.601024    24A     -0.597119
      25A     -0.569338    26A     -0.549975    27A     -0.538926
      28A     -0.522190    29A     -0.507063    30A     -0.497739
      31A     -0.488190    32A     -0.478568    33A     -0.466457
      34A     -0.461010    35A     -0.439083    36A     -0.409538

  @DF-RHF Final Energy:  -387.11933888183916

   => Energetics <=

    Nuclear Repulsion Energy =            435.7902936489898025
    One-Electron Energy =               -1387.9153440217883144
    Two-Electron Energy =                 565.0057114909586744
    DFT Exchange-Correlation Energy =       0.0000000000000000
    Empirical Dispersion Energy =           0.0000000000000000
    PCM Polarization Energy =               0.0000000000000000
    EFP Energy =                            0.0000000000000000
    Total Energy =                       -387.1193388818398944
    Molecular point group: c1
  Basis Set: 6-31G*
  Basis Set:

  -Total Gradient:
     Atom            X                  Y                   Z
    ------   -----------------  -----------------  -----------------
       1       -0.000015954017     0.000017495806    -0.000001914125
       2        0.000057896702    -0.000057819708    -0.000018106747
       3       -0.000032797273     0.000006700456     0.000022538017
       4       -0.000013284596     0.000015225494     0.000000126525
       5        0.000011228729     0.000007744957    -0.000020472293
       6        0.000000675012     0.000014649023     0.000003714674
       7       -0.000001222872    -0.000007984271     0.000014239922
       8       -0.000000035269    -0.000011991501    -0.000012818079
       9        0.000002901353    -0.000002737117    -0.000016927688
      10        0.000006779469     0.000018658916    -0.000001104430
      11       -0.000013629611    -0.000039518666     0.000050793233
      12        0.000000195578     0.000005796968    -0.000006443716
      13       -0.000009007354     0.000004240661    -0.000006524933
      14        0.000276130762    -0.004162474995     0.001228421871
      15       -0.000024845329    -0.000015630481    -0.000012399277
      16        0.000015008703     0.000000736314     0.000000855005
      17        0.001109366564     0.000116690894    -0.003473937897
      18       -0.000528628775     0.003612337204    -0.000198706311
      19        0.000000456451    -0.000002970303     0.000001620605
      20       -0.000863031174     0.000485867968     0.002450143948
      21       -0.000009725437    -0.000008328055    -0.000010881687
      22        0.000019091758    -0.000015054928    -0.000014490389
      23       -0.000001201625     0.000007637021     0.000007671242
      24        0.000013713791     0.000007560297     0.000015188106
      25       -0.000000081522     0.000003168049    -0.000000585576

  **** Optimization is complete! (in 9 steps) ****
    Final optimized geometry and variables:
    Molecular point group: c1

    Geometry (in Angstrom), charge = 0, multiplicity = 1:

    H           -3.294621866309     0.002188880797     1.304202154681
    C           -3.316424390197     0.043329592903     0.208001941518
    C           -2.635083749651     1.243740778596    -0.398263753906
    O           -3.856554257752    -0.815167951450    -0.410934101696
    C           -1.199628401352     1.427096369619     0.113925893900
    H           -2.663421954749     1.144246832544    -1.477203811162
    H           -3.226339416776     2.117700867487    -0.127874159579
    C           -0.245946429718     0.314545707057    -0.329187038560
    H           -0.827242722223     2.383891618995    -0.240438356136
    H           -1.209521441870     1.490261471086     1.200777093795
    C            1.183733663882     0.519933256424     0.173053411199
    H           -0.244819444697     0.259419485209    -1.415841471747
    H           -0.613820591719    -0.648533729177     0.020399405414
    C            2.142973421214    -0.591268267694    -0.263635731810
    H            1.557066312113     1.477950022376    -0.185598322880
    H            1.179697132566     0.582930514779     1.260007690234
    C            3.595019061422    -0.352756044207     0.196949188349
    H            2.110370766807    -0.654407881915    -1.348660070755
    H            1.780932939696    -1.542603058630     0.118358229912
    C            4.294419562651    -1.622013456522     0.684012600621
    H            3.601077390921     0.371136321544     1.008710532156
    H            4.168562215395     0.097775732665    -0.608123821974
    H            3.774903219624    -2.044857767361     1.539040852602
    H            4.322863760656    -2.381608427875    -0.092474034004
    H            5.317702646921    -1.417928299474     0.984119942902

  Mulliken Charges: (a.u.)
   Center  Symbol    Alpha    Beta     Spin     Total
       1     H     0.43263  0.43263  0.00000  0.13474
       2     C     2.83082  2.83082  0.00000  0.33836
       3     C     3.20811  3.20811  0.00000 -0.41622
       4     O     4.23777  4.23777  0.00000 -0.47554
       5     C     3.16651  3.16651  0.00000 -0.33302
       6     H     0.39974  0.39974  0.00000  0.20052
       7     H     0.40661  0.40661  0.00000  0.18678
       8     C     3.15559  3.15559  0.00000 -0.31117
       9     H     0.41279  0.41279  0.00000  0.17442
      10     H     0.41962  0.41962  0.00000  0.16077
      11     C     3.15456  3.15456  0.00000 -0.30913
      12     H     0.41812  0.41812  0.00000  0.16376
      13     H     0.41842  0.41842  0.00000  0.16317
      14     C     3.15388  3.15388  0.00000 -0.30777
      15     H     0.42257  0.42257  0.00000  0.15487
      16     H     0.42330  0.42330  0.00000  0.15339
      17     C     3.15439  3.15439  0.00000 -0.30877
      18     H     0.42056  0.42056  0.00000  0.15889
      19     H     0.41987  0.41987  0.00000  0.16025
      20     C     3.23988  3.23988  0.00000 -0.47975
      21     H     0.42164  0.42164  0.00000  0.15672
      22     H     0.41995  0.41995  0.00000  0.16009
      23     H     0.42165  0.42165  0.00000  0.15670
      24     H     0.42094  0.42094  0.00000  0.15813
      25     H     0.42009  0.42009  0.00000  0.15982

   Total alpha = 36.00000, Total beta = 36.00000, Total charge = -0.00000
