  ==> Input File <==

--------------------------------------------------------------------------
set {
	reference rhf
	basis cc-pvtz
}

set_num_threads( 4 )
memory 2 gb

molecule MOL {
0 1

H	 3.459101	 0.139266	 -0.762951
C	 2.749156	 -0.051729	 0.031265
C	 1.322304	 0.099773	 -0.484271
H	 2.929445	 -1.053887	 0.403481
H	 2.954281	 0.646699	 0.834672
C	 0.308557	 -0.162619	 0.622645
H	 1.143368	 -0.594400	 -1.295960
H	 1.169532	 1.100095	 -0.870217
N	 -1.069352	 -0.004081	 0.085342
H	 0.371632	 -1.172932	 0.991288
H	 0.400391	 0.548875	 1.426218
O	 -1.205075	 -0.077069	 -1.089745
O	 -1.934539	 0.213483	 0.865765

	symmetry c1
}
set optking {
	frozen_dihedral = ("
		12 9 6 3
	")
}

ee = optimize('scf')
oeprop('DIPOLE', 'QUADRUPOLE', 'MULLIKEN_CHARGES')
f=open( 'psi4out.xyz', 'w' )
f.write( "13  " )
f.write( str(ee) + "\n" )
f.write( MOL.save_string_xyz() )
f.close()
--------------------------------------------------------------------------

    Molecular point group: c1
  Charge       = 0
  Multiplicity = 1
  Basis Set: CC-PVTZ
  Basis Set:
  @DF-RHF Final Energy:  -321.85880253113169
    Total Energy =                       -321.8588025311314595
    Molecular point group: c1
  Basis Set: CC-PVTZ
  Basis Set:
  Basis Set: CC-PVTZ
  Basis Set:
  @DF-RHF Final Energy:  -321.85716070559664
    Total Energy =                       -321.8571607055963568
  Basis Set: CC-PVTZ
  Basis Set:
  Basis Set: CC-PVTZ
  Basis Set:
  @DF-RHF Final Energy:  -321.85725268804384
    Total Energy =                       -321.8572526880436158
  Basis Set: CC-PVTZ
  Basis Set:
  Basis Set: CC-PVTZ
  Basis Set:
  @DF-RHF Final Energy:  -321.86012829648814
    Total Energy =                       -321.8601282964879147
  Basis Set: CC-PVTZ
  Basis Set:
  Basis Set: CC-PVTZ
  Basis Set:
  @DF-RHF Final Energy:  -321.86055829485235
    Total Energy =                       -321.8605582948523534
  Basis Set: CC-PVTZ
  Basis Set:
  Basis Set: CC-PVTZ
  Basis Set:
  @DF-RHF Final Energy:  -321.86059508868698
    Total Energy =                       -321.8605950886870914
  Basis Set: CC-PVTZ
  Basis Set:
  Charge       = 0
  Multiplicity = 1
  Basis Set: CC-PVTZ
  Basis Set:

    Orbital Energies (a.u.)
    -----------------------

    Doubly Occupied:

       1A    -20.592841     2A    -20.588595     3A    -15.838427
       4A    -11.298967     5A    -11.247394     6A    -11.235026
       7A     -1.637171     8A     -1.421347     9A     -1.131725
      10A     -1.026759    11A     -0.884854    12A     -0.827103
      13A     -0.763312    14A     -0.751359    15A     -0.730891
      16A     -0.658474    17A     -0.607153    18A     -0.577200
      19A     -0.553515    20A     -0.522325    21A     -0.509731
      22A     -0.488141    23A     -0.474467    24A     -0.453932

  @DF-RHF Final Energy:  -321.86059813486031

   => Energetics <=

    Nuclear Repulsion Energy =            247.6387199151230618
    One-Electron Energy =                -929.3572248149033612
    Two-Electron Energy =                 359.8579067649197896
    DFT Exchange-Correlation Energy =       0.0000000000000000
    Empirical Dispersion Energy =           0.0000000000000000
    PCM Polarization Energy =               0.0000000000000000
    EFP Energy =                            0.0000000000000000
    Total Energy =                       -321.8605981348605383
    Molecular point group: c1
  Basis Set: CC-PVTZ
  Basis Set:

  -Total Gradient:
     Atom            X                  Y                   Z
    ------   -----------------  -----------------  -----------------
       1       -0.000018163880     0.000001301382     0.000001128518
       2       -0.000010639523    -0.000009327195     0.000013995315
       3       -0.000015122955    -0.000140067266    -0.000087845168
       4        0.000006392263    -0.000006564039     0.000001514534
       5        0.000002580435     0.000002522736     0.000002444201
       6        0.000034052853     0.000275829533     0.000071093773
       7        0.000000297846     0.000004998896     0.000014889965
       8        0.000011043154     0.000016061518    -0.000031020896
       9       -0.000174447530    -0.000350985828    -0.000012491046
      10       -0.000058389841    -0.000000597401     0.000010933117
      11       -0.000034209065     0.000019154282    -0.000021439588
      12        0.000168893835     0.000215131222    -0.000100371364
      13        0.000087712411    -0.000027457840     0.000137168642

  **** Optimization is complete! (in 7 steps) ****
    Final optimized geometry and variables:
    Molecular point group: c1

    Geometry (in Angstrom), charge = 0, multiplicity = 1:

    H            3.508341332748     0.122074533065    -0.737940245045
    C            2.772601996991    -0.055549807040     0.035488390058
    C            1.362609283603     0.094509919137    -0.529290740830
    H            2.938429905305    -1.053668799555     0.426050154814
    H            2.958021015611     0.650844951048     0.837046311659
    C            0.328727509155    -0.151803412636     0.550734948701
    H            1.209088804083    -0.599113693419    -1.343254372855
    H            1.228888274633     1.089818726905    -0.934849722617
    N           -1.081066925067     0.006451254062     0.082655283230
    H            0.370368756488    -1.163287120801     0.931502430255
    H            0.420834213620     0.524803338323     1.384631022682
    O           -1.301692875785    -0.059027959846    -1.078399473083
    O           -1.896938694246     0.165040625060     0.927838385106

  Mulliken Charges: (a.u.)
   Center  Symbol    Alpha    Beta     Spin     Total
       1     H     0.44129  0.44129  0.00000  0.11742
       2     C     3.15254  3.15254  0.00000 -0.30507
       3     C     3.09167  3.09167  0.00000 -0.18334
       4     H     0.45305  0.45305  0.00000  0.09389
       5     H     0.45293  0.45293  0.00000  0.09414
       6     C     3.04600  3.04600  0.00000 -0.09200
       7     H     0.43634  0.43634  0.00000  0.12732
       8     H     0.44210  0.44210  0.00000  0.11580
       9     N     3.27358  3.27358  0.00000  0.45283
      10     H     0.43517  0.43517  0.00000  0.12966
      11     H     0.43208  0.43208  0.00000  0.13583
      12     O     4.16980  4.16980  0.00000 -0.33959
      13     O     4.17345  4.17345  0.00000 -0.34690

   Total alpha = 24.00000, Total beta = 24.00000, Total charge = -0.00000
