  ==> Input File <==

--------------------------------------------------------------------------
set {
	reference rhf
	basis cc-pvtz
}

set_num_threads( 4 )
memory 2 gb

molecule MOL {
0 1

H	 -3.642953	 0.223825	 0.000000
C	 -2.571844	 0.155001	 0.000000
C	 -1.957580	 -1.086132	 0.000000
C	 -1.807160	 1.303787	 0.000000
H	 -2.551493	 -1.979629	 0.000000
C	 -0.582719	 -1.174294	 0.000000
H	 -2.279934	 2.266806	 0.000000
C	 -0.427220	 1.213406	 0.000000
H	 -0.094904	 -2.127556	 0.000000
C	 0.196908	 -0.024061	 0.000000
H	 0.151409	 2.115254	 0.000000
C	 1.690041	 -0.173233	 0.000000
C	 2.291486	 -1.540821	 0.229406
O	 2.391445	 0.771075	 -0.177977
H	 1.991439	 -1.935225	 1.192940
H	 3.365670	 -1.453147	 0.195194
H	 1.961210	 -2.237800	 -0.531593

	symmetry c1
}
set optking {
	frozen_dihedral = ("
		13 12 10 8
	")
}

ee = optimize('scf')
oeprop('DIPOLE', 'QUADRUPOLE', 'MULLIKEN_CHARGES')
f=open( 'psi4out.xyz', 'w' )
f.write( "17  " )
f.write( str(ee) + "\n" )
f.write( MOL.save_string_xyz() )
f.close()
--------------------------------------------------------------------------

    Molecular point group: c1
  Charge       = 0
  Multiplicity = 1
  Basis Set: CC-PVTZ
  Basis Set:
  @DF-RHF Final Energy:  -382.60379109730712
    Total Energy =                       -382.6037910973076350
    Molecular point group: c1
  Basis Set: CC-PVTZ
  Basis Set:
  Basis Set: CC-PVTZ
  Basis Set:
  @DF-RHF Final Energy:  -382.60490868903895
    Total Energy =                       -382.6049086890388935
  Basis Set: CC-PVTZ
  Basis Set:
  Basis Set: CC-PVTZ
  Basis Set:
  @DF-RHF Final Energy:  -382.60554557579997
    Total Energy =                       -382.6055455757999653
  Basis Set: CC-PVTZ
  Basis Set:
  Basis Set: CC-PVTZ
  Basis Set:
  @DF-RHF Final Energy:  -382.60562942112279
    Total Energy =                       -382.6056294211228987
  Basis Set: CC-PVTZ
  Basis Set:
  Basis Set: CC-PVTZ
  Basis Set:
  @DF-RHF Final Energy:  -382.60563188202212
    Total Energy =                       -382.6056318820226352
  Basis Set: CC-PVTZ
  Basis Set:
  Basis Set: CC-PVTZ
  Basis Set:
  @DF-RHF Final Energy:  -382.60563403249830
    Total Energy =                       -382.6056340324987559
  Basis Set: CC-PVTZ
  Basis Set:
  Charge       = 0
  Multiplicity = 1
  Basis Set: CC-PVTZ
  Basis Set:

    Orbital Energies (a.u.)
    -----------------------

    Doubly Occupied:

       1A    -20.540501     2A    -11.327808     3A    -11.246867
       4A    -11.244392     5A    -11.242644     6A    -11.239009
       7A    -11.238910     8A    -11.236641     9A    -11.228912
      10A     -1.401959    11A     -1.171193    12A     -1.053439
      13A     -1.030726    14A     -0.998831    15A     -0.864578
      16A     -0.838911    17A     -0.763570    18A     -0.713358
      19A     -0.658686    20A     -0.651979    21A     -0.628680
      22A     -0.610640    23A     -0.602529    24A     -0.600713
      25A     -0.555367    26A     -0.529396    27A     -0.521939
      28A     -0.503658    29A     -0.497752    30A     -0.414421
      31A     -0.350952    32A     -0.346821

  @DF-RHF Final Energy:  -382.60563513852861

   => Energetics <=

    Nuclear Repulsion Energy =            404.4942960178769340
    One-Electron Energy =               -1320.4883007999621896
    Two-Electron Energy =                 533.3883696435566435
    DFT Exchange-Correlation Energy =       0.0000000000000000
    Empirical Dispersion Energy =           0.0000000000000000
    PCM Polarization Energy =               0.0000000000000000
    EFP Energy =                            0.0000000000000000
    Total Energy =                       -382.6056351385286689
    Molecular point group: c1
  Basis Set: CC-PVTZ
  Basis Set:

  -Total Gradient:
     Atom            X                  Y                   Z
    ------   -----------------  -----------------  -----------------
       1       -0.000003217121    -0.000007552773    -0.000009055343
       2        0.000008229171    -0.000022525753     0.000032139449
       3       -0.000018369245     0.000013689909    -0.000002857023
       4        0.000029881779     0.000016384730    -0.000009827468
       5       -0.000009199756     0.000002324949    -0.000001142522
       6       -0.000001395058    -0.000050701776    -0.000021691226
       7        0.000003434626    -0.000004143935     0.000000667600
       8       -0.000027326233    -0.000035880301     0.000917583207
       9       -0.000001342659     0.000023942844    -0.000001066311
      10       -0.000024263648     0.000142312365    -0.000919942804
      11        0.000007471692     0.000015536250     0.000007075554
      12        0.000089431814    -0.000218551710    -0.000838604453
      13        0.000010546328     0.000171002616     0.000846982343
      14       -0.000052043091    -0.000040575598    -0.000003944966
      15        0.000012821687     0.000006499954     0.000004043627
      16       -0.000014056480    -0.000007482830     0.000008711353
      17       -0.000010603807    -0.000004278940    -0.000009071018

  **** Optimization is complete! (in 7 steps) ****
    Final optimized geometry and variables:
    Molecular point group: c1

    Geometry (in Angstrom), charge = 0, multiplicity = 1:

    H           -3.633308811723     0.343501578209     0.003192315689
    C           -2.564478932142     0.245170786544    -0.001206573736
    C           -1.987285038202    -1.008330921230     0.000737609752
    C           -1.765017907363     1.375994197761    -0.007509006471
    H           -2.603704930862    -1.886428386230     0.005172103878
    C           -0.609934800142    -1.133274049777    -0.000089416149
    H           -2.213117502953     2.350851163884    -0.006061370333
    C           -0.393107628226     1.249703794218    -0.016135567353
    H           -0.177793332978    -2.113907685270     0.005797161467
    C            0.198203106466    -0.007610229326    -0.013997335836
    H            0.236552637566     2.115971758986    -0.025428367389
    C            1.696724090988    -0.091843816674    -0.013371440966
    C            2.354608753236    -1.432828147885     0.218549436183
    O            2.356540131714     0.884344271317    -0.175766055749
    H            2.013861396514    -1.872260063860     1.148155724049
    H            3.422971257783    -1.290061560333     0.252955686841
    H            2.111934754446    -2.121449787661    -0.582423331681

  Mulliken Charges: (a.u.)
   Center  Symbol    Alpha    Beta     Spin     Total
       1     H     0.42023  0.42023  0.00000  0.15955
       2     C     3.07257  3.07257  0.00000 -0.14513
       3     C     3.07722  3.07722  0.00000 -0.15443
       4     C     3.07446  3.07446  0.00000 -0.14893
       5     H     0.42235  0.42235  0.00000  0.15530
       6     C     3.08649  3.08649  0.00000 -0.17298
       7     H     0.42027  0.42027  0.00000  0.15945
       8     C     3.07473  3.07473  0.00000 -0.14946
       9     H     0.42148  0.42148  0.00000  0.15704
      10     C     3.01120  3.01120  0.00000 -0.02240
      11     H     0.40716  0.40716  0.00000  0.18568
      12     C     2.83457  2.83457  0.00000  0.33085
      13     C     3.16733  3.16733  0.00000 -0.33467
      14     O     4.18368  4.18368  0.00000 -0.36737
      15     H     0.44620  0.44620  0.00000  0.10760
      16     H     0.43190  0.43190  0.00000  0.13620
      17     H     0.44816  0.44816  0.00000  0.10369

   Total alpha = 32.00000, Total beta = 32.00000, Total charge = -0.00000
