  ==> Input File <==

--------------------------------------------------------------------------
set {
	reference rhf
	basis cc-pvtz
}

set_num_threads( 4 )
memory 2 gb

molecule MOL {
0 1

H	 -3.162190	 0.493205	 -0.000107
C	 -2.363908	 -0.234727	 0.000005
O	 -1.158738	 0.454634	 -0.000087
H	 -2.464314	 -0.863616	 -0.882153
H	 -2.464327	 -0.863359	 0.882345
C	 -1.145082	 1.592060	 -0.804072
C	 0.217825	 2.248757	 -0.716746
H	 -1.919036	 2.288233	 -0.480070
H	 -1.366791	 1.322502	 -1.836945
C	 0.314057	 3.506604	 -1.572849
H	 0.420504	 2.487136	 0.321532
H	 0.968339	 1.529101	 -1.024604
H	 -0.413186	 4.250707	 -1.265417
H	 1.296685	 3.954806	 -1.491739
H	 0.138610	 3.286228	 -2.620571

	symmetry c1
}
set optking {
	frozen_dihedral = ("
		6 3 2 4
	")
}

ee = optimize('scf')
oeprop('DIPOLE', 'QUADRUPOLE', 'MULLIKEN_CHARGES')
f=open( 'psi4out.xyz', 'w' )
f.write( "15  " )
f.write( str(ee) + "\n" )
f.write( MOL.save_string_xyz() )
f.close()
--------------------------------------------------------------------------

    Molecular point group: c1
  Charge       = 0
  Multiplicity = 1
  Basis Set: CC-PVTZ
  Basis Set:
  @DF-RHF Final Energy:  -232.22623066840617
    Total Energy =                       -232.2262306684060604
    Molecular point group: c1
  Basis Set: CC-PVTZ
  Basis Set:
  Basis Set: CC-PVTZ
  Basis Set:
  @DF-RHF Final Energy:  -232.22716712880930
    Total Energy =                       -232.2271671288092421
  Basis Set: CC-PVTZ
  Basis Set:
  Basis Set: CC-PVTZ
  Basis Set:
  @DF-RHF Final Energy:  -232.22738564478618
    Total Energy =                       -232.2273856447861817
  Basis Set: CC-PVTZ
  Basis Set:
  Charge       = 0
  Multiplicity = 1
  Basis Set: CC-PVTZ
  Basis Set:

    Orbital Energies (a.u.)
    -----------------------

    Doubly Occupied:

       1A    -20.546791     2A    -11.264502     3A    -11.261574
       4A    -11.212638     5A    -11.210663     6A     -1.380773
       7A     -1.058390     8A     -0.956217     9A     -0.877251
      10A     -0.809445    11A     -0.676352    12A     -0.655320
      13A     -0.632106    14A     -0.608634    15A     -0.564702
      16A     -0.542306    17A     -0.503534    18A     -0.489833
      19A     -0.478654    20A     -0.462729    21A     -0.415519

  @DF-RHF Final Energy:  -232.22738674175258

   => Energetics <=

    Nuclear Repulsion Energy =            189.9248066354360276
    One-Electron Energy =                -691.0885249158021679
    Two-Electron Energy =                 268.9363315386136151
    DFT Exchange-Correlation Energy =       0.0000000000000000
    Empirical Dispersion Energy =           0.0000000000000000
    PCM Polarization Energy =               0.0000000000000000
    EFP Energy =                            0.0000000000000000
    Total Energy =                       -232.2273867417525253
    Molecular point group: c1
  Basis Set: CC-PVTZ
  Basis Set:

  -Total Gradient:
     Atom            X                  Y                   Z
    ------   -----------------  -----------------  -----------------
       1       -0.000014813561     0.000019251874    -0.000005406310
       2       -0.001616736803     0.002857168234    -0.000905539766
       3        0.001169996866    -0.002074947141    -0.001739830702
       4        0.001125334070    -0.001749238240     0.001197423661
       5        0.000039465844    -0.000002307769     0.000006658665
       6       -0.000682965331     0.001016537199     0.001342808858
       7        0.000016064258    -0.000041572860     0.000049210731
       8       -0.000001604365    -0.000024835045     0.000035111993
       9       -0.000006681301     0.000014921810    -0.000008945268
      10       -0.000040567809    -0.000013583296     0.000003326288
      11        0.000021994131     0.000012339143     0.000010691702
      12       -0.000003121879    -0.000004764577     0.000002325940
      13       -0.000001595226     0.000009216805    -0.000002364117
      14       -0.000004308642    -0.000015544991     0.000013181840
      15       -0.000000460251    -0.000002641142     0.000001346485

  **** Optimization is complete! (in 4 steps) ****
    Final optimized geometry and variables:
    Molecular point group: c1

    Geometry (in Angstrom), charge = 0, multiplicity = 1:

    H           -2.374021227523    -1.057084065089     0.647427253194
    C           -1.518418871606    -1.726417898921     0.612454416574
    O           -0.316296312979    -1.029594436994     0.619309435276
    H           -1.602315397208    -2.363492381276    -0.265113945567
    H           -1.540299818420    -2.358961634502     1.489170052395
    C           -0.290470857298     0.101786160675    -0.193270203659
    C            1.076251022835     0.749817631860    -0.100805786928
    H           -1.061664833379     0.803903085549     0.122966823852
    H           -0.506628143429    -0.170096288975    -1.227024738579
    C            1.183342755381     2.007004691185    -0.956684972708
    H            1.276069111415     0.987116084708     0.938391494447
    H            1.823917733676     0.025793753664    -0.405447636897
    H            0.459488477570     2.755613881170    -0.652008129725
    H            2.168430686297     2.449273169206    -0.871973461184
    H            1.010419526351     1.787545938434    -2.005071172060

  Mulliken Charges: (a.u.)
   Center  Symbol    Alpha    Beta     Spin     Total
       1     H     0.47401  0.47401  0.00000  0.05198
       2     C     3.03272  3.03272  0.00000 -0.06544
       3     O     4.17265  4.17265  0.00000 -0.34531
       4     H     0.46767  0.46767  0.00000  0.06466
       5     H     0.44882  0.44882  0.00000  0.10236
       6     C     2.95609  2.95609  0.00000  0.08783
       7     C     3.08062  3.08062  0.00000 -0.16124
       8     H     0.47449  0.47449  0.00000  0.05103
       9     H     0.47691  0.47691  0.00000  0.04618
      10     C     3.15581  3.15581  0.00000 -0.31162
      11     H     0.45120  0.45120  0.00000  0.09761
      12     H     0.45102  0.45102  0.00000  0.09797
      13     H     0.45591  0.45591  0.00000  0.08818
      14     H     0.44627  0.44627  0.00000  0.10746
      15     H     0.45582  0.45582  0.00000  0.08835

   Total alpha = 21.00000, Total beta = 21.00000, Total charge = -0.00000
