  ==> Input File <==

--------------------------------------------------------------------------
set {
	reference rhf
	basis 6-31G*
}

set_num_threads( 4 )
memory 2 gb

molecule MOL {
0 1

H	 2.095845	 0.069849	 -0.369554
C	 1.193199	 -0.484033	 -0.210393
C	 1.185326	 -1.867295	 -0.209005
C	 0.000000	 0.183220	 0.000000
H	 2.101477	 -2.404452	 -0.370547
C	 0.000000	 -2.555744	 0.000000
N	 0.000000	 1.642018	 0.000000
C	 -1.193199	 -0.484034	 0.210393
H	 0.000000	 -3.630640	 0.000000
C	 -1.185326	 -1.867295	 0.209005
O	 1.057097	 2.196749	 0.000000
O	 -1.057097	 2.196749	 0.000000
H	 -2.095845	 0.069849	 0.369554
H	 -2.101477	 -2.404452	 0.370547

	symmetry c1
}
set optking {
	frozen_dihedral = ("
		2 4 7 11
	")
}

ee = optimize('scf')
oeprop('DIPOLE', 'QUADRUPOLE', 'MULLIKEN_CHARGES')
f=open( 'psi4out.xyz', 'w' )
f.write( "14  " )
f.write( str(ee) + "\n" )
f.write( MOL.save_string_xyz() )
f.close()
--------------------------------------------------------------------------

    Molecular point group: c1
  Charge       = 0
  Multiplicity = 1
  Basis Set: 6-31G*
  Basis Set:
  @DF-RHF Final Energy:  -434.17412702057288
    Total Energy =                       -434.1741270205728824
    Molecular point group: c1
  Basis Set: 6-31G*
  Basis Set:
  Basis Set: 6-31G*
  Basis Set:
  @DF-RHF Final Energy:  -434.17306984308209
    Total Energy =                       -434.1730698430819757
  Basis Set: 6-31G*
  Basis Set:
  Basis Set: 6-31G*
  Basis Set:
  @DF-RHF Final Energy:  -434.17413359792579
    Total Energy =                       -434.1741335979260157
  Basis Set: 6-31G*
  Basis Set:
  Charge       = 0
  Multiplicity = 1
  Basis Set: 6-31G*
  Basis Set:

    Orbital Energies (a.u.)
    -----------------------

    Doubly Occupied:

       1A    -20.601007     2A    -20.600950     3A    -15.855710
       4A    -11.303749     5A    -11.270733     6A    -11.270696
       7A    -11.268268     8A    -11.261122     9A    -11.261011
      10A     -1.634277    11A     -1.417504    12A     -1.201341
      13A     -1.094440    14A     -1.052525    15A     -0.957969
      16A     -0.864526    17A     -0.825110    18A     -0.784334
      19A     -0.733473    20A     -0.728706    21A     -0.709016
      22A     -0.654707    23A     -0.650126    24A     -0.624480
      25A     -0.553083    26A     -0.535735    27A     -0.529467
      28A     -0.488983    29A     -0.487017    30A     -0.451442
      31A     -0.373869    32A     -0.365556

  @DF-RHF Final Energy:  -434.17414205775731

   => Energetics <=

    Nuclear Repulsion Energy =            417.1738645778523278
    One-Electron Energy =               -1417.8741514816942981
    Two-Electron Energy =                 566.5261448460847760
    DFT Exchange-Correlation Energy =       0.0000000000000000
    Empirical Dispersion Energy =           0.0000000000000000
    PCM Polarization Energy =               0.0000000000000000
    EFP Energy =                            0.0000000000000000
    Total Energy =                       -434.1741420577571944
    Molecular point group: c1
  Basis Set: 6-31G*
  Basis Set:

  -Total Gradient:
     Atom            X                  Y                   Z
    ------   -----------------  -----------------  -----------------
       1        0.000006498594     0.000001903127     0.000011766247
       2       -0.000160292518    -0.000002950087    -0.000853422115
       3        0.000016849904     0.000004746481     0.000059143263
       4        0.000221256333    -0.000006156551     0.001561840570
       5       -0.000002496276     0.000000611910    -0.000012259522
       6       -0.000012520337    -0.000005395258    -0.000048535841
       7       -0.000061658376    -0.000062662305    -0.001733302425
       8        0.000001182609    -0.000006161278     0.000042769343
       9        0.000002791130    -0.000000941603     0.000008176369
      10       -0.000005318175    -0.000006740823    -0.000004743049
      11       -0.000030851265     0.000028770382     0.000962474120
      12        0.000022385129     0.000060262420     0.000018544013
      13        0.000000512246    -0.000005182429    -0.000018747165
      14        0.000001661000    -0.000000103985     0.000006296193

  **** Optimization is complete! (in 4 steps) ****
    Final optimized geometry and variables:
    Molecular point group: c1

    Geometry (in Angstrom), charge = 0, multiplicity = 1:

    H            2.096942644477     0.070447099628    -0.363007853741
    C            1.193765374035    -0.483631809153    -0.206971317616
    C            1.185212145834    -1.866917349544    -0.209975161046
    C            0.000829526516     0.183217271900     0.005197456742
    H            2.100643623617    -2.403900530349    -0.375848534187
    C           -0.000077099687    -2.555341847283    -0.000187157426
    N           -0.000061782850     1.641626796196    -0.002353804371
    C           -1.193583364373    -0.483621655727     0.209038671979
    H           -0.000273530382    -3.630270531285    -0.001333511706
    C           -1.185281855678    -1.866915965723     0.210165763592
    O            1.056961481879     2.196505240298    -0.009818629995
    O           -1.057476303599     2.195698800372     0.006765531119
    H           -2.097265457627     0.070375716973     0.362247208781
    H           -2.101314405287    -2.403939086685     0.372560286302

  Mulliken Charges: (a.u.)
   Center  Symbol    Alpha    Beta     Spin     Total
       1     H     0.36454  0.36454  0.00000  0.27093
       2     C     3.08514  3.08514  0.00000 -0.17028
       3     C     3.10838  3.10838  0.00000 -0.21676
       4     C     2.92220  2.92220  0.00000  0.15561
       5     H     0.38850  0.38850  0.00000  0.22301
       6     C     3.08609  3.08609  0.00000 -0.17218
       7     N     3.24171  3.24171  0.00000  0.51658
       8     C     3.08494  3.08494  0.00000 -0.16989
       9     H     0.38889  0.38889  0.00000  0.22222
      10     C     3.10839  3.10839  0.00000 -0.21678
      11     O     4.23400  4.23400  0.00000 -0.46800
      12     O     4.23419  4.23419  0.00000 -0.46839
      13     H     0.36454  0.36454  0.00000  0.27092
      14     H     0.38849  0.38849  0.00000  0.22301

   Total alpha = 32.00000, Total beta = 32.00000, Total charge =  0.00000
