                              Psi4 1.0.54 Driver

  ==> Input File <==

--------------------------------------------------------------------------
set {
	reference rhf
	basis cc-pvtz
}

set_num_threads( 4 )
memory 2 gb

molecule MOL {
0 1

H	 4.116047	 3.648496	 -1.816917
C	 4.078241	 2.639368	 -1.423093
C	 2.779391	 2.392449	 -0.663262
H	 4.175786	 1.954488	 -2.258343
H	 4.941969	 2.502489	 -0.780414
C	 2.695530	 0.982024	 -0.083918
H	 1.939207	 2.561116	 -1.327024
H	 2.692261	 3.116649	 0.143439
C	 1.408527	 0.707910	 0.687685
H	 2.789393	 0.256237	 -0.882199
H	 3.535068	 0.824418	 0.586992
C	 0.166485	 0.574257	 -0.177158
H	 1.498292	 -0.227787	 1.233742
H	 1.236028	 1.471847	 1.440123
C	 -1.180025	 0.697761	 0.509157
O	 0.238733	 0.360176	 -1.344302
C	 -2.285431	 -0.137488	 -0.145671
H	 -1.447360	 1.745713	 0.496200
H	 -1.065514	 0.394096	 1.546399
C	 -3.646545	 0.082747	 0.508954
H	 -2.348635	 0.118247	 -1.199806
H	 -2.034895	 -1.192387	 -0.096473
C	 -4.757412	 -0.737227	 -0.138149
H	 -3.900211	 1.137405	 0.459735
H	 -3.580878	 -0.166775	 1.564416
H	 -4.867876	 -0.486707	 -1.187777
H	 -4.549650	 -1.800049	 -0.072540
H	 -5.709585	 -0.556397	 0.346597

	symmetry c1
}
set optking {
	frozen_dihedral = ("
		16 12 15 17
	")
}

ee,wfn = optimize('scf', return_wfn=True)
oeprop( wfn, 'DIPOLE', 'QUADRUPOLE', 'MULLIKEN_CHARGES')
f=open( 'psi4out.xyz', 'w' )
f.write( "28  " )
f.write( str(ee) + "\n" )
f.write( MOL.save_string_xyz() )
f.close()
--------------------------------------------------------------------------

    Molecular point group: c1
  Charge       = 0
  Multiplicity = 1
  Basis Set: CC-PVTZ
  Basis Set:
  @DF-RHF Final Energy:  -426.32105193887480
    Total Energy =                       -426.3210519388751436
    Molecular point group: c1
  Basis Set: CC-PVTZ
  Basis Set:
  Basis Set: CC-PVTZ
  Basis Set:
  @DF-RHF Final Energy:  -426.32030219494618
    Total Energy =                       -426.3203021949456115
  Basis Set: CC-PVTZ
  Basis Set:
  Basis Set: CC-PVTZ
  Basis Set:
  @DF-RHF Final Energy:  -426.32136559079061
    Total Energy =                       -426.3213655907909470
  Basis Set: CC-PVTZ
  Basis Set:
  Basis Set: CC-PVTZ
  Basis Set:
  @DF-RHF Final Energy:  -426.32156823102468
    Total Energy =                       -426.3215682310254806
  Basis Set: CC-PVTZ
  Basis Set:
  Basis Set: CC-PVTZ
  Basis Set:
  @DF-RHF Final Energy:  -426.32160744246255
    Total Energy =                       -426.3216074424623230
  Basis Set: CC-PVTZ
  Basis Set:
  Basis Set: CC-PVTZ
  Basis Set:
  @DF-RHF Final Energy:  -426.32160650274920
    Total Energy =                       -426.3216065027493187
  Basis Set: CC-PVTZ
  Basis Set:
  Basis Set: CC-PVTZ
  Basis Set:
  @DF-RHF Final Energy:  -426.32161468705567
    Total Energy =                       -426.3216146870554439
  Basis Set: CC-PVTZ
  Basis Set:
  Charge       = 0
  Multiplicity = 1
  Basis Set: CC-PVTZ
  Basis Set:

    Orbital Energies (a.u.)
    -----------------------

    Doubly Occupied:

       1A    -20.537091     2A    -11.318045     3A    -11.229469
       4A    -11.228601     5A    -11.217866     6A    -11.216535
       7A    -11.214943     8A    -11.210833     9A    -11.208489
      10A    -11.204065    11A     -1.397998    12A     -1.090149
      13A     -1.078955    14A     -1.023362    15A     -0.991779
      16A     -0.911435    17A     -0.866718    18A     -0.806898
      19A     -0.792622    20A     -0.725261    21A     -0.671075
      22A     -0.654107    23A     -0.628394    24A     -0.620075
      25A     -0.610217    26A     -0.586155    27A     -0.579433
      28A     -0.573059    29A     -0.538924    30A     -0.528634
      31A     -0.522287    32A     -0.509891    33A     -0.493239
      34A     -0.480728    35A     -0.475416    36A     -0.472061
      37A     -0.469238    38A     -0.466759    39A     -0.457769
      40A     -0.395274

  @DF-RHF Final Energy:  -426.32161496737285

   => Energetics <=

    Nuclear Repulsion Energy =            529.7978705890412812
    One-Electron Energy =               -1628.2312679940400812
    Two-Electron Energy =                 672.1117824376260614
    DFT Exchange-Correlation Energy =       0.0000000000000000
    Empirical Dispersion Energy =           0.0000000000000000
    PCM Polarization Energy =               0.0000000000000000
    EFP Energy =                            0.0000000000000000
    Total Energy =                       -426.3216149673726250
    Molecular point group: c1
  Basis Set: CC-PVTZ
  Basis Set:

  -Total Gradient:
     Atom            X                  Y                   Z
    ------   -----------------  -----------------  -----------------
       1        0.000000771560    -0.000007978976     0.000003453169
       2       -0.000002027745     0.000000905633    -0.000013312523
       3        0.000025849187     0.000010695865     0.000027450716
       4        0.000001004622     0.000005842787     0.000007210961
       5       -0.000012117168     0.000001486297    -0.000004376298
       6        0.000016007845    -0.000011161232    -0.000002895461
       7       -0.000000315570     0.000000644004    -0.000001777757
       8       -0.000000709237    -0.000005757954    -0.000009498340
       9       -0.000019485316     0.000023059741     0.000014694824
      10       -0.000003383771     0.000011573189     0.000014603452
      11       -0.000004876527     0.000004296478    -0.000007154643
      12        0.000163812584    -0.002240274197     0.000659331729
      13       -0.000004652584     0.000002795107    -0.000008285274
      14        0.000013895987    -0.000018870537    -0.000007916516
      15       -0.000394363447     0.001608974458    -0.001011745359
      16       -0.000070765395     0.001358445750    -0.000271319558
      17        0.000254572585    -0.000750678779     0.000616860902
      18        0.000011185140    -0.000006111278    -0.000002267260
      19        0.000007198654     0.000007242659    -0.000007735691
      20        0.000003909311     0.000005372363     0.000001429519
      21       -0.000011275299    -0.000009040451     0.000039865138
      22       -0.000019147535     0.000030256265    -0.000003235414
      23        0.000001369048    -0.000017862156    -0.000014393419
      24        0.000021714097    -0.000027231655    -0.000001130074
      25        0.000010777191     0.000010113243    -0.000030665005
      26       -0.000000308203    -0.000008902101     0.000030543569
      27       -0.000014336056     0.000028303174    -0.000004900607
      28        0.000025696051    -0.000006137696    -0.000012834781

  **** Optimization is complete! (in 8 steps) ****
    Final optimized geometry and variables:
    Molecular point group: c1

    Geometry (in Angstrom), charge = 0, multiplicity = 1:

    H            4.217842368352     2.741188218583    -1.815340817063
    C            4.160646930094     1.777886124321    -1.321787653275
    C            2.845251302734     1.623085964275    -0.566219788905
    H            4.265034841041     1.010583684867    -2.081095178713
    H            5.010816010626     1.698382146858    -0.651949300098
    C            2.734323486164     0.280540249737     0.153216735889
    H            2.019208361576     1.730415210361    -1.259397830964
    H            2.752096323268     2.426790611645     0.160493007944
    C            1.428476772872     0.097331109547     0.917961938011
    H            2.839071378019    -0.524429511711    -0.564125291603
    H            3.557624127116     0.186559177094     0.855392061095
    C            0.203433968438    -0.141832842715     0.056947188023
    H            1.495297059344    -0.763046757115     1.581087501383
    H            1.231939531454     0.946754806361     1.566968472777
    C           -1.137642908355    -0.024177213213     0.757178253773
    O            0.281321327876    -0.394852779416    -1.101360896796
    C           -2.230766463981    -0.899707635631     0.155321193069
    H           -1.417011760114     1.026259015987     0.697227357136
    H           -1.011648601431    -0.239568953295     1.813419145127
    C           -3.579461291253    -0.716769311056     0.844977921523
    H           -2.322137304001    -0.677364821880    -0.900256483305
    H           -1.928258991069    -1.940889396100     0.220744670130
    C           -4.672747142448    -1.599034244605     0.252025502224
    H           -3.880521353011     0.325113597275     0.774663341612
    H           -3.478595570588    -0.933199146461     1.905317405839
    H           -4.821212744942    -1.382289979944    -0.800253288696
    H           -4.417155504331    -2.649711452968     0.338690842611
    H           -5.618489352492    -1.445793678101     0.758784431369

  Mulliken Charges: (a.u.)
   Center  Symbol    Alpha    Beta     Spin     Total
       1     H     0.44871  0.44871  0.00000  0.10258
       2     C     3.15157  3.15157  0.00000 -0.30314
       3     C     3.08442  3.08442  0.00000 -0.16883
       4     H     0.45188  0.45188  0.00000  0.09625
       5     H     0.45696  0.45696  0.00000  0.08608
       6     C     3.08727  3.08727  0.00000 -0.17455
       7     H     0.44542  0.44542  0.00000  0.10915
       8     H     0.45859  0.45859  0.00000  0.08283
       9     C     3.12204  3.12204  0.00000 -0.24409
      10     H     0.44510  0.44510  0.00000  0.10980
      11     H     0.44759  0.44759  0.00000  0.10481
      12     C     2.87201  2.87201  0.00000  0.25598
      13     H     0.43557  0.43557  0.00000  0.12886
      14     H     0.44256  0.44256  0.00000  0.11488
      15     C     3.10348  3.10348  0.00000 -0.20696
      16     O     4.17877  4.17877  0.00000 -0.35754
      17     C     3.08325  3.08325  0.00000 -0.16649
      18     H     0.44496  0.44496  0.00000  0.11008
      19     H     0.44439  0.44439  0.00000  0.11122
      20     C     3.08629  3.08629  0.00000 -0.17258
      21     H     0.43985  0.43985  0.00000  0.12030
      22     H     0.45269  0.45269  0.00000  0.09463
      23     C     3.14963  3.14963  0.00000 -0.29926
      24     H     0.45464  0.45464  0.00000  0.09072
      25     H     0.45593  0.45593  0.00000  0.08814
      26     H     0.45323  0.45323  0.00000  0.09354
      27     H     0.45462  0.45462  0.00000  0.09075
      28     H     0.44858  0.44858  0.00000  0.10283

   Total alpha = 40.00000, Total beta = 40.00000, Total charge = -0.00000

*** Psi4 exiting successfully. Buy a developer a beer!
