  ==> Input File <==

--------------------------------------------------------------------------
set {
	reference rhf
	basis cc-pvtz
}

set_num_threads( 4 )
memory 2 gb

molecule MOL {
0 1

O	 1.481484	 0.360811	 0.996230
C	 0.860843	 0.273204	 -0.013120
C	 -0.623368	 -0.117453	 -0.005652
C	 1.541948	 0.544291	 -1.340008
C	 -0.892588	 -1.253841	 -1.002900
C	 -1.473463	 1.100646	 -0.372896
C	 -0.981836	 -0.579025	 1.418506
H	 -0.609333	 -0.970024	 -2.010649
H	 -1.950451	 -1.487353	 -1.013175
H	 -0.360848	 -2.161259	 -0.746463
H	 -1.232203	 1.461623	 -1.364827
H	 -2.524364	 0.834451	 -0.354500
H	 -1.312381	 1.914833	 0.318657
H	 -2.035706	 -0.826342	 1.468082
H	 -0.425078	 -1.458934	 1.716857
H	 -0.788494	 0.205047	 2.140903
H	 1.274780	 1.538386	 -1.680830
H	 2.610637	 0.502865	 -1.196287
H	 1.245037	 -0.154909	 -2.109550

	symmetry c1
}
set optking {
	frozen_dihedral = ("
		1 2 3 5
	")
}

ee = optimize('scf')
oeprop('DIPOLE', 'QUADRUPOLE', 'MULLIKEN_CHARGES')
f=open( 'psi4out.xyz', 'w' )
f.write( "19  " )
f.write( str(ee) + "\n" )
f.write( MOL.save_string_xyz() )
f.close()
--------------------------------------------------------------------------

    Molecular point group: c1
  Charge       = 0
  Multiplicity = 1
  Basis Set: CC-PVTZ
  Basis Set:
  @DF-RHF Final Energy:  -309.17202712943947
    Total Energy =                       -309.1720271294395843
    Molecular point group: c1
  Basis Set: CC-PVTZ
  Basis Set:
  Basis Set: CC-PVTZ
  Basis Set:
  @DF-RHF Final Energy:  -309.17199201646184
    Total Energy =                       -309.1719920164620135
  Basis Set: CC-PVTZ
  Basis Set:
  Basis Set: CC-PVTZ
  Basis Set:
  @DF-RHF Final Energy:  -309.17226522483020
    Total Energy =                       -309.1722652248301983
  Basis Set: CC-PVTZ
  Basis Set:
  Basis Set: CC-PVTZ
  Basis Set:
  @DF-RHF Final Energy:  -309.17346314136211
    Total Energy =                       -309.1734631413619354
  Basis Set: CC-PVTZ
  Basis Set:
  @DF-RHF Final Energy:  -309.17356908108962
    Total Energy =                       -309.1735690810894539
  @DF-RHF Final Energy:  -309.17362394228564
    Total Energy =                       -309.1736239422858716
  @DF-RHF Final Energy:  -309.17369445117737
    Total Energy =                       -309.1736944511771981
  @DF-RHF Final Energy:  -309.17371792709326
    Total Energy =                       -309.1737179270933211
  @DF-RHF Final Energy:  -309.17377221307703
    Total Energy =                       -309.1737722130773136
  @DF-RHF Final Energy:  -309.17393437584485
    Total Energy =                       -309.1739343758448513
  @DF-RHF Final Energy:  -309.17384379032694
    Total Energy =                       -309.1738437903264867
  @DF-RHF Final Energy:  -309.17292654787286
    Total Energy =                       -309.1729265478732032
  @DF-RHF Final Energy:  -309.17378972290715
    Total Energy =                       -309.1737897229071450
  @DF-RHF Final Energy:  -309.17402371244088
    Total Energy =                       -309.1740237124409987
  @DF-RHF Final Energy:  -309.17422217113545
    Total Energy =                       -309.1742221711360230
  Basis Set: CC-PVTZ
  Basis Set:
  @DF-RHF Final Energy:  -309.17422420368354
    Total Energy =                       -309.1742242036833090
  Basis Set: CC-PVTZ
  Basis Set:
  Basis Set: CC-PVTZ
  Basis Set:
  @DF-RHF Final Energy:  -309.17424168276591
    Total Energy =                       -309.1742416827660236
  Basis Set: CC-PVTZ
  Basis Set:
  Basis Set: CC-PVTZ
  Basis Set:
  @DF-RHF Final Energy:  -309.17424389266478
    Total Energy =                       -309.1742438926645491
  Basis Set: CC-PVTZ
  Basis Set:
  Charge       = 0
  Multiplicity = 1
  Basis Set: CC-PVTZ
  Basis Set:

    Orbital Energies (a.u.)
    -----------------------

    Doubly Occupied:

       1A    -20.537403     2A    -11.317733     3A    -11.245712
       4A    -11.225042     5A    -11.222550     6A    -11.222305
       7A    -11.206058     8A     -1.398480     9A     -1.110963
      10A     -1.002852    11A     -0.948179    12A     -0.935553
      13A     -0.835974    14A     -0.705409    15A     -0.666711
      16A     -0.633899    17A     -0.621305    18A     -0.600244
      19A     -0.593543    20A     -0.565582    21A     -0.546726
      22A     -0.544731    23A     -0.523842    24A     -0.514946
      25A     -0.501443    26A     -0.472371    27A     -0.469205
      28A     -0.394932

  @DF-RHF Final Energy:  -309.17424466311729

   => Energetics <=

    Nuclear Repulsion Energy =            326.8900405608430901
    One-Electron Energy =               -1067.0011791530364462
    Two-Electron Energy =                 430.9368939290761773
    DFT Exchange-Correlation Energy =       0.0000000000000000
    Empirical Dispersion Energy =           0.0000000000000000
    PCM Polarization Energy =               0.0000000000000000
    EFP Energy =                            0.0000000000000000
    Total Energy =                       -309.1742446631171788
    Molecular point group: c1
  Basis Set: CC-PVTZ
  Basis Set:

  -Total Gradient:
     Atom            X                  Y                   Z
    ------   -----------------  -----------------  -----------------
       1        0.000126110318    -0.000550512784    -0.000060575258
       2       -0.000163129810     0.000717446607     0.000168016363
       3       -0.000021286521     0.000134391347    -0.000365756586
       4        0.000015302721     0.000015294400     0.000010938367
       5        0.000060531803    -0.000276655050     0.000257558511
       6        0.000009960823     0.000001733483     0.000013049657
       7       -0.000020294090     0.000003155486    -0.000000545196
       8       -0.000000535502     0.000001939044     0.000003677194
       9        0.000007410187    -0.000006044629    -0.000004123486
      10       -0.000003103080    -0.000007014018    -0.000006540878
      11        0.000004091701    -0.000002813500     0.000001683513
      12       -0.000008232632     0.000002119100     0.000001974905
      13       -0.000001972824     0.000003863522    -0.000003275793
      14       -0.000000688366    -0.000006413054     0.000000378156
      15        0.000002809555     0.000000632645    -0.000001939693
      16        0.000003697355     0.000004638205    -0.000006687917
      17       -0.000006513060    -0.000006829817     0.000001976265
      18       -0.000004161494    -0.000011358988    -0.000004841471
      19        0.000000002914    -0.000017571997    -0.000004966655

  **** Optimization is complete! (in 19 steps) ****
    Final optimized geometry and variables:
    Molecular point group: c1

    Geometry (in Angstrom), charge = 0, multiplicity = 1:

    O            1.522112079564     0.231179682274     1.032915363512
    C            0.880435188727     0.196662117298     0.033603412150
    C           -0.614666498128    -0.148348370397     0.054085447294
    C            1.550306742174     0.481550641436    -1.296733124808
    C           -0.919091358496    -1.242046933974    -0.981091717576
    C           -1.414106208698     1.123792845966    -0.278531491797
    C           -1.004929201574    -0.640510491465     1.449233041326
    H           -0.713071376533    -0.918251297297    -1.993520453649
    H           -1.967323537371    -1.511220253316    -0.931022531068
    H           -0.339517574116    -2.138246456945    -0.788561298834
    H           -1.211634656048     1.488350526626    -1.277741284511
    H           -2.475396486747     0.914133277568    -0.216230129262
    H           -1.190784453611     1.918682633197     0.423578057622
    H           -2.061777434681    -0.881760601828     1.471233598576
    H           -0.447520877678    -1.527196332138     1.722160490644
    H           -0.808495527316     0.111517057799     2.200149630086
    H            0.920426073338     1.040041314606    -1.974482601549
    H            2.467160542175     1.021006622111    -1.114855460756
    H            1.793716541859    -0.460570449507    -1.775593251558

  Mulliken Charges: (a.u.)
   Center  Symbol    Alpha    Beta     Spin     Total
       1     O     4.17483  4.17483  0.00000 -0.34966
       2     C     2.85389  2.85389  0.00000  0.29222
       3     C     3.00914  3.00914  0.00000 -0.01829
       4     C     3.16271  3.16271  0.00000 -0.32541
       5     C     3.16356  3.16356  0.00000 -0.32712
       6     C     3.15989  3.15989  0.00000 -0.31978
       7     C     3.14973  3.14973  0.00000 -0.29946
       8     H     0.44590  0.44590  0.00000  0.10819
       9     H     0.44298  0.44298  0.00000  0.11403
      10     H     0.44272  0.44272  0.00000  0.11456
      11     H     0.44583  0.44583  0.00000  0.10835
      12     H     0.44489  0.44489  0.00000  0.11023
      13     H     0.44196  0.44196  0.00000  0.11608
      14     H     0.45208  0.45208  0.00000  0.09584
      15     H     0.44539  0.44539  0.00000  0.10922
      16     H     0.44073  0.44073  0.00000  0.11854
      17     H     0.44681  0.44681  0.00000  0.10638
      18     H     0.43180  0.43180  0.00000  0.13640
      19     H     0.44515  0.44515  0.00000  0.10969

   Total alpha = 28.00000, Total beta = 28.00000, Total charge = -0.00000
