                              Psi4 1.0.54 Driver

  ==> Input File <==

--------------------------------------------------------------------------
set {
	reference rhf
	basis cc-pvtz
}

set_num_threads( 4 )
memory 2 gb

molecule MOL {
0 1

O	 -1.274578	 0.646355	 -0.937938
C	 -1.081510	 0.147522	 0.122720
C	 0.327029	 -0.064006	 0.641890
C	 -2.220332	 -0.317591	 0.998519
C	 1.349460	 -0.017068	 -0.500215
H	 0.399029	 -1.014606	 1.159950
H	 0.538021	 0.726928	 1.350471
C	 2.779782	 -0.209014	 -0.009215
H	 1.115007	 -0.782959	 -1.233891
H	 1.259071	 0.936707	 -1.006644
H	 3.481860	 -0.160270	 -0.833072
H	 2.903471	 -1.171535	 0.475559
H	 3.052569	 0.559584	 0.705428
H	 -2.056581	 -1.336960	 1.329923
H	 -3.154163	 -0.248234	 0.462193
H	 -2.265097	 0.304678	 1.886568

	symmetry c1
}
set optking {
	frozen_dihedral = ("
		4 2 3 5
	")
}

ee,wfn = optimize('scf', return_wfn=True)
oeprop( wfn, 'DIPOLE', 'QUADRUPOLE', 'MULLIKEN_CHARGES')
f=open( 'psi4out.xyz', 'w' )
f.write( "16  " )
f.write( str(ee) + "\n" )
f.write( MOL.save_string_xyz() )
f.close()
--------------------------------------------------------------------------

    Molecular point group: c1
  Charge       = 0
  Multiplicity = 1
  Basis Set: CC-PVTZ
  Basis Set:
  @DF-RHF Final Energy:  -270.12957633819730
    Total Energy =                       -270.1295763381974666
    Molecular point group: c1
  Basis Set: CC-PVTZ
  Basis Set:
  Basis Set: CC-PVTZ
  Basis Set:
  @DF-RHF Final Energy:  -270.00106187150215
    Total Energy =                       -270.0010618715020883
  Basis Set: CC-PVTZ
  Basis Set:
  Basis Set: CC-PVTZ
  Basis Set:
  @DF-RHF Final Energy:  -270.10469033667465
    Total Energy =                       -270.1046903366744800
  Basis Set: CC-PVTZ
  Basis Set:
  Basis Set: CC-PVTZ
  Basis Set:
  @DF-RHF Final Energy:  -270.12927850898996
    Total Energy =                       -270.1292785089896142
  Basis Set: CC-PVTZ
  Basis Set:
  @DF-RHF Final Energy:  -270.12569885629966
    Total Energy =                       -270.1256988562996639
  @DF-RHF Final Energy:  -270.12980510294909
    Total Energy =                       -270.1298051029492058
  @DF-RHF Final Energy:  -270.13067359840181
    Total Energy =                       -270.1306735984020975
  @DF-RHF Final Energy:  -270.13077655215295
    Total Energy =                       -270.1307765521534066
  @DF-RHF Final Energy:  -270.13081146285697
    Total Energy =                       -270.1308114628569115
  @DF-RHF Final Energy:  -270.13083591451897
    Total Energy =                       -270.1308359145186841
  Basis Set: CC-PVTZ
  Basis Set:
  @DF-RHF Final Energy:  -270.13085530022988
    Total Energy =                       -270.1308553002295980
  Basis Set: CC-PVTZ
  Basis Set:
  Basis Set: CC-PVTZ
  Basis Set:
  @DF-RHF Final Energy:  -270.13086776770456
    Total Energy =                       -270.1308677677047854
  Basis Set: CC-PVTZ
  Basis Set:
  Basis Set: CC-PVTZ
  Basis Set:
  @DF-RHF Final Energy:  -270.13087334631780
    Total Energy =                       -270.1308733463176850
  Basis Set: CC-PVTZ
  Basis Set:
  Charge       = 0
  Multiplicity = 1
  Basis Set: CC-PVTZ
  Basis Set:

    Orbital Energies (a.u.)
    -----------------------

    Doubly Occupied:

       1A    -20.538658     2A    -11.321106     3A    -11.230799
       4A    -11.227349     5A    -11.219038     6A    -11.212445
       7A     -1.399084     8A     -1.078831     9A     -1.016867
      10A     -0.947976    11A     -0.825508    12A     -0.733358
      13A     -0.657654    14A     -0.651263    15A     -0.626458
      16A     -0.600294    17A     -0.568331    18A     -0.561200
      19A     -0.546833    20A     -0.503935    21A     -0.494684
      22A     -0.483649    23A     -0.477259    24A     -0.402705

  @DF-RHF Final Energy:  -270.13087452813534

   => Energetics <=

    Nuclear Repulsion Energy =            237.2221183271143730
    One-Electron Energy =                -836.0554152724494088
    Two-Electron Energy =                 328.7024224171993865
    DFT Exchange-Correlation Energy =       0.0000000000000000
    Empirical Dispersion Energy =           0.0000000000000000
    PCM Polarization Energy =               0.0000000000000000
    EFP Energy =                            0.0000000000000000
    Total Energy =                       -270.1308745281356778
    Molecular point group: c1
  Basis Set: CC-PVTZ
  Basis Set:

  -Total Gradient:
     Atom            X                  Y                   Z
    ------   -----------------  -----------------  -----------------
       1        0.000021166794    -0.000006097420    -0.000001777106
       2        0.000133790339     0.000660877805     0.000719814454
       3        0.000362979723     0.000773738236     0.000173169841
       4       -0.000193176761    -0.000680865928    -0.000594020724
       5       -0.000307770146    -0.000757080856    -0.000305606708
       6       -0.000008179517     0.000005011149    -0.000002688942
       7        0.000000382271     0.000009928225     0.000005458102
       8       -0.000006296341    -0.000005063905    -0.000006329081
       9        0.000004357439    -0.000003694260    -0.000001008726
      10       -0.000001651985     0.000005728396    -0.000003640930
      11        0.000000472218    -0.000001496982    -0.000001050102
      12        0.000001864061    -0.000003904636     0.000002849141
      13       -0.000001149879     0.000003209402    -0.000000823325
      14       -0.000005073765    -0.000004235272     0.000001800427
      15       -0.000003681253     0.000000688745     0.000004046573
      16        0.000001966803     0.000003257302     0.000009807106

  **** Optimization is complete! (in 14 steps) ****
    Final optimized geometry and variables:
    Molecular point group: c1

    Geometry (in Angstrom), charge = 0, multiplicity = 1:

    O           -1.111469686298     1.161778977177    -0.728516297391
    C           -1.009341757255     0.371127946565     0.151503746864
    C            0.307977731011    -0.302235375962     0.482047533503
    C           -2.194877357960    -0.020300355574     1.002436553369
    C            1.330614276875    -0.266244618658    -0.646364682079
    H            0.109502141758    -1.325078242934     0.789496598379
    H            0.698013404969     0.199003487825     1.366535911964
    C            2.648800146085    -0.926962696568    -0.257859315886
    H            0.914955136007    -0.761258876907    -1.517393689385
    H            1.501828147188     0.761729832955    -0.937639050535
    H            3.355262720610    -0.893319489433    -1.078632249869
    H            2.506132413432    -1.968425728649     0.011815142770
    H            3.104701438729    -0.426636267651     0.590298568564
    H           -2.486244220593    -1.036583212772     0.757500405571
    H           -3.023225442912     0.644569957672     0.811463053645
    H           -1.938251051225    -0.003541003314     2.055650990275

  Mulliken Charges: (a.u.)
   Center  Symbol    Alpha    Beta     Spin     Total
       1     O     4.17201  4.17201  0.00000 -0.34402
       2     C     2.86143  2.86143  0.00000  0.27715
       3     C     3.10688  3.10688  0.00000 -0.21377
       4     C     3.15214  3.15214  0.00000 -0.30427
       5     C     3.08046  3.08046  0.00000 -0.16092
       6     H     0.44652  0.44652  0.00000  0.10696
       7     H     0.44487  0.44487  0.00000  0.11027
       8     C     3.14987  3.14987  0.00000 -0.29974
       9     H     0.45049  0.45049  0.00000  0.09902
      10     H     0.44183  0.44183  0.00000  0.11633
      11     H     0.44578  0.44578  0.00000  0.10844
      12     H     0.45684  0.45684  0.00000  0.08632
      13     H     0.45554  0.45554  0.00000  0.08892
      14     H     0.44879  0.44879  0.00000  0.10242
      15     H     0.43593  0.43593  0.00000  0.12813
      16     H     0.45062  0.45062  0.00000  0.09876

   Total alpha = 24.00000, Total beta = 24.00000, Total charge = -0.00000

*** Psi4 exiting successfully. Buy a developer a beer!
