  ==> Input File <==

--------------------------------------------------------------------------
set {
	reference rhf
	basis 6-31G*
}

set_num_threads( 4 )
memory 2 gb

molecule MOL {
0 1

O	 1.846825	 1.296220	 0.000415
C	 1.705091	 0.115954	 0.001797
C	 0.381791	 -0.609817	 0.001258
O	 2.721346	 -0.737485	 -0.000216
C	 -0.823008	 0.326187	 0.001381
H	 0.371250	 -1.265087	 -0.865474
H	 0.370908	 -1.265746	 0.867490
C	 -2.006778	 -0.251587	 0.778508
H	 -1.118094	 0.529318	 -1.023241
H	 -0.533348	 1.281896	 0.426853
C	 -3.224521	 0.674085	 0.788149
H	 -2.290160	 -1.211511	 0.349279
H	 -1.703854	 -0.455335	 1.804474
C	 -4.406566	 0.096789	 1.565807
H	 -3.529966	 0.876539	 -0.235988
H	 -2.943259	 1.633113	 1.217444
H	 -4.733778	 -0.847057	 1.138840
H	 -5.253549	 0.775718	 1.554564
H	 -4.142231	 -0.084910	 2.603797
C	 4.024888	 -0.184556	 -0.001949
H	 4.179030	 0.422472	 -0.882452
H	 4.701782	 -1.024608	 -0.003642
H	 4.181981	 0.421185	 0.878906

	symmetry c1
}
set optking {
	frozen_dihedral = ("
		9 5 3 6
	")
}

ee = optimize('scf')
oeprop('DIPOLE', 'QUADRUPOLE', 'MULLIKEN_CHARGES')
f=open( 'psi4out.xyz', 'w' )
f.write( "23  " )
f.write( str(ee) + "\n" )
f.write( MOL.save_string_xyz() )
f.close()
--------------------------------------------------------------------------

    Molecular point group: c1
  Charge       = 0
  Multiplicity = 1
  Basis Set: 6-31G*
  Basis Set:
  @DF-RHF Final Energy:  -422.97337013268321
    Total Energy =                       -422.9733701326834989
    Molecular point group: c1
  Basis Set: 6-31G*
  Basis Set:
  Basis Set: 6-31G*
  Basis Set:
  @DF-RHF Final Energy:  -422.97357254578890
    Total Energy =                       -422.9735725457885565
  Basis Set: 6-31G*
  Basis Set:
  Basis Set: 6-31G*
  Basis Set:
  @DF-RHF Final Energy:  -422.97344966051600
    Total Energy =                       -422.9734496605160530
  Basis Set: 6-31G*
  Basis Set:
  Basis Set: 6-31G*
  Basis Set:
  @DF-RHF Final Energy:  -422.97368635963147
    Total Energy =                       -422.9736863596322110
  Basis Set: 6-31G*
  Basis Set:
  Basis Set: 6-31G*
  Basis Set:
  @DF-RHF Final Energy:  -422.97369063797788
    Total Energy =                       -422.9736906379777110
  Basis Set: 6-31G*
  Basis Set:
  Basis Set: 6-31G*
  Basis Set:
  @DF-RHF Final Energy:  -422.97369197735662
    Total Energy =                       -422.9736919773566797
  Basis Set: 6-31G*
  Basis Set:
  Charge       = 0
  Multiplicity = 1
  Basis Set: 6-31G*
  Basis Set:

    Orbital Energies (a.u.)
    -----------------------

    Doubly Occupied:

       1A    -20.603592     2A    -20.545728     3A    -11.372460
       4A    -11.280840     5A    -11.235632     6A    -11.218325
       7A    -11.217335     8A    -11.215980     9A    -11.209336
      10A     -1.469444    11A     -1.362824    12A     -1.091881
      13A     -1.043046    14A     -0.986762    15A     -0.931664
      16A     -0.843707    17A     -0.794748    18A     -0.766857
      19A     -0.697895    20A     -0.682505    21A     -0.671760
      22A     -0.649089    23A     -0.610534    24A     -0.599273
      25A     -0.571739    26A     -0.557899    27A     -0.556904
      28A     -0.525468    29A     -0.522850    30A     -0.504251
      31A     -0.485504    32A     -0.468421    33A     -0.464842
      34A     -0.459277    35A     -0.456304    36A     -0.435803

  @DF-RHF Final Energy:  -422.97369228399054

   => Energetics <=

    Nuclear Repulsion Energy =            452.4670445961452288
    One-Electron Energy =               -1472.6605186018607583
    Two-Electron Energy =                 597.2197817217247575
    DFT Exchange-Correlation Energy =       0.0000000000000000
    Empirical Dispersion Energy =           0.0000000000000000
    PCM Polarization Energy =               0.0000000000000000
    EFP Energy =                            0.0000000000000000
    Total Energy =                       -422.9736922839907720
    Molecular point group: c1
  Basis Set: 6-31G*
  Basis Set:

  -Total Gradient:
     Atom            X                  Y                   Z
    ------   -----------------  -----------------  -----------------
       1       -0.000006738899    -0.000007535080    -0.000029466233
       2        0.000006123376     0.000023909497     0.000030058516
       3       -0.002911758976    -0.003733770927     0.002411367425
       4        0.000012405317    -0.000007411403     0.000006389221
       5        0.003211119508     0.004089597350    -0.000619203598
       6        0.001886886834     0.002438144514    -0.001890564756
       7       -0.000000149215     0.000006760442    -0.000019085698
       8       -0.000012855325    -0.000009997962     0.000013386165
       9       -0.002182835594    -0.002800032032     0.000096144581
      10       -0.000003309832    -0.000001566044     0.000000991415
      11       -0.000000485127    -0.000002653571    -0.000000433929
      12        0.000001238766     0.000002868499    -0.000002648026
      13        0.000000217085    -0.000002630020    -0.000000647172
      14       -0.000001732806     0.000002347479     0.000002094671
      15        0.000002342705     0.000002645904    -0.000000882462
      16       -0.000001387928    -0.000001281585     0.000001839899
      17        0.000000525017     0.000000962215    -0.000001180208
      18       -0.000000120219     0.000000229714     0.000001374975
      19       -0.000000712470    -0.000001504454     0.000001187630
      20        0.000002831536     0.000000974688     0.000002318503
      21       -0.000000921089     0.000000019886    -0.000001379691
      22       -0.000001347193    -0.000000082774    -0.000001009505
      23        0.000000664523     0.000000005661    -0.000000651724

  **** Optimization is complete! (in 7 steps) ****
    Final optimized geometry and variables:
    Molecular point group: c1

    Geometry (in Angstrom), charge = 0, multiplicity = 1:

    O            1.821356192152     1.219834414762    -0.331213122396
    C            1.657273581251     0.042546658524    -0.334107931571
    C            0.324448372993    -0.670576660649    -0.291582729211
    O            2.658524912677    -0.827812656855    -0.377259901395
    C           -0.882207816438     0.273623327225    -0.287090248200
    H            0.310427032868    -1.326859667682    -1.156313332718
    H            0.337120159245    -1.313626481128     0.583341944901
    C           -2.082788999355    -0.322258599667     0.453870379697
    H           -1.180077081207     0.476667858419    -1.311813205281
    H           -0.604501226688     1.220169554341     0.159249989340
    C           -3.316371305583     0.580815269605     0.417148008874
    H           -2.334465094042    -1.290808969522     0.023773119373
    H           -1.807836615025    -0.511903688199     1.490309037257
    C           -4.509921419513    -0.008040430203     1.168250785572
    H           -3.596646897821     0.765258439437    -0.617686055841
    H           -3.064149118871     1.549947104057     0.841786142662
    H           -4.807306506049    -0.963449140476     0.745041575588
    H           -5.368477865904     0.654747441686     1.123412085811
    H           -4.272575712364    -0.171018391152     2.215774233797
    C            3.970635153274    -0.297136931248    -0.418217149561
    H            4.106039100191     0.314004459483    -1.298936410368
    H            4.632455338533    -1.148641678831    -0.448578366026
    H            4.167369880009     0.298807527753     0.461357420221

  Mulliken Charges: (a.u.)
   Center  Symbol    Alpha    Beta     Spin     Total
       1     O     4.28526  4.28526  0.00000 -0.57052
       2     C     2.61051  2.61051  0.00000  0.77897
       3     C     3.20819  3.20819  0.00000 -0.41639
       4     O     4.30623  4.30623  0.00000 -0.61245
       5     C     3.15662  3.15662  0.00000 -0.31323
       6     H     0.39885  0.39885  0.00000  0.20229
       7     H     0.39914  0.39914  0.00000  0.20172
       8     C     3.15498  3.15498  0.00000 -0.30996
       9     H     0.41759  0.41759  0.00000  0.16483
      10     H     0.39949  0.39949  0.00000  0.20102
      11     C     3.15204  3.15204  0.00000 -0.30408
      12     H     0.42436  0.42436  0.00000  0.15127
      13     H     0.42327  0.42327  0.00000  0.15346
      14     C     3.23945  3.23945  0.00000 -0.47891
      15     H     0.42235  0.42235  0.00000  0.15529
      16     H     0.42061  0.42061  0.00000  0.15878
      17     H     0.42202  0.42202  0.00000  0.15596
      18     H     0.41861  0.41861  0.00000  0.16277
      19     H     0.42159  0.42159  0.00000  0.15683
      20     C     3.09213  3.09213  0.00000 -0.18426
      21     H     0.40904  0.40904  0.00000  0.18192
      22     H     0.40850  0.40850  0.00000  0.18300
      23     H     0.40916  0.40916  0.00000  0.18168

   Total alpha = 36.00000, Total beta = 36.00000, Total charge = -0.00000
