  ==> Input File <==

--------------------------------------------------------------------------
set {
	reference rhf
	basis cc-pvtz
}

set_num_threads( 4 )
memory 2 gb

molecule MOL {
0 1

H	 2.088042	 -0.012084	 -1.041915
O	 2.063695	 -0.083403	 -0.105237
C	 0.742924	 0.005675	 0.350750
H	 0.731380	 0.039219	 1.440080
C	 -0.064076	 -1.193495	 -0.124425
C	 -0.047832	 1.190568	 -0.194462
H	 0.194729	 -1.376165	 -1.161308
H	 0.163013	 -2.094508	 0.429933
C	 -1.533112	 -0.752002	 0.006102
H	 0.148003	 1.266545	 -1.259275
H	 0.226235	 2.136493	 0.259722
C	 -1.506634	 0.799189	 0.067162
H	 -2.124360	 -1.110499	 -0.826089
H	 -1.983103	 -1.158030	 0.903403
H	 -2.183808	 1.252169	 -0.644677
H	 -1.813926	 1.138698	 1.049457

	symmetry c1
}
set optking {
	frozen_dihedral = ("
		1 2 3 6
	")
}

ee = optimize('scf')
oeprop('DIPOLE', 'QUADRUPOLE', 'MULLIKEN_CHARGES')
f=open( 'psi4out.xyz', 'w' )
f.write( "16  " )
f.write( str(ee) + "\n" )
f.write( MOL.save_string_xyz() )
f.close()
--------------------------------------------------------------------------

    Molecular point group: c1
  Charge       = 0
  Multiplicity = 1
  Basis Set: CC-PVTZ
  Basis Set:
  @DF-RHF Final Energy:  -270.11457697215411
    Total Energy =                       -270.1145769721539978
    Molecular point group: c1
  Basis Set: CC-PVTZ
  Basis Set:
  Basis Set: CC-PVTZ
  Basis Set:
  @DF-RHF Final Energy:  -270.11618981346106
    Total Energy =                       -270.1161898134610624
  Basis Set: CC-PVTZ
  Basis Set:
  Basis Set: CC-PVTZ
  Basis Set:
  @DF-RHF Final Energy:  -270.11642877858003
    Total Energy =                       -270.1164287785804845
  Basis Set: CC-PVTZ
  Basis Set:
  Basis Set: CC-PVTZ
  Basis Set:
  @DF-RHF Final Energy:  -270.11643429974708
    Total Energy =                       -270.1164342997471408
  Basis Set: CC-PVTZ
  Basis Set:
  @DF-RHF Final Energy:  -270.11643600599234
    Total Energy =                       -270.1164360059924547
  Basis Set: CC-PVTZ
  Basis Set:
  @DF-RHF Final Energy:  -270.11643970946102
    Total Energy =                       -270.1164397094607921
  Basis Set: CC-PVTZ
  Basis Set:
  Basis Set: CC-PVTZ
  Basis Set:
  @DF-RHF Final Energy:  -270.11644480154638
    Total Energy =                       -270.1164448015464927
  Basis Set: CC-PVTZ
  Basis Set:
  Basis Set: CC-PVTZ
  Basis Set:
  @DF-RHF Final Energy:  -270.11644953343887
    Total Energy =                       -270.1164495334388675
  Basis Set: CC-PVTZ
  Basis Set:
  Charge       = 0
  Multiplicity = 1
  Basis Set: CC-PVTZ
  Basis Set:

    Orbital Energies (a.u.)
    -----------------------

    Doubly Occupied:

       1A    -20.545398     2A    -11.267686     3A    -11.217241
       4A    -11.216200     5A    -11.213876     6A    -11.210846
       7A     -1.366163     8A     -1.116538     9A     -0.969552
      10A     -0.949761    11A     -0.805731    12A     -0.783360
      13A     -0.683802    14A     -0.663585    15A     -0.610248
      16A     -0.586733    17A     -0.579203    18A     -0.550337
      19A     -0.506757    20A     -0.484504    21A     -0.473653
      22A     -0.459465    23A     -0.455840    24A     -0.414741

  @DF-RHF Final Energy:  -270.11645049145937

   => Energetics <=

    Nuclear Repulsion Energy =            255.4790397635117074
    One-Electron Energy =                -872.9285384139160442
    Two-Electron Energy =                 347.3330481589451892
    DFT Exchange-Correlation Energy =       0.0000000000000000
    Empirical Dispersion Energy =           0.0000000000000000
    PCM Polarization Energy =               0.0000000000000000
    EFP Energy =                            0.0000000000000000
    Total Energy =                       -270.1164504914592044
    Molecular point group: c1
  Basis Set: CC-PVTZ
  Basis Set:

  -Total Gradient:
     Atom            X                  Y                   Z
    ------   -----------------  -----------------  -----------------
       1        0.000059906821     0.000789941125     0.000109216980
       2       -0.000124165246    -0.001083056646    -0.000323766532
       3        0.000218314563     0.000559061040     0.000645269855
       4        0.000002259074    -0.000002437786    -0.000003658897
       5       -0.000033579255     0.000001657919     0.000015188703
       6       -0.000150081902    -0.000260945755    -0.000418711081
       7        0.000001230503    -0.000005834027    -0.000005381790
       8        0.000000774304     0.000003116880     0.000003266648
       9        0.000012515467    -0.000017437194    -0.000003989869
      10       -0.000002413883    -0.000006058269    -0.000003956764
      11       -0.000001513200     0.000002972820    -0.000008513990
      12        0.000015396074     0.000011854995    -0.000013950939
      13        0.000011646500     0.000005609329    -0.000007107940
      14       -0.000012248283    -0.000000126057    -0.000003797661
      15       -0.000011601751     0.000009836995     0.000011263753
      16        0.000013560213    -0.000008155369     0.000008629523

  **** Optimization is complete! (in 9 steps) ****
    Final optimized geometry and variables:
    Molecular point group: c1

    Geometry (in Angstrom), charge = 0, multiplicity = 1:

    H            2.176316314573     0.084129461848    -0.961087713256
    O            2.095100187867    -0.045656407186    -0.033012896679
    C            0.747246365416    -0.009705546162     0.336467530720
    H            0.748710871358     0.007699393609     1.420766324556
    C           -0.082660547626    -1.196004098062    -0.147835982321
    C           -0.037443043848     1.189682581923    -0.186075098966
    H            0.125833045571    -1.354569267614    -1.203025540401
    H            0.159354406599    -2.115323619949     0.369080832012
    C           -1.538254500234    -0.747036434147     0.051793057842
    H            0.157441771654     1.294751793100    -1.251573794158
    H            0.247884559483     2.119940693294     0.287741555613
    C           -1.504098954229     0.806848080045     0.052752492563
    H           -2.186612856694    -1.137923685572    -0.721102452251
    H           -1.923878810885    -1.113843068172     0.994934205593
    H           -2.158947981945     1.230845496856    -0.696806787924
    H           -1.839361869917     1.187557580815     1.009766833645

  Mulliken Charges: (a.u.)
   Center  Symbol    Alpha    Beta     Spin     Total
       1     H     0.39481  0.39481  0.00000  0.21038
       2     O     4.20699  4.20699  0.00000 -0.41398
       3     C     2.93399  2.93399  0.00000  0.13203
       4     H     0.44397  0.44397  0.00000  0.11206
       5     C     3.10102  3.10102  0.00000 -0.20205
       6     C     3.10474  3.10474  0.00000 -0.20948
       7     H     0.46021  0.46021  0.00000  0.07958
       8     H     0.44298  0.44298  0.00000  0.11404
       9     C     3.11267  3.11267  0.00000 -0.22533
      10     H     0.46116  0.46116  0.00000  0.07769
      11     H     0.44223  0.44223  0.00000  0.11554
      12     C     3.11153  3.11153  0.00000 -0.22305
      13     H     0.44458  0.44458  0.00000  0.11084
      14     H     0.44752  0.44752  0.00000  0.10497
      15     H     0.44399  0.44399  0.00000  0.11201
      16     H     0.44763  0.44763  0.00000  0.10475

   Total alpha = 24.00000, Total beta = 24.00000, Total charge =  0.00000
