  ==> Input File <==

--------------------------------------------------------------------------
set {
	reference rhf
	basis 6-31G*
}

set_num_threads( 4 )
memory 2 gb

molecule MOL {
0 1

H	 1.561770	 -1.833371	 -0.945370
C	 0.676867	 -2.382522	 -0.601596
C	 -0.621349	 -1.621489	 -0.681595
O	 0.783703	 -3.496849	 -0.202860
C	 -0.558097	 -0.297372	 0.091132
H	 -1.413158	 -2.259997	 -0.307659
H	 -0.821777	 -1.416450	 -1.732603
C	 -1.850991	 0.512573	 -0.019058
H	 -0.349030	 -0.503128	 1.138380
H	 0.273283	 0.300514	 -0.277917
C	 -3.096943	 -0.368295	 -0.099594
H	 -1.800724	 1.150330	 -0.898172
H	 -1.931651	 1.177355	 0.838044
H	 -3.060452	 -1.020287	 -0.967456
H	 -3.996858	 0.233488	 -0.175704
H	 -3.191959	 -0.995686	 0.782074

	symmetry c1
}
set optking {
	frozen_dihedral = ("
		9 5 8 12
	")
}

ee = optimize('scf')
oeprop('DIPOLE', 'QUADRUPOLE', 'MULLIKEN_CHARGES')
f=open( 'psi4out.xyz', 'w' )
f.write( "16  " )
f.write( str(ee) + "\n" )
f.write( MOL.save_string_xyz() )
f.close()
--------------------------------------------------------------------------

    Molecular point group: c1
  Charge       = 0
  Multiplicity = 1
  Basis Set: 6-31G*
  Basis Set:
  @DF-RHF Final Energy:  -270.01290172696963
    Total Energy =                       -270.0129017269696305
    Molecular point group: c1
  Basis Set: 6-31G*
  Basis Set:
  Basis Set: 6-31G*
  Basis Set:
  @DF-RHF Final Energy:  -270.01412763610045
    Total Energy =                       -270.0141276361005680
  Basis Set: 6-31G*
  Basis Set:
  Basis Set: 6-31G*
  Basis Set:
  @DF-RHF Final Energy:  -270.01543913828931
    Total Energy =                       -270.0154391382891390
  Basis Set: 6-31G*
  Basis Set:
  Basis Set: 6-31G*
  Basis Set:
  @DF-RHF Final Energy:  -270.01317071835967
    Total Energy =                       -270.0131707183597314
  Basis Set: 6-31G*
  Basis Set:
  @DF-RHF Final Energy:  -270.01551621944657
    Total Energy =                       -270.0155162194463401
  @DF-RHF Final Energy:  -270.01550252482252
    Total Energy =                       -270.0155025248224092
  Basis Set: 6-31G*
  Basis Set:
  @DF-RHF Final Energy:  -270.01558645170257
    Total Energy =                       -270.0155864517026885
  Basis Set: 6-31G*
  Basis Set:
  Basis Set: 6-31G*
  Basis Set:
  @DF-RHF Final Energy:  -270.01560441142044
    Total Energy =                       -270.0156044114203837
  Basis Set: 6-31G*
  Basis Set:
  Basis Set: 6-31G*
  Basis Set:
  @DF-RHF Final Energy:  -270.01560647230042
    Total Energy =                       -270.0156064723005329
  Basis Set: 6-31G*
  Basis Set:
  Charge       = 0
  Multiplicity = 1
  Basis Set: 6-31G*
  Basis Set:

    Orbital Energies (a.u.)
    -----------------------

    Doubly Occupied:

       1A    -20.562525     2A    -11.326515     3A    -11.236818
       4A    -11.235032     5A    -11.229532     6A    -11.218413
       7A     -1.402359     8A     -1.095042     9A     -1.014966
      10A     -0.915349    11A     -0.810966    12A     -0.787004
      13A     -0.678766    14A     -0.643664    15A     -0.632953
      16A     -0.598236    17A     -0.578731    18A     -0.558189
      19A     -0.538004    20A     -0.508202    21A     -0.486771
      22A     -0.478171    23A     -0.469107    24A     -0.409891

  @DF-RHF Final Energy:  -270.01560682197328

   => Energetics <=

    Nuclear Repulsion Energy =            232.1702612904009868
    One-Electron Energy =                -825.5413190799033600
    Two-Electron Energy =                 323.3554509675293502
    DFT Exchange-Correlation Energy =       0.0000000000000000
    Empirical Dispersion Energy =           0.0000000000000000
    PCM Polarization Energy =               0.0000000000000000
    EFP Energy =                            0.0000000000000000
    Total Energy =                       -270.0156068219730514
    Molecular point group: c1
  Basis Set: 6-31G*
  Basis Set:

  -Total Gradient:
     Atom            X                  Y                   Z
    ------   -----------------  -----------------  -----------------
       1        0.000002512655     0.000006621595     0.000007691824
       2        0.000001650050    -0.000012429313    -0.000019306940
       3        0.000003490798     0.000020939662     0.000025859497
       4       -0.000006134143     0.000003426196    -0.000002023909
       5       -0.003247620692    -0.004783083108     0.000263410825
       6       -0.000004574966    -0.000003759865    -0.000002298209
       7        0.000003916314    -0.000009820870    -0.000001214382
       8       -0.002107625103    -0.003851218452    -0.003680746831
       9        0.003054971406     0.004618534463     0.000356002052
      10        0.000004439109     0.000001097204     0.000002225550
      11       -0.000000950642     0.000003312957    -0.000003014853
      12        0.002295899571     0.004004042022     0.003054937432
      13       -0.000000041182     0.000005414853    -0.000000443271
      14       -0.000000947091    -0.000001928656    -0.000000162267
      15       -0.000001326814    -0.000002604738     0.000000397038
      16        0.000002340723     0.000001456062    -0.000001313556

  **** Optimization is complete! (in 10 steps) ****
    Final optimized geometry and variables:
    Molecular point group: c1

    Geometry (in Angstrom), charge = 0, multiplicity = 1:

    H            2.377243729728    -0.455271799204    -0.689816618917
    C            1.528383081295    -1.064232534375    -0.356449231678
    C            0.182643609321    -0.390541984559    -0.438800528746
    O            1.706019325112    -2.171370948398     0.036830401128
    C            0.163351125923     0.918282522765     0.360584857252
    H           -0.564665100145    -1.091805113861    -0.091123622061
    H           -0.015931485570    -0.175936597353    -1.488594296541
    C           -1.107213209825     1.771223787156     0.197880070276
    H            0.339700261958     0.720426381317     1.414827090862
    H            1.010390989829     1.527096631076     0.048742690882
    C           -2.427324254357     1.002315168393     0.181580166986
    H           -1.013623258791     2.393582528381    -0.688658137796
    H           -1.130169802866     2.476158718932     1.025417376351
    H           -2.513194345708     0.356452996369    -0.685774890195
    H           -3.265782426154     1.690857735447     0.159458960122
    H           -2.532496767463     0.383536292306     1.068308753752

  Mulliken Charges: (a.u.)
   Center  Symbol    Alpha    Beta     Spin     Total
       1     H     0.43207  0.43207  0.00000  0.13585
       2     C     2.82985  2.82985  0.00000  0.34031
       3     C     3.21013  3.21013  0.00000 -0.42026
       4     O     4.23683  4.23683  0.00000 -0.47366
       5     C     3.16738  3.16738  0.00000 -0.33477
       6     H     0.39689  0.39689  0.00000  0.20622
       7     H     0.41017  0.41017  0.00000  0.17966
       8     C     3.15281  3.15281  0.00000 -0.30562
       9     H     0.41176  0.41176  0.00000  0.17647
      10     H     0.41822  0.41822  0.00000  0.16356
      11     C     3.24391  3.24391  0.00000 -0.48782
      12     H     0.41972  0.41972  0.00000  0.16056
      13     H     0.41720  0.41720  0.00000  0.16560
      14     H     0.41863  0.41863  0.00000  0.16274
      15     H     0.41599  0.41599  0.00000  0.16801
      16     H     0.41843  0.41843  0.00000  0.16315

   Total alpha = 24.00000, Total beta = 24.00000, Total charge = -0.00000
