                              Psi4 1.0.54 Driver

  ==> Input File <==

--------------------------------------------------------------------------
set {
	reference rhf
	basis cc-pvtz
}

set_num_threads( 4 )
memory 2 gb

molecule MOL {
0 1

O	 2.868453	 1.353349	 -0.000734
C	 2.841259	 0.166180	 -0.000295
C	 1.542794	 -0.614730	 -0.000853
C	 4.113372	 -0.651103	 0.000743
C	 0.288398	 0.247429	 0.000314
H	 1.557171	 -1.273139	 -0.866508
H	 1.557484	 -1.274998	 0.863344
C	 -0.993089	 -0.581367	 -0.000217
H	 0.305153	 0.900562	 -0.864701
H	 0.305567	 0.898805	 0.866656
C	 -2.258482	 0.271340	 0.000669
H	 -1.002280	 -1.233920	 -0.870484
H	 -1.002061	 -1.235367	 0.868958
C	 -2.820780	 0.525070	 -1.395102
H	 -2.048341	 1.223913	 0.480834
H	 -3.017188	 -0.213904	 0.609793
C	 -4.085075	 1.377870	 -1.386060
H	 -2.063476	 1.011160	 -2.004320
H	 -3.032325	 -0.426531	 -1.875334
H	 -3.897864	 2.350294	 -0.942908
H	 -4.457790	 1.539040	 -2.391111
H	 -4.873939	 0.901873	 -0.813203
H	 4.145311	 -1.294584	 -0.871587
H	 4.970080	 0.004978	 -0.000091
H	 4.145223	 -1.291980	 0.874988

	symmetry c1
}
set optking {
	frozen_dihedral = ("
		15 11 8 12
	")
}

ee,wfn = optimize('scf', return_wfn=True)
oeprop( wfn, 'DIPOLE', 'QUADRUPOLE', 'MULLIKEN_CHARGES')
f=open( 'psi4out.xyz', 'w' )
f.write( "25  " )
f.write( str(ee) + "\n" )
f.write( MOL.save_string_xyz() )
f.close()
--------------------------------------------------------------------------

    Molecular point group: c1
  Charge       = 0
  Multiplicity = 1
  Basis Set: CC-PVTZ
  Basis Set:
  @DF-RHF Final Energy:  -387.27089287594833
    Total Energy =                       -387.2708928759483342
    Molecular point group: c1
  Basis Set: CC-PVTZ
  Basis Set:
  Basis Set: CC-PVTZ
  Basis Set:
  @DF-RHF Final Energy:  -387.27110905591906
    Total Energy =                       -387.2711090559191689
  Basis Set: CC-PVTZ
  Basis Set:
  Basis Set: CC-PVTZ
  Basis Set:
  @DF-RHF Final Energy:  -387.27120285331989
    Total Energy =                       -387.2712028533201192
  Basis Set: CC-PVTZ
  Basis Set:
  Basis Set: CC-PVTZ
  Basis Set:
  @DF-RHF Final Energy:  -387.27100925268377
    Total Energy =                       -387.2710092526842800
  Basis Set: CC-PVTZ
  Basis Set:
  Basis Set: CC-PVTZ
  Basis Set:
  @DF-RHF Final Energy:  -387.27121274675108
    Total Energy =                       -387.2712127467510754
  Basis Set: CC-PVTZ
  Basis Set:
  Charge       = 0
  Multiplicity = 1
  Basis Set: CC-PVTZ
  Basis Set:

    Orbital Energies (a.u.)
    -----------------------

    Doubly Occupied:

       1A    -20.538983     2A    -11.320627     3A    -11.230065
       4A    -11.226644     5A    -11.215263     6A    -11.214653
       7A    -11.212954     8A    -11.211475     9A    -11.205664
      10A     -1.399004    11A     -1.094681    12A     -1.056472
      13A     -1.014707    14A     -0.969289    15A     -0.890584
      16A     -0.822468    17A     -0.785188    18A     -0.731779
      19A     -0.654566    20A     -0.653665    21A     -0.638517
      22A     -0.620882    23A     -0.605510    24A     -0.581451
      25A     -0.566386    26A     -0.564254    27A     -0.545762
      28A     -0.526394    29A     -0.505653    30A     -0.494878
      31A     -0.488520    32A     -0.480635    33A     -0.463882
      34A     -0.456832    35A     -0.448967    36A     -0.401754

  @DF-RHF Final Energy:  -387.27121309640495

   => Energetics <=

    Nuclear Repulsion Energy =            443.8036955162043569
    One-Electron Energy =               -1404.4718008360378008
    Two-Electron Energy =                 573.3968922234282672
    DFT Exchange-Correlation Energy =       0.0000000000000000
    Empirical Dispersion Energy =           0.0000000000000000
    PCM Polarization Energy =               0.0000000000000000
    EFP Energy =                            0.0000000000000000
    Total Energy =                       -387.2712130964051767
    Molecular point group: c1
  Basis Set: CC-PVTZ
  Basis Set:

  -Total Gradient:
     Atom            X                  Y                   Z
    ------   -----------------  -----------------  -----------------
       1       -0.000022690370     0.000025384684     0.000002587011
       2        0.000002726566    -0.000023267036    -0.000007522190
       3        0.000019524830     0.000005670560    -0.000027920150
       4        0.000002317865    -0.000015810753     0.000014755476
       5       -0.000022345647    -0.000003455374     0.000033067806
       6        0.000005186292    -0.000002074167     0.000013069322
       7        0.000006258894     0.000004806269     0.000007795801
       8       -0.001559830744    -0.002334665614     0.001335993744
       9       -0.000003960781     0.000003621568    -0.000000496729
      10        0.000003930648     0.000004970496    -0.000006952565
      11       -0.000705088650    -0.000926132383     0.002884403880
      12        0.001434730849     0.002109921397    -0.001590000547
      13        0.000002877174     0.000008870872    -0.000005456682
      14        0.000008574416    -0.000022043076     0.000024828657
      15        0.000839490085     0.001156958353    -0.002651423506
      16        0.000011864886     0.000002099101    -0.000008689885
      17       -0.000017610600     0.000024585541    -0.000004755225
      18       -0.000006970497    -0.000007778589     0.000000496522
      19        0.000005505770    -0.000001580547    -0.000002534114
      20       -0.000007568284    -0.000007329263     0.000003665259
      21        0.000002824673     0.000001971972     0.000004165246
      22        0.000004972697     0.000003583697    -0.000008707092
      23        0.000003357151     0.000000775044    -0.000004006356
      24       -0.000015311398     0.000002850814    -0.000000732043
      25        0.000007234170    -0.000011933564    -0.000005631640

  **** Optimization is complete! (in 6 steps) ****
    Final optimized geometry and variables:
    Molecular point group: c1

    Geometry (in Angstrom), charge = 0, multiplicity = 1:

    O            2.684845613462     1.116104685057     0.326340727874
    C            2.665419630815    -0.071020328051     0.304991706048
    C            1.372121185403    -0.860591322071     0.307827840257
    C            3.942688507474    -0.879666981611     0.272276195365
    C            0.112669260837    -0.007281103345     0.351453414154
    H            1.376380856138    -1.497554510133    -0.573821729851
    H            1.405460678597    -1.541822999049     1.155182802354
    C           -1.165109892478    -0.846556168244     0.362482017651
    H            0.110438946456     0.664566844106    -0.499102771642
    H            0.142026463309     0.625015850816     1.231271964720
    C           -2.444266120434     0.003014814245     0.330320041457
    H           -1.151544645776    -1.505160709356    -0.502352131292
    H           -1.162896458199    -1.482918467086     1.241912036092
    C           -2.960855770270     0.270625650086    -1.083422724001
    H           -2.251293581498     0.959993813112     0.807256425066
    H           -3.228212568051    -0.481927902975     0.902950439865
    C           -4.186966704591     1.176726075382    -1.110340219482
    H           -2.171209160332     0.718670609490    -1.680023680557
    H           -3.202207566180    -0.675975374329    -1.559176036253
    H           -3.966155316671     2.147045935219    -0.678368911179
    H           -4.534546328487     1.337897103491    -2.124364580352
    H           -5.005742970823     0.743580065504    -0.545127776494
    H            3.965150216987    -1.507734542336    -0.611501521560
    H            4.795113552467    -0.217994190816     0.269601420577
    H            3.992152161881    -1.535260248609     1.134705033334

  Mulliken Charges: (a.u.)
   Center  Symbol    Alpha    Beta     Spin     Total
       1     O     4.17073  4.17073  0.00000 -0.34145
       2     C     2.86198  2.86198  0.00000  0.27604
       3     C     3.11554  3.11554  0.00000 -0.23107
       4     C     3.15115  3.15115  0.00000 -0.30229
       5     C     3.08188  3.08188  0.00000 -0.16377
       6     H     0.44498  0.44498  0.00000  0.11004
       7     H     0.44511  0.44511  0.00000  0.10978
       8     C     3.10079  3.10079  0.00000 -0.20158
       9     H     0.44535  0.44535  0.00000  0.10931
      10     H     0.44606  0.44606  0.00000  0.10788
      11     C     3.09645  3.09645  0.00000 -0.19291
      12     H     0.45645  0.45645  0.00000  0.08710
      13     H     0.44727  0.44727  0.00000  0.10546
      14     C     3.08136  3.08136  0.00000 -0.16271
      15     H     0.45358  0.45358  0.00000  0.09284
      16     H     0.44712  0.44712  0.00000  0.10576
      17     C     3.15081  3.15081  0.00000 -0.30162
      18     H     0.45407  0.45407  0.00000  0.09186
      19     H     0.45541  0.45541  0.00000  0.08918
      20     H     0.45385  0.45385  0.00000  0.09230
      21     H     0.44859  0.44859  0.00000  0.10282
      22     H     0.45537  0.45537  0.00000  0.08926
      23     H     0.45042  0.45042  0.00000  0.09915
      24     H     0.43537  0.43537  0.00000  0.12926
      25     H     0.45032  0.45032  0.00000  0.09937

   Total alpha = 36.00000, Total beta = 36.00000, Total charge = -0.00000

*** Psi4 exiting successfully. Buy a developer a beer!
