                              Psi4 1.0.54 Driver

  ==> Input File <==

--------------------------------------------------------------------------
set {
	reference rhf
	basis cc-pvtz
}

set_num_threads( 4 )
memory 2 gb

molecule MOL {
0 1

H	 2.358432	 0.559593	 -0.696229
C	 1.937402	 -0.327979	 -0.237852
N	 0.526300	 -0.128137	 0.000000
H	 2.449556	 -0.486136	 0.702746
H	 2.156326	 -1.174028	 -0.892714
C	 -0.247113	 0.037112	 -1.209233
H	 0.161334	 -0.885002	 0.536297
H	 -0.996493	 -0.743733	 -1.271440
H	 0.397975	 -0.057351	 -2.073512
H	 -0.763794	 0.997171	 -1.271673

	symmetry c1
}
set optking {
	frozen_dihedral = ("
		2 3 6 8
	")
}

ee,wfn = optimize('scf', return_wfn=True)
oeprop( wfn, 'DIPOLE', 'QUADRUPOLE', 'MULLIKEN_CHARGES')
f=open( 'psi4out.xyz', 'w' )
f.write( "10  " )
f.write( str(ee) + "\n" )
f.write( MOL.save_string_xyz() )
f.close()
--------------------------------------------------------------------------

    Molecular point group: c1
  Charge       = 0
  Multiplicity = 1
  Basis Set: CC-PVTZ
  Basis Set:
  @DF-RHF Final Energy:  -134.28742245422487
    Total Energy =                       -134.2874224542248669
    Molecular point group: c1
  Basis Set: CC-PVTZ
  Basis Set:
  Basis Set: CC-PVTZ
  Basis Set:
  @DF-RHF Final Energy:  -134.28805573003652
    Total Energy =                       -134.2880557300365467
  Basis Set: CC-PVTZ
  Basis Set:
  Basis Set: CC-PVTZ
  Basis Set:
  @DF-RHF Final Energy:  -134.28813363734406
    Total Energy =                       -134.2881336373441172
  Basis Set: CC-PVTZ
  Basis Set:
  Basis Set: CC-PVTZ
  Basis Set:
  @DF-RHF Final Energy:  -134.28813514287691
    Total Energy =                       -134.2881351428769108
  Basis Set: CC-PVTZ
  Basis Set:
  Charge       = 0
  Multiplicity = 1
  Basis Set: CC-PVTZ
  Basis Set:

    Orbital Energies (a.u.)
    -----------------------

    Doubly Occupied:

       1A    -15.529269     2A    -11.234419     3A    -11.233944
       4A     -1.196049     5A     -0.948039     6A     -0.855156
       7A     -0.660488     8A     -0.610463     9A     -0.588648
      10A     -0.546034    11A     -0.509922    12A     -0.506012
      13A     -0.358910

  @DF-RHF Final Energy:  -134.28813532147623

   => Energetics <=

    Nuclear Repulsion Energy =             84.4646794313967462
    One-Electron Energy =                -347.9509241453780533
    Two-Electron Energy =                 129.1981093925050743
    DFT Exchange-Correlation Energy =       0.0000000000000000
    Empirical Dispersion Energy =           0.0000000000000000
    PCM Polarization Energy =               0.0000000000000000
    EFP Energy =                            0.0000000000000000
    Total Energy =                       -134.2881353214762328
    Molecular point group: c1
  Basis Set: CC-PVTZ
  Basis Set:

  -Total Gradient:
     Atom            X                  Y                   Z
    ------   -----------------  -----------------  -----------------
       1       -0.000006642229    -0.000002727068    -0.000001359916
       2       -0.000017954629    -0.000581709278    -0.000034010197
       3        0.000211446885     0.000713623263    -0.000041364029
       4        0.000001658739     0.000002792952     0.000000690705
       5       -0.000016498262     0.000005677934     0.000006971149
       6       -0.000680739148     0.000298760290     0.000447894119
       7        0.000000048295    -0.000015465561    -0.000004820070
       8        0.000503191107    -0.000416063707    -0.000377084680
       9        0.000002964222    -0.000004315239     0.000003478747
      10        0.000002525020    -0.000000573586    -0.000000395828

  **** Optimization is complete! (in 5 steps) ****
    Final optimized geometry and variables:
    Molecular point group: c1

    Geometry (in Angstrom), charge = 0, multiplicity = 1:

    H            1.607827218076     0.770667074300    -0.188769130850
    C            1.211214951711    -0.131311847286     0.262521351102
    N           -0.208300188859     0.016704974342     0.489560373991
    H            1.717586956914    -0.270536774064     1.209559321812
    H            1.469930358837    -0.969198326363    -0.387706002843
    C           -1.014913852602     0.162589227819    -0.712148134040
    H           -0.543998857357    -0.737621755440     1.043721658344
    H           -1.749919706492    -0.630605524190    -0.800748280980
    H           -0.400576664255     0.123672446052    -1.605949126260
    H           -1.543977078264     1.109103683281    -0.718602676912

  Mulliken Charges: (a.u.)
   Center  Symbol    Alpha    Beta     Spin     Total
       1     H     0.45636  0.45636  0.00000  0.08728
       2     C     3.08279  3.08279  0.00000 -0.16558
       3     N     3.63344  3.63344  0.00000 -0.26688
       4     H     0.45329  0.45329  0.00000  0.09341
       5     H     0.47414  0.47414  0.00000  0.05172
       6     C     3.07693  3.07693  0.00000 -0.15386
       7     H     0.43993  0.43993  0.00000  0.12013
       8     H     0.46128  0.46128  0.00000  0.07745
       9     H     0.46582  0.46582  0.00000  0.06836
      10     H     0.45601  0.45601  0.00000  0.08797

   Total alpha = 13.00000, Total beta = 13.00000, Total charge =  0.00000

*** Psi4 exiting successfully. Buy a developer a beer!
