  ==> Input File <==

--------------------------------------------------------------------------
set {
	reference rhf
	basis 6-31G*
}

set_num_threads( 4 )
memory 2 gb

molecule MOL {
0 1

H	 0.777919	 6.877022	 0.062133
C	 -0.232354	 6.523168	 -0.118587
C	 -0.269218	 5.001190	 -0.250496
H	 -0.852651	 6.857443	 0.707750
H	 -0.595378	 7.005921	 -1.021894
C	 -1.679755	 4.468946	 -0.513016
H	 0.123430	 4.553300	 0.656600
H	 0.387849	 4.694754	 -1.062931
C	 -1.745470	 2.949402	 -0.667722
H	 -2.338048	 4.769610	 0.294384
H	 -2.066853	 4.922156	 -1.422849
C	 -1.522356	 2.177584	 0.624470
H	 -2.728492	 2.659727	 -1.035860
H	 -1.037383	 2.604110	 -1.417764
C	 -1.181045	 0.701995	 0.511084
O	 -1.628133	 2.701564	 1.692488
C	 -2.285934	 -0.139295	 -0.145128
H	 -0.984223	 0.344371	 1.514618
H	 -0.262749	 0.602632	 -0.064715
C	 -3.651768	 0.085446	 0.506485
H	 -2.346596	 0.110469	 -1.202272
H	 -2.034737	 -1.195320	 -0.088721
C	 -4.759797	 -0.746382	 -0.137905
H	 -3.908762	 1.140117	 0.445781
H	 -3.588286	 -0.154158	 1.565709
H	 -4.868882	 -0.505166	 -1.191300
H	 -4.548009	 -1.809175	 -0.062213
H	 -5.715422	 -0.564821	 0.343442

	symmetry c1
}
set optking {
	frozen_dihedral = ("
		12 15 17 21
	")
}

ee = optimize('scf')
oeprop('DIPOLE', 'QUADRUPOLE', 'MULLIKEN_CHARGES')
f=open( 'psi4out.xyz', 'w' )
f.write( "28  " )
f.write( str(ee) + "\n" )
f.write( MOL.save_string_xyz() )
f.close()
--------------------------------------------------------------------------

    Molecular point group: c1
  Charge       = 0
  Multiplicity = 1
  Basis Set: 6-31G*
  Basis Set:
  @DF-RHF Final Energy:  -426.16747461104558
    Total Energy =                       -426.1674746110456908
    Molecular point group: c1
  Basis Set: 6-31G*
  Basis Set:
  Basis Set: 6-31G*
  Basis Set:
  @DF-RHF Final Energy:  -426.16814529675264
    Total Energy =                       -426.1681452967518453
  Basis Set: 6-31G*
  Basis Set:
  Basis Set: 6-31G*
  Basis Set:
  @DF-RHF Final Energy:  -426.16690497330478
    Total Energy =                       -426.1669049733043266
  Basis Set: 6-31G*
  Basis Set:
  Basis Set: 6-31G*
  Basis Set:
  @DF-RHF Final Energy:  -426.16831778685298
    Total Energy =                       -426.1683177868527537
  Basis Set: 6-31G*
  Basis Set:
  @DF-RHF Final Energy:  -426.16834508156410
    Total Energy =                       -426.1683450815642118
  Basis Set: 6-31G*
  Basis Set:
  @DF-RHF Final Energy:  -426.16834999263722
    Total Energy =                       -426.1683499926372178
  Basis Set: 6-31G*
  Basis Set:
  Basis Set: 6-31G*
  Basis Set:
  @DF-RHF Final Energy:  -426.16835455552541
    Total Energy =                       -426.1683545555254113
  Basis Set: 6-31G*
  Basis Set:
  Basis Set: 6-31G*
  Basis Set:
  @DF-RHF Final Energy:  -426.16835702191747
    Total Energy =                       -426.1683570219179273
  Basis Set: 6-31G*
  Basis Set:
  Charge       = 0
  Multiplicity = 1
  Basis Set: 6-31G*
  Basis Set:

    Orbital Energies (a.u.)
    -----------------------

    Doubly Occupied:

       1A    -20.548716     2A    -11.322099     3A    -11.232030
       4A    -11.230229     5A    -11.228808     6A    -11.222839
       7A    -11.216410     8A    -11.214723     9A    -11.211359
      10A    -11.205204    11A     -1.393684    12A     -1.094073
      13A     -1.076504    14A     -1.020635    15A     -0.990725
      16A     -0.906608    17A     -0.873278    18A     -0.813002
      19A     -0.796804    20A     -0.720901    21A     -0.663724
      22A     -0.653470    23A     -0.628546    24A     -0.613996
      25A     -0.608245    26A     -0.585832    27A     -0.584173
      28A     -0.572276    29A     -0.546359    30A     -0.534299
      31A     -0.516983    32A     -0.509370    33A     -0.500600
      34A     -0.485785    35A     -0.475738    36A     -0.470821
      37A     -0.467708    38A     -0.462724    39A     -0.455912
      40A     -0.392848

  @DF-RHF Final Energy:  -426.16835798044565

   => Energetics <=

    Nuclear Repulsion Energy =            541.8162819757640136
    One-Electron Energy =               -1651.8731988966355857
    Two-Electron Energy =                 683.8885589404258099
    DFT Exchange-Correlation Energy =       0.0000000000000000
    Empirical Dispersion Energy =           0.0000000000000000
    PCM Polarization Energy =               0.0000000000000000
    EFP Energy =                            0.0000000000000000
    Total Energy =                       -426.1683579804457622
    Molecular point group: c1
  Basis Set: 6-31G*
  Basis Set:

  -Total Gradient:
     Atom            X                  Y                   Z
    ------   -----------------  -----------------  -----------------
       1        0.000001353609     0.000008698577     0.000004340887
       2        0.000012682131    -0.000004580324     0.000011044216
       3       -0.000005946539    -0.000004300564     0.000005057767
       4       -0.000002616297     0.000001438174    -0.000000655342
       5        0.000003201900    -0.000007317600     0.000000586287
       6       -0.000012582914    -0.000027113227    -0.000014849613
       7       -0.000012247908     0.000007492729    -0.000011598367
       8        0.000010073954     0.000004889725    -0.000003172491
       9       -0.000124615882     0.000001249471     0.000047799969
      10       -0.000010153029     0.000012061000    -0.000006745863
      11        0.000013098249     0.000021242181     0.000012666833
      12       -0.000518779619    -0.000152572886     0.001290674288
      13        0.000048263240     0.000005891166    -0.000025296120
      14        0.000021531253    -0.000027568174    -0.000014739366
      15        0.001023422145    -0.000122433754    -0.001991440434
      16        0.000055246910     0.000036167871     0.000054186061
      17       -0.001765705076     0.001752921489     0.001114474994
      18        0.000005114797    -0.000013697984    -0.000004956992
      19        0.000011480825     0.000017038825     0.000006855951
      20       -0.000030633882     0.000030499953    -0.000037975662
      21        0.001253240503    -0.001508581544    -0.000416215268
      22       -0.000013895931    -0.000004681958    -0.000010683328
      23        0.000019196882    -0.000022152745     0.000005141676
      24        0.000007978345     0.000009762335     0.000000769093
      25        0.000013266195    -0.000003359952    -0.000014898103
      26       -0.000004445954     0.000001506717     0.000005205506
      27       -0.000004150886    -0.000014285084    -0.000010927176
      28        0.000006622977     0.000001785586     0.000005350597

  **** Optimization is complete! (in 9 steps) ****
    Final optimized geometry and variables:
    Molecular point group: c1

    Geometry (in Angstrom), charge = 0, multiplicity = 1:

    H            2.596997904805     4.587880362361     0.091531798315
    C            1.621986549003     4.195826304989    -0.180838376589
    C            1.660794110586     2.675794945810    -0.332877717293
    H            0.918956944890     4.492020427544     0.592105335258
    H            1.318775648648     4.677198278865    -1.106726539247
    C            0.302112445736     2.090754071281    -0.725034816685
    H            1.990800286615     2.229889283051     0.599213207706
    H            2.397983571772     2.409116618883    -1.088663485404
    C            0.311934831960     0.572160646889    -0.899738588639
    H           -0.437180002821     2.355736465864     0.022957948167
    H           -0.020436093679     2.540544735861    -1.661374503903
    C            0.426812166333    -0.212989105943     0.398196007325
    H           -0.608570417927     0.248105534587    -1.382761836501
    H            1.113891096639     0.264043074126    -1.567469560655
    C            0.691036446672    -1.705654114077     0.286992264713
    O            0.297703557671     0.309071362502     1.464520190633
    C           -0.477122056996    -2.508244583505    -0.312932870941
    H            0.903812153575    -2.060111788482     1.288650671915
    H            1.579752364575    -1.862514541975    -0.319323178305
    C           -1.811180539657    -2.313855616812     0.411038384624
    H           -0.584218782169    -2.279686361990    -1.370758513552
    H           -0.203521192379    -3.559537992418    -0.270291408608
    C           -2.918358908763    -3.201800284752    -0.155520163377
    H           -2.121220247991    -1.273631617642     0.352370425438
    H           -1.676914669052    -2.526939633295     1.468356565857
    H           -3.094398038945    -2.989104339006    -1.206352818227
    H           -2.660508573972    -4.253603940978    -0.070547084749
    H           -3.852841480447    -3.046513160215     0.373919910578

  Mulliken Charges: (a.u.)
   Center  Symbol    Alpha    Beta     Spin     Total
       1     H     0.41937  0.41937  0.00000  0.16125
       2     C     3.24020  3.24020  0.00000 -0.48039
       3     C     3.15627  3.15627  0.00000 -0.31253
       4     H     0.41851  0.41851  0.00000  0.16298
       5     H     0.42388  0.42388  0.00000  0.15224
       6     C     3.14850  3.14850  0.00000 -0.29701
       7     H     0.40883  0.40883  0.00000  0.18234
       8     H     0.42794  0.42794  0.00000  0.14413
       9     C     3.21236  3.21236  0.00000 -0.42472
      10     H     0.40796  0.40796  0.00000  0.18409
      11     H     0.42213  0.42213  0.00000  0.15574
      12     C     2.73297  2.73297  0.00000  0.53405
      13     H     0.40405  0.40405  0.00000  0.19190
      14     H     0.41195  0.41195  0.00000  0.17609
      15     C     3.20092  3.20092  0.00000 -0.40184
      16     O     4.26720  4.26720  0.00000 -0.53440
      17     C     3.16274  3.16274  0.00000 -0.32548
      18     H     0.40055  0.40055  0.00000  0.19889
      19     H     0.41158  0.41158  0.00000  0.17684
      20     C     3.15571  3.15571  0.00000 -0.31143
      21     H     0.41975  0.41975  0.00000  0.16050
      22     H     0.41443  0.41443  0.00000  0.17114
      23     C     3.24030  3.24030  0.00000 -0.48060
      24     H     0.41848  0.41848  0.00000  0.16305
      25     H     0.41464  0.41464  0.00000  0.17072
      26     H     0.42201  0.42201  0.00000  0.15597
      27     H     0.42070  0.42070  0.00000  0.15859
      28     H     0.41606  0.41606  0.00000  0.16787

   Total alpha = 40.00000, Total beta = 40.00000, Total charge = -0.00000
