                              Psi4 1.0.54 Driver

  ==> Input File <==

--------------------------------------------------------------------------
set {
	reference rhf
	basis cc-pvtz
}

set_num_threads( 4 )
memory 2 gb

molecule MOL {
0 1

H	 1.166964	 -1.062386	 0.758429
O	 1.324748	 -0.612467	 -0.052206
C	 0.706474	 0.636793	 -0.025501
C	 -0.159414	 0.932115	 -1.217413
H	 1.501377	 1.371306	 0.028542
H	 0.112404	 0.756239	 0.878664
C	 -0.283208	 0.174699	 -2.284795
H	 -0.710087	 1.856249	 -1.154296
H	 0.261506	 -0.743859	 -2.392072
H	 -0.927532	 0.459283	 -3.094683

	symmetry c1
}
set optking {
	frozen_dihedral = ("
		5 3 2 1
	")
}

ee,wfn = optimize('scf', return_wfn=True)
oeprop( wfn, 'DIPOLE', 'QUADRUPOLE', 'MULLIKEN_CHARGES')
f=open( 'psi4out.xyz', 'w' )
f.write( "10  " )
f.write( str(ee) + "\n" )
f.write( MOL.save_string_xyz() )
f.close()
--------------------------------------------------------------------------

    Molecular point group: c1
  Charge       = 0
  Multiplicity = 1
  Basis Set: CC-PVTZ
  Basis Set:
  @DF-RHF Final Energy:  -191.99580224407504
    Total Energy =                       -191.9958022440749517
    Molecular point group: c1
  Basis Set: CC-PVTZ
  Basis Set:
  Basis Set: CC-PVTZ
  Basis Set:
  @DF-RHF Final Energy:  -191.91629029878595
    Total Energy =                       -191.9162902987859241
  Basis Set: CC-PVTZ
  Basis Set:
  Basis Set: CC-PVTZ
  Basis Set:
  @DF-RHF Final Energy:  -191.99101358853301
    Total Energy =                       -191.9910135885330362
  Basis Set: CC-PVTZ
  Basis Set:
  Basis Set: CC-PVTZ
  Basis Set:
  @DF-RHF Final Energy:  -191.99670706246627
    Total Energy =                       -191.9967070624662142
  Basis Set: CC-PVTZ
  Basis Set:
  Basis Set: CC-PVTZ
  Basis Set:
  @DF-RHF Final Energy:  -191.99680355375966
    Total Energy =                       -191.9968035537597189
  Basis Set: CC-PVTZ
  Basis Set:
  Basis Set: CC-PVTZ
  Basis Set:
  @DF-RHF Final Energy:  -191.99683468854607
    Total Energy =                       -191.9968346885460448
  Basis Set: CC-PVTZ
  Basis Set:
  Charge       = 0
  Multiplicity = 1
  Basis Set: CC-PVTZ
  Basis Set:

    Orbital Energies (a.u.)
    -----------------------

    Doubly Occupied:

       1A    -20.553283     2A    -11.278507     3A    -11.223650
       4A    -11.208380     5A     -1.373120     6A     -1.058334
       7A     -0.927326     8A     -0.759280     9A     -0.710003
      10A     -0.651069    11A     -0.615384    12A     -0.584232
      13A     -0.514354    14A     -0.503132    15A     -0.452248
      16A     -0.361369

  @DF-RHF Final Energy:  -191.99683502506576

   => Energetics <=

    Nuclear Repulsion Energy =            119.4654249067098561
    One-Electron Energy =                -497.3771776156940518
    Two-Electron Energy =                 185.9149176839184179
    DFT Exchange-Correlation Energy =       0.0000000000000000
    Empirical Dispersion Energy =           0.0000000000000000
    PCM Polarization Energy =               0.0000000000000000
    EFP Energy =                            0.0000000000000000
    Total Energy =                       -191.9968350250657636
    Molecular point group: c1
  Basis Set: CC-PVTZ
  Basis Set:

  -Total Gradient:
     Atom            X                  Y                   Z
    ------   -----------------  -----------------  -----------------
       1       -0.000096558186    -0.000035660810    -0.000111931378
       2        0.000205163777     0.000031283255     0.000090142062
       3       -0.000210891118    -0.000109637151     0.000101825965
       4        0.000055080402     0.000031293777     0.000034112302
       5        0.000071684766     0.000062066561    -0.000118495340
       6       -0.000011723399     0.000037633124     0.000020213887
       7        0.000073506731     0.000029198846     0.000009232772
       8       -0.000024492195    -0.000005383818     0.000004818291
       9       -0.000033236569    -0.000029394019    -0.000012007517
      10       -0.000028534210    -0.000011399763    -0.000017911042

  **** Optimization is complete! (in 7 steps) ****
    Final optimized geometry and variables:
    Molecular point group: c1

    Geometry (in Angstrom), charge = 0, multiplicity = 1:

    H            0.156906492711    -1.810249361047     1.141776541372
    O            0.578528628916    -1.105811155820     0.689149771949
    C           -0.079619393071     0.102294993489     0.942944883025
    C           -0.406702002741     0.847961662870    -0.316992401826
    H            0.551066778750     0.730429550455     1.567013011111
    H           -0.998708697318    -0.064096818769     1.499420352998
    C           -0.175038288531     0.425591108810    -1.539089769127
    H           -0.864051573752     1.810927783890    -0.159560058036
    H            0.285539709114    -0.524835989783    -1.723851930541
    H           -0.437725418505     1.025866710779    -2.389535649355

  Mulliken Charges: (a.u.)
   Center  Symbol    Alpha    Beta     Spin     Total
       1     H     0.38980  0.38980  0.00000  0.22040
       2     O     4.19822  4.19822  0.00000 -0.39645
       3     C     2.94487  2.94487  0.00000  0.11027
       4     C     3.07954  3.07954  0.00000 -0.15908
       5     H     0.46662  0.46662  0.00000  0.06677
       6     H     0.47326  0.47326  0.00000  0.05348
       7     C     3.17334  3.17334  0.00000 -0.34667
       8     H     0.42428  0.42428  0.00000  0.15143
       9     H     0.42019  0.42019  0.00000  0.15962
      10     H     0.42988  0.42988  0.00000  0.14024

   Total alpha = 16.00000, Total beta = 16.00000, Total charge =  0.00000

*** Psi4 exiting successfully. Buy a developer a beer!
