                              Psi4 1.0.54 Driver

  ==> Input File <==

--------------------------------------------------------------------------
set {
	reference rhf
	basis cc-pvtz
}

set_num_threads( 4 )
memory 2 gb

molecule MOL {
0 1

H	 -2.497152	 -0.552467	 0.672705
N	 -1.731424	 0.087229	 0.668109
C	 -0.561396	 -0.500007	 0.035200
H	 -1.540581	 0.325283	 1.619027
C	 0.575129	 0.507849	 -0.048832
H	 -0.843399	 -0.803694	 -0.967529
H	 -0.206877	 -1.396869	 0.545464
C	 1.951750	 -0.141983	 0.035101
H	 0.478254	 1.061643	 -0.975981
H	 0.467676	 1.231891	 0.755499
H	 2.101550	 -0.848142	 -0.774949
H	 2.738260	 0.600794	 -0.026526
H	 2.078939	 -0.679792	 0.968824

	symmetry c1
}
set optking {
	frozen_dihedral = ("
		6 3 5 9
	")
}

ee,wfn = optimize('scf', return_wfn=True)
oeprop( wfn, 'DIPOLE', 'QUADRUPOLE', 'MULLIKEN_CHARGES')
f=open( 'psi4out.xyz', 'w' )
f.write( "13  " )
f.write( str(ee) + "\n" )
f.write( MOL.save_string_xyz() )
f.close()
--------------------------------------------------------------------------

    Molecular point group: c1
  Charge       = 0
  Multiplicity = 1
  Basis Set: CC-PVTZ
  Basis Set:
  @DF-RHF Final Energy:  -173.34889712608506
    Total Energy =                       -173.3488971260852054
    Molecular point group: c1
  Basis Set: CC-PVTZ
  Basis Set:
  Basis Set: CC-PVTZ
  Basis Set:
  @DF-RHF Final Energy:  -173.34924480773972
    Total Energy =                       -173.3492448077397512
  Basis Set: CC-PVTZ
  Basis Set:
  Basis Set: CC-PVTZ
  Basis Set:
  @DF-RHF Final Energy:  -173.34932350709971
    Total Energy =                       -173.3493235070998253
  Basis Set: CC-PVTZ
  Basis Set:
  Basis Set: CC-PVTZ
  Basis Set:
  @DF-RHF Final Energy:  -173.34932497636100
    Total Energy =                       -173.3493249763608901
  Basis Set: CC-PVTZ
  Basis Set:
  Charge       = 0
  Multiplicity = 1
  Basis Set: CC-PVTZ
  Basis Set:

    Orbital Energies (a.u.)
    -----------------------

    Doubly Occupied:

       1A    -15.526379     2A    -11.238647     3A    -11.210646
       4A    -11.206838     5A     -1.177398     6A     -1.035008
       7A     -0.898750     8A     -0.799775     9A     -0.668224
      10A     -0.620088    11A     -0.608259    12A     -0.566340
      13A     -0.534025    14A     -0.490248    15A     -0.478625
      16A     -0.467035    17A     -0.383746

  @DF-RHF Final Energy:  -173.34932526204429

   => Energetics <=

    Nuclear Repulsion Energy =            131.9079636013559309
    One-Electron Energy =                -494.6945131364094550
    Two-Electron Energy =                 189.4372242730092637
    DFT Exchange-Correlation Energy =       0.0000000000000000
    Empirical Dispersion Energy =           0.0000000000000000
    PCM Polarization Energy =               0.0000000000000000
    EFP Energy =                            0.0000000000000000
    Total Energy =                       -173.3493252620442320
    Molecular point group: c1
  Basis Set: CC-PVTZ
  Basis Set:

  -Total Gradient:
     Atom            X                  Y                   Z
    ------   -----------------  -----------------  -----------------
       1       -0.000007193292     0.000007018234     0.000005530699
       2        0.000008503573    -0.000028534026    -0.000001828176
       3        0.004690458979    -0.005234846974    -0.000279558140
       4        0.000002316188    -0.000001528855    -0.000010354824
       5       -0.004235618616     0.004918147829     0.002748484367
       6       -0.003287775250     0.003637670700    -0.000198402954
       7        0.000002294894     0.000019311299    -0.000005727320
       8       -0.000002274422     0.000011759748     0.000011128947
       9        0.002817148300    -0.003313708585    -0.002266967656
      10        0.000000291331    -0.000010340330     0.000001365723
      11       -0.000003527702    -0.000005526479    -0.000001659999
      12        0.000007244571     0.000000498604    -0.000001025454
      13        0.000008131447     0.000000078834    -0.000000985213

  **** Optimization is complete! (in 5 steps) ****
    Final optimized geometry and variables:
    Molecular point group: c1

    Geometry (in Angstrom), charge = 0, multiplicity = 1:

    H           -2.556472346642    -0.520968568441     0.415377451753
    N           -1.785137653813     0.111462602108     0.446549902455
    C           -0.591594368275    -0.486158265853    -0.137177514349
    H           -1.634613272168     0.346988561666     1.405231932609
    C            0.544105738826     0.537275125652    -0.212240557347
    H           -0.866497647698    -0.791382929224    -1.140191835908
    H           -0.256232673703    -1.371982409455     0.400893412297
    C            1.925960722501    -0.111234321096    -0.175685050866
    H            0.457389576027     1.097864544755    -1.135974625363
    H            0.449971966587     1.242858580835     0.605906490837
    H            2.043954644830    -0.828191051114    -0.982123661958
    H            2.709340373010     0.630575941345    -0.279565168577
    H            2.089841819973    -0.638654793308     0.758238168935

  Mulliken Charges: (a.u.)
   Center  Symbol    Alpha    Beta     Spin     Total
       1     H     0.42939  0.42939  0.00000  0.14121
       2     N     3.69145  3.69145  0.00000 -0.38289
       3     C     3.02615  3.02615  0.00000 -0.05231
       4     H     0.43075  0.43075  0.00000  0.13851
       5     C     3.07700  3.07700  0.00000 -0.15399
       6     H     0.45630  0.45630  0.00000  0.08739
       7     H     0.46727  0.46727  0.00000  0.06546
       8     C     3.15247  3.15247  0.00000 -0.30494
       9     H     0.45243  0.45243  0.00000  0.09514
      10     H     0.45544  0.45544  0.00000  0.08913
      11     H     0.45540  0.45540  0.00000  0.08920
      12     H     0.44883  0.44883  0.00000  0.10235
      13     H     0.45713  0.45713  0.00000  0.08574

   Total alpha = 17.00000, Total beta = 17.00000, Total charge =  0.00000

*** Psi4 exiting successfully. Buy a developer a beer!
