  ==> Input File <==

--------------------------------------------------------------------------
set {
	reference rhf
	basis 6-31G*
}

set_num_threads( 4 )
memory 2 gb

molecule MOL {
0 1

H	 2.910789	 -1.154735	 -0.449557
N	 3.092854	 -0.246221	 -0.068770
C	 1.865559	 0.531981	 0.018834
H	 3.747829	 0.199130	 -0.683181
C	 0.645745	 -0.382037	 -0.029944
H	 1.841966	 1.207024	 -0.831236
H	 1.815756	 1.155410	 0.915079
C	 -0.679275	 0.379305	 0.025956
H	 0.698998	 -0.976915	 -0.937203
H	 0.693479	 -1.083846	 0.802235
C	 -1.903357	 -0.536963	 -0.023547
H	 -0.726309	 1.082987	 -0.803784
H	 -0.717680	 0.977832	 0.934877
C	 -3.225172	 0.228290	 0.028445
H	 -1.867824	 -1.134999	 -0.931459
H	 -1.860449	 -1.239604	 0.805977
H	 -3.313397	 0.915643	 -0.808262
H	 -4.073500	 -0.448134	 -0.008893
H	 -3.306061	 0.809945	 0.942516

	symmetry c1
}
set optking {
	frozen_dihedral = ("
		1 2 3 6
	")
}

ee = optimize('scf')
oeprop('DIPOLE', 'QUADRUPOLE', 'MULLIKEN_CHARGES')
f=open( 'psi4out.xyz', 'w' )
f.write( "19  " )
f.write( str(ee) + "\n" )
f.write( MOL.save_string_xyz() )
f.close()
--------------------------------------------------------------------------

    Molecular point group: c1
  Charge       = 0
  Multiplicity = 1
  Basis Set: 6-31G*
  Basis Set:
  @DF-RHF Final Energy:  -251.34654291209532
    Total Energy =                       -251.3465429120952308
    Molecular point group: c1
  Basis Set: 6-31G*
  Basis Set:
  Basis Set: 6-31G*
  Basis Set:
  @DF-RHF Final Energy:  -251.34822477092587
    Total Energy =                       -251.3482247709258104
  Basis Set: 6-31G*
  Basis Set:
  Basis Set: 6-31G*
  Basis Set:
  @DF-RHF Final Energy:  -251.34845844114651
    Total Energy =                       -251.3484584411462492
  Basis Set: 6-31G*
  Basis Set:
  Basis Set: 6-31G*
  Basis Set:
  @DF-RHF Final Energy:  -251.34846522735106
    Total Energy =                       -251.3484652273510278
  Basis Set: 6-31G*
  Basis Set:
  Basis Set: 6-31G*
  Basis Set:
  @DF-RHF Final Energy:  -251.34846649683604
    Total Energy =                       -251.3484664968360107
  Basis Set: 6-31G*
  Basis Set:
  Charge       = 0
  Multiplicity = 1
  Basis Set: 6-31G*
  Basis Set:

    Orbital Energies (a.u.)
    -----------------------

    Doubly Occupied:

       1A    -15.528239     2A    -11.238943     3A    -11.216421
       4A    -11.215963     5A    -11.215390     6A    -11.209163
       7A     -1.173159     8A     -1.075426     9A     -1.000274
      10A     -0.901276    11A     -0.817157    12A     -0.793404
      13A     -0.657861    14A     -0.648736    15A     -0.611082
      16A     -0.596760    17A     -0.564744    18A     -0.544929
      19A     -0.539332    20A     -0.497476    21A     -0.487577
      22A     -0.468066    23A     -0.464486    24A     -0.451138
      25A     -0.373564

  @DF-RHF Final Energy:  -251.34846679937024

   => Energetics <=

    Nuclear Repulsion Energy =            245.7357452446730974
    One-Electron Energy =                -825.5872911244587158
    Two-Electron Energy =                 328.5030790804150911
    DFT Exchange-Correlation Energy =       0.0000000000000000
    Empirical Dispersion Energy =           0.0000000000000000
    PCM Polarization Energy =               0.0000000000000000
    EFP Energy =                            0.0000000000000000
    Total Energy =                       -251.3484667993704988
    Molecular point group: c1
  Basis Set: 6-31G*
  Basis Set:

  -Total Gradient:
     Atom            X                  Y                   Z
    ------   -----------------  -----------------  -----------------
       1       -0.000740703495    -0.001055062689     0.002872309545
       2        0.001257799471     0.001929416081    -0.003151474942
       3       -0.001764779244    -0.002918191408    -0.001358713619
       4       -0.000004737080    -0.000003999236     0.000005908239
       5        0.000018775513     0.000007803439    -0.000004674489
       6        0.001250690620     0.002043966192     0.001628008125
       7        0.000006943068     0.000012918661     0.000009825209
       8       -0.000028152781    -0.000011227719     0.000006524243
       9       -0.000011631911     0.000006942969     0.000003237584
      10       -0.000006844731    -0.000008363939    -0.000005090212
      11       -0.000002459588    -0.000001778072    -0.000009901135
      12       -0.000000308842    -0.000008750055    -0.000002859586
      13        0.000010010153     0.000001381282     0.000002788191
      14        0.000008139323     0.000005546320     0.000002838377
      15        0.000002386760    -0.000006943751    -0.000001001272
      16        0.000001004071     0.000005930692     0.000001931021
      17        0.000000013909     0.000000602279    -0.000001207833
      18        0.000006069780    -0.000002379564    -0.000000279885
      19       -0.000002214997     0.000002188520     0.000001832437

  **** Optimization is complete! (in 6 steps) ****
    Final optimized geometry and variables:
    Molecular point group: c1

    Geometry (in Angstrom), charge = 0, multiplicity = 1:

    H            2.982768429193    -1.153383853534    -0.367382366356
    N            3.107951187178    -0.235546818168     0.009640505482
    C            1.867274175538     0.531209331821    -0.019633348459
    H            3.842958964871     0.212929269524    -0.497482765776
    C            0.644750357197    -0.379647861093    -0.050221239891
    H            1.834284509030     1.223452953764    -0.861531864539
    H            1.823251532830     1.149171943166     0.873768002520
    C           -0.677558886238     0.383635041357     0.032228012035
    H            0.664418809443    -0.973032976913    -0.963645047811
    H            0.715096113998    -1.081037643732     0.778528962941
    C           -1.903827339251    -0.530393969556    -0.001414140928
    H           -0.737669409585     1.093712263741    -0.790973040792
    H           -0.695827046557     0.973836166571     0.946485544777
    C           -3.222522716265     0.237249150694     0.083298907061
    H           -1.888180591536    -1.120671164913    -0.915186155912
    H           -1.845778636026    -1.239880179765     0.821117351032
    H           -3.325969684807     0.931864860060    -0.745613575125
    H           -4.072742020996    -0.437284049827     0.057268630318
    H           -3.283669676665     0.811024364275     1.003723080785

  Mulliken Charges: (a.u.)
   Center  Symbol    Alpha    Beta     Spin     Total
       1     H     0.33238  0.33238  0.00000  0.33524
       2     N     3.93238  3.93238  0.00000 -0.86476
       3     C     3.04475  3.04475  0.00000 -0.08950
       4     H     0.33154  0.33154  0.00000  0.33691
       5     C     3.16686  3.16686  0.00000 -0.33372
       6     H     0.43246  0.43246  0.00000  0.13508
       7     H     0.42122  0.42122  0.00000  0.15756
       8     C     3.15368  3.15368  0.00000 -0.30737
       9     H     0.42586  0.42586  0.00000  0.14829
      10     H     0.41560  0.41560  0.00000  0.16880
      11     C     3.15136  3.15136  0.00000 -0.30273
      12     H     0.42361  0.42361  0.00000  0.15278
      13     H     0.42139  0.42139  0.00000  0.15722
      14     C     3.23948  3.23948  0.00000 -0.47896
      15     H     0.42323  0.42323  0.00000  0.15353
      16     H     0.42200  0.42200  0.00000  0.15601
      17     H     0.42186  0.42186  0.00000  0.15628
      18     H     0.41906  0.41906  0.00000  0.16187
      19     H     0.42127  0.42127  0.00000  0.15747

   Total alpha = 25.00000, Total beta = 25.00000, Total charge = -0.00000
