  ==> Input File <==

--------------------------------------------------------------------------
set {
	reference rhf
	basis cc-pvtz
}

set_num_threads( 4 )
memory 2 gb

molecule MOL {
0 1

H	 2.856977	 0.089498	 -2.121207
O	 1.940880	 -0.091408	 -2.228285
C	 1.247976	 0.212216	 -1.113312
C	 1.858374	 0.724406	 0.021481
C	 -0.114997	 -0.002683	 -1.125309
H	 2.920238	 0.891191	 0.029095
C	 1.105767	 1.020117	 1.140004
H	 -0.589372	 -0.398146	 -2.000192
C	 -0.861704	 0.296439	 0.000000
H	 1.588875	 1.415944	 2.012215
C	 -0.258212	 0.808065	 1.136160
C	 -2.330689	 0.069587	 0.000000
H	 -0.846049	 1.037058	 2.004432
O	 -2.848621	 -0.993976	 0.000000
H	 -2.934306	 0.982410	 0.000000

	symmetry c1
}
set optking {
	frozen_dihedral = ("
		11 9 12 14
	")
}

ee = optimize('scf')
oeprop('DIPOLE', 'QUADRUPOLE', 'MULLIKEN_CHARGES')
f=open( 'psi4out.xyz', 'w' )
f.write( "15  " )
f.write( str(ee) + "\n" )
f.write( MOL.save_string_xyz() )
f.close()
--------------------------------------------------------------------------

    Molecular point group: c1
  Charge       = 0
  Multiplicity = 1
  Basis Set: CC-PVTZ
  Basis Set:
  @DF-RHF Final Energy:  -418.42836569448411
    Total Energy =                       -418.4283656944840004
    Molecular point group: c1
  Basis Set: CC-PVTZ
  Basis Set:
  Basis Set: CC-PVTZ
  Basis Set:
  @DF-RHF Final Energy:  -418.42720352181630
    Total Energy =                       -418.4272035218166366
  Basis Set: CC-PVTZ
  Basis Set:
  Basis Set: CC-PVTZ
  Basis Set:
  @DF-RHF Final Energy:  -418.42871330229315
    Total Energy =                       -418.4287133022933176
  Basis Set: CC-PVTZ
  Basis Set:
  Basis Set: CC-PVTZ
  Basis Set:
  @DF-RHF Final Energy:  -418.42879408299183
    Total Energy =                       -418.4287940829915442
  Basis Set: CC-PVTZ
  Basis Set:
  Basis Set: CC-PVTZ
  Basis Set:
  @DF-RHF Final Energy:  -418.42879596791624
    Total Energy =                       -418.4287959679163578
  Basis Set: CC-PVTZ
  Basis Set:
  Charge       = 0
  Multiplicity = 1
  Basis Set: CC-PVTZ
  Basis Set:

    Orbital Energies (a.u.)
    -----------------------

    Doubly Occupied:

       1A    -20.596022     2A    -20.562934     3A    -11.332495
       4A    -11.311752     5A    -11.255459     6A    -11.249716
       7A    -11.239625     8A    -11.237452     9A    -11.236962
      10A     -1.427933    11A     -1.417551    12A     -1.172191
      13A     -1.050618    14A     -1.027697    15A     -0.901543
      16A     -0.846324    17A     -0.820423    18A     -0.742227
      19A     -0.703879    20A     -0.684058    21A     -0.661389
      22A     -0.644257    23A     -0.616230    24A     -0.607174
      25A     -0.585867    26A     -0.547437    27A     -0.536010
      28A     -0.516046    29A     -0.497168    30A     -0.426994
      31A     -0.357366    32A     -0.328527

  @DF-RHF Final Energy:  -418.42879683135783

   => Energetics <=

    Nuclear Repulsion Energy =            403.3071523928068132
    One-Electron Energy =               -1369.1892485711873633
    Two-Electron Energy =                 547.4532993470231759
    DFT Exchange-Correlation Energy =       0.0000000000000000
    Empirical Dispersion Energy =           0.0000000000000000
    PCM Polarization Energy =               0.0000000000000000
    EFP Energy =                            0.0000000000000000
    Total Energy =                       -418.4287968313574311
    Molecular point group: c1
  Basis Set: CC-PVTZ
  Basis Set:

  -Total Gradient:
     Atom            X                  Y                   Z
    ------   -----------------  -----------------  -----------------
       1       -0.000015247067     0.000013764306     0.000003496774
       2        0.000022010030    -0.000003118681     0.000021920116
       3       -0.000093134979    -0.000061851245    -0.000049227725
       4       -0.000027048860     0.000095090632     0.000054316128
       5        0.000112674087    -0.000017737472    -0.000058451608
       6        0.000005766274    -0.000015918139    -0.000002321457
       7        0.000138006336    -0.000039702284    -0.000012870918
       8       -0.000009272364     0.000029048591     0.000018632165
       9       -0.000996990393     0.005183424244     0.000432544241
      10       -0.000003844842     0.000005316740    -0.000006140897
      11        0.000523693462    -0.003633406497     0.001147217641
      12        0.000271492213    -0.001434161374    -0.006311539503
      13        0.000000508720     0.000007323613    -0.000003789535
      14        0.000041092171    -0.000098298541     0.004765994446
      15        0.000030295211    -0.000029773893     0.000000220127

  **** Optimization is complete! (in 6 steps) ****
    Final optimized geometry and variables:
    Molecular point group: c1

    Geometry (in Angstrom), charge = 0, multiplicity = 1:

    H            2.885963379180    -0.136665565381    -1.823635743962
    O            1.965768907434    -0.293332503069    -1.935933705597
    C            1.280236035472     0.016735721114    -0.819687110077
    C            1.892960322024     0.518392211163     0.313681308680
    C           -0.088504904960    -0.192452587784    -0.833832433685
    H            2.956337696679     0.673237401595     0.327348929314
    C            1.132986557966     0.814951131418     1.429421683011
    H           -0.546266418193    -0.605738501257    -1.710681059908
    C           -0.837250032111     0.125625407896     0.279562860882
    H            1.615912675581     1.193945746044     2.309533867425
    C           -0.233077312702     0.628659017723     1.421051035338
    C           -2.312900316236    -0.133704200022     0.285504890249
    H           -0.818116258145     0.864741403470     2.289276162614
    O           -2.789885990162    -1.213607339736     0.268600333191
    H           -2.950152281172     0.753905821073     0.354917515280

  Mulliken Charges: (a.u.)
   Center  Symbol    Alpha    Beta     Spin     Total
       1     H     0.38649  0.38649  0.00000  0.22702
       2     O     4.17115  4.17115  0.00000 -0.34231
       3     C     2.83606  2.83606  0.00000  0.32787
       4     C     3.13919  3.13919  0.00000 -0.27837
       5     C     3.13156  3.13156  0.00000 -0.26311
       6     H     0.43257  0.43257  0.00000  0.13486
       7     C     3.05512  3.05512  0.00000 -0.11024
       8     H     0.41503  0.41503  0.00000  0.16994
       9     C     2.92840  2.92840  0.00000  0.14320
      10     H     0.41970  0.41970  0.00000  0.16059
      11     C     3.11680  3.11680  0.00000 -0.23359
      12     C     2.93075  2.93075  0.00000  0.13849
      13     H     0.42499  0.42499  0.00000  0.15002
      14     O     4.15595  4.15595  0.00000 -0.31191
      15     H     0.45623  0.45623  0.00000  0.08754

   Total alpha = 32.00000, Total beta = 32.00000, Total charge = -0.00000
