  ==> Input File <==

--------------------------------------------------------------------------
set {
	reference rhf
	basis 6-31G*
}

set_num_threads( 1 )
memory 2 gb

molecule MOL {
0 1

H	 3.053071	 -1.842872	 2.619686
C	 2.844186	 -1.579634	 1.587784
C	 1.548873	 -0.776712	 1.476231
H	 3.691599	 -1.011351	 1.214726
H	 2.788197	 -2.502225	 1.016875
C	 1.217350	 -0.386724	 0.039429
H	 1.615722	 0.127460	 2.073218
H	 0.727168	 -1.360137	 1.888308
N	 0.000003	 0.397874	 -0.023260
H	 2.025645	 0.217628	 -0.363537
H	 1.165236	 -1.287155	 -0.581767
C	 -1.217365	 -0.386708	 0.039277
H	 -0.000031	 1.072115	 0.718656
C	 -2.452633	 0.504241	 -0.042481
H	 -1.215291	 -1.074557	 -0.802042
H	 -1.269739	 -1.003477	 0.942735
C	 -3.758029	 -0.289423	 -0.010781
H	 -2.394220	 1.093569	 -0.952170
H	 -2.440793	 1.210787	 0.785871
H	 -3.816659	 -0.981993	 -0.845726
H	 -4.617837	 0.370165	 -0.069296
H	 -3.847478	 -0.867502	 0.904682

	symmetry c1
}
set optking {
	frozen_dihedral = ("
		15 12 14 18
	")
}

ee = energy('scf')
oeprop('DIPOLE', 'QUADRUPOLE', 'MULLIKEN_CHARGES')
f=open( 'psi4out.xyz', 'w' )
f.write( "22  " )
f.write( str(ee) + "\n" )
f.write( MOL.save_string_xyz() )
f.close()
--------------------------------------------------------------------------

    Molecular point group: c1

    Geometry (in Angstrom), charge = 0, multiplicity = 1:

       Center              X                  Y                   Z               Mass
    ------------   -----------------  -----------------  -----------------  -----------------
           H          3.313970490198    -1.473916454270     2.171063377502     1.007825032070
           C          3.105085490198    -1.210678454270     1.139161377502    12.000000000000
           C          1.809772490198    -0.407756454270     1.027608377502    12.000000000000
           H          3.952498490198    -0.642395454270     0.766103377502     1.007825032070
           H          3.049096490198    -2.133269454270     0.568252377502     1.007825032070
           C          1.478249490198    -0.017768454270    -0.409193622498    12.000000000000
           H          1.876621490198     0.496415545730     1.624595377502     1.007825032070
           H          0.988067490198    -0.991181454270     1.439685377502     1.007825032070
           N          0.260902490198     0.766829545730    -0.471882622498    14.003074004780
           H          2.286544490198     0.586583545730    -0.812159622498     1.007825032070
           H          1.426135490198    -0.918199454270    -1.030389622498     1.007825032070
           C         -0.956465509802    -0.017752454270    -0.409345622498    12.000000000000
           H          0.260868490198     1.441070545730     0.270033377502     1.007825032070
           C         -2.191733509802     0.873196545730    -0.491103622498    12.000000000000
           H         -0.954391509802    -0.705601454270    -1.250664622498     1.007825032070
           H         -1.008839509802    -0.634521454270     0.494112377502     1.007825032070
           C         -3.497129509802     0.079532545730    -0.459403622498    12.000000000000
           H         -2.133320509802     1.462524545730    -1.400792622498     1.007825032070
           H         -2.179893509802     1.579742545730     0.337248377502     1.007825032070
           H         -3.555759509802    -0.613037454270    -1.294348622498     1.007825032070
           H         -4.356937509802     0.739120545730    -0.517918622498     1.007825032070
           H         -3.586578509802    -0.498546454270     0.456059377502     1.007825032070

  Charge       = 0
  Multiplicity = 1
  Basis Set: 6-31G*
  Basis Set:

    Orbital Energies (a.u.)
    -----------------------

    Doubly Occupied:

       1A    -15.531448     2A    -11.238370     3A    -11.237160
       4A    -11.213808     5A    -11.212891     6A    -11.210699
       7A    -11.209341     8A     -1.206548     9A     -1.058348
      10A     -1.026001    11A     -0.928707    12A     -0.870251
      13A     -0.806740    14A     -0.804069    15A     -0.658466
      16A     -0.640481    17A     -0.615405    18A     -0.600234
      19A     -0.579570    20A     -0.554584    21A     -0.546481
      22A     -0.520276    23A     -0.510820    24A     -0.490998
      25A     -0.485716    26A     -0.475859    27A     -0.470021
      28A     -0.456630    29A     -0.350589

  @DF-RHF Final Energy:  -290.37825591089427

   => Energetics <=

    Nuclear Repulsion Energy =            318.0336055204929835
    One-Electron Energy =               -1021.8026227168858213
    Two-Electron Energy =                 413.3907612855005027
    DFT Exchange-Correlation Energy =       0.0000000000000000
    Empirical Dispersion Energy =           0.0000000000000000
    PCM Polarization Energy =               0.0000000000000000
    EFP Energy =                            0.0000000000000000
    Total Energy =                       -290.3782559108923351

  Mulliken Charges: (a.u.)
   Center  Symbol    Alpha    Beta     Spin     Total
       1     H     0.41847  0.41847  0.00000  0.16306
       2     C     3.24323  3.24323  0.00000 -0.48646
       3     C     3.16157  3.16157  0.00000 -0.32315
       4     H     0.42089  0.42089  0.00000  0.15823
       5     H     0.42119  0.42119  0.00000  0.15763
       6     C     3.05593  3.05593  0.00000 -0.11186
       7     H     0.42596  0.42596  0.00000  0.14807
       8     H     0.42005  0.42005  0.00000  0.15990
       9     N     3.85248  3.85248  0.00000 -0.70497
      10     H     0.41765  0.41765  0.00000  0.16469
      11     H     0.42049  0.42049  0.00000  0.15903
      12     C     3.05158  3.05158  0.00000 -0.10316
      13     H     0.33449  0.33449  0.00000  0.33103
      14     C     3.15444  3.15444  0.00000 -0.30888
      15     H     0.42148  0.42148  0.00000  0.15704
      16     H     0.43640  0.43640  0.00000  0.12721
      17     C     3.24318  3.24318  0.00000 -0.48636
      18     H     0.41289  0.41289  0.00000  0.17423
      19     H     0.42707  0.42707  0.00000  0.14586
      20     H     0.42083  0.42083  0.00000  0.15835
      21     H     0.41783  0.41783  0.00000  0.16434
      22     H     0.42191  0.42191  0.00000  0.15618

   Total alpha = 29.00000, Total beta = 29.00000, Total charge = -0.00000
