                              Psi4 1.0.54 Driver

  ==> Input File <==

--------------------------------------------------------------------------
set {
	reference rhf
	basis cc-pvtz
}

set_num_threads( 4 )
memory 2 gb

molecule MOL {
0 1

O	 2.765664	 -0.392496	 -0.110727
C	 1.704209	 0.119472	 -0.000093
C	 0.380337	 -0.600947	 -0.000234
O	 1.540877	 1.424703	 0.141723
C	 -0.824290	 0.329213	 -0.000115
H	 0.371455	 -1.255476	 -0.865660
H	 0.371410	 -1.255787	 0.864952
C	 -2.146151	 -0.432825	 -0.000068
H	 -0.773936	 0.979158	 -0.866319
H	 -0.773838	 0.979034	 0.866186
C	 -3.366283	 0.483552	 0.000557
H	 -2.189286	 -1.084450	 -0.869996
H	 -2.188867	 -1.085083	 0.869399
C	 -4.687436	 -0.278003	 0.000108
H	 -3.325150	 1.134819	 -0.867957
H	 -3.325087	 1.133730	 0.869885
H	 -4.773783	 -0.912098	 -0.876078
H	 -5.531922	 0.401392	 0.000363
H	 -4.773901	 -0.912898	 0.875703
C	 2.704729	 2.226245	 0.159106
H	 3.347782	 1.947007	 0.980521
H	 2.364852	 3.241840	 0.281158
H	 3.251455	 2.124751	 -0.766639

	symmetry c1
}
set optking {
	frozen_dihedral = ("
		1 2 3 6
	")
}

ee,wfn = optimize('scf', return_wfn=True)
oeprop( wfn, 'DIPOLE', 'QUADRUPOLE', 'MULLIKEN_CHARGES')
f=open( 'psi4out.xyz', 'w' )
f.write( "23  " )
f.write( str(ee) + "\n" )
f.write( MOL.save_string_xyz() )
f.close()
--------------------------------------------------------------------------

    Molecular point group: c1
  Charge       = 0
  Multiplicity = 1
  Basis Set: CC-PVTZ
  Basis Set:
  @DF-RHF Final Energy:  -423.12706880050996
    Total Energy =                       -423.1270688005097327
    Molecular point group: c1
  Basis Set: CC-PVTZ
  Basis Set:
  Basis Set: CC-PVTZ
  Basis Set:
  @DF-RHF Final Energy:  -423.12725654527515
    Total Energy =                       -423.1272565452757135
  Basis Set: CC-PVTZ
  Basis Set:
  Basis Set: CC-PVTZ
  Basis Set:
  @DF-RHF Final Energy:  -423.12844707335080
    Total Energy =                       -423.1284470733506851
  Basis Set: CC-PVTZ
  Basis Set:
  Basis Set: CC-PVTZ
  Basis Set:
  @DF-RHF Final Energy:  -423.12833134603181
    Total Energy =                       -423.1283313460313593
  Basis Set: CC-PVTZ
  Basis Set:
  Basis Set: CC-PVTZ
  Basis Set:
  @DF-RHF Final Energy:  -423.12850119613728
    Total Energy =                       -423.1285011961369946
  Basis Set: CC-PVTZ
  Basis Set:
  Basis Set: CC-PVTZ
  Basis Set:
  @DF-RHF Final Energy:  -423.12850717947083
    Total Energy =                       -423.1285071794706028
  Basis Set: CC-PVTZ
  Basis Set:
  Charge       = 0
  Multiplicity = 1
  Basis Set: CC-PVTZ
  Basis Set:

    Orbital Energies (a.u.)
    -----------------------

    Doubly Occupied:

       1A    -20.599342     2A    -20.529134     3A    -11.364840
       4A    -11.279403     5A    -11.233909     6A    -11.221340
       7A    -11.218152     8A    -11.217187     9A    -11.209695
      10A     -1.473344    11A     -1.363922    12A     -1.097106
      13A     -1.045671    14A     -0.984167    15A     -0.937085
      16A     -0.848922    17A     -0.797754    18A     -0.776610
      19A     -0.694652    20A     -0.687593    21A     -0.674072
      22A     -0.654730    23A     -0.611058    24A     -0.593590
      25A     -0.578571    26A     -0.562016    27A     -0.558744
      28A     -0.524500    29A     -0.522691    30A     -0.507362
      31A     -0.489304    32A     -0.483421    33A     -0.470361
      34A     -0.469979    35A     -0.455000    36A     -0.428380

  @DF-RHF Final Energy:  -423.12850754368066

   => Energetics <=

    Nuclear Repulsion Energy =            455.8277015481789363
    One-Electron Energy =               -1479.5852039593978589
    Two-Electron Energy =                 600.6289948675383812
    DFT Exchange-Correlation Energy =       0.0000000000000000
    Empirical Dispersion Energy =           0.0000000000000000
    PCM Polarization Energy =               0.0000000000000000
    EFP Energy =                            0.0000000000000000
    Total Energy =                       -423.1285075436804846
    Molecular point group: c1
  Basis Set: CC-PVTZ
  Basis Set:

  -Total Gradient:
     Atom            X                  Y                   Z
    ------   -----------------  -----------------  -----------------
       1       -0.000066749388     0.000000417615     0.000261696892
       2        0.000069188146    -0.000086008107    -0.000394227544
       3        0.000098499956    -0.000211535709     0.000314108811
       4        0.000023343024     0.000149249298     0.000007945083
       5       -0.000006814089     0.000013015479    -0.000006524498
       6       -0.000094628646     0.000185512831    -0.000161817044
       7        0.000005238790    -0.000001239730    -0.000001110141
       8       -0.000007670811    -0.000009033905    -0.000009008304
       9       -0.000007054399    -0.000003788868     0.000006393154
      10        0.000006721746    -0.000008096008    -0.000009607701
      11        0.000014040461     0.000005010416     0.000004656040
      12       -0.000006392131     0.000004149194     0.000001750762
      13        0.000000137991     0.000004092695    -0.000004163454
      14        0.000009116169    -0.000016680413    -0.000001374067
      15        0.000001084994    -0.000005692107     0.000005131088
      16        0.000005536861    -0.000001903933    -0.000003965851
      17       -0.000001295826     0.000001596536     0.000005921084
      18        0.000004409280     0.000004414107     0.000000773303
      19        0.000001350880     0.000003267375    -0.000006710602
      20       -0.000040678190    -0.000026679600    -0.000024883522
      21       -0.000003550744    -0.000005189021    -0.000002872628
      22        0.000000632576    -0.000000332238     0.000000082152
      23       -0.000004466653     0.000005454093     0.000017806989

  **** Optimization is complete! (in 7 steps) ****
    Final optimized geometry and variables:
    Molecular point group: c1

    Geometry (in Angstrom), charge = 0, multiplicity = 1:

    O            2.881218032905    -0.858061015636     0.044195612936
    C            1.876590499707    -0.230517282428     0.067123616626
    C            0.506967370074    -0.869987434184     0.060324544948
    O            1.852001815189     1.088225040374     0.113295305372
    C           -0.696832293703     0.059259519874    -0.044507724365
    H            0.517485799035    -1.581645989409    -0.756937299390
    H            0.455182763031    -1.462785235732     0.967648279807
    C           -2.014311161596    -0.711016620286    -0.056230787137
    H           -0.617581626106     0.656625032130    -0.946385385740
    H           -0.691200810720     0.758078760962     0.784010900400
    C           -3.238046711620     0.194506614268    -0.160008253811
    H           -2.016552517390    -1.412041655569    -0.887632985386
    H           -2.089687342290    -1.311959772101     0.847117198574
    C           -4.553882991066    -0.576100002408    -0.171059846465
    H           -3.164241278358     0.794353753162    -1.062868914040
    H           -3.237264422447     0.894411507675     0.670973530223
    H           -4.599732140272    -1.260585544112    -1.011551639441
    H           -5.401248477102     0.095575163918    -0.245560313742
    H           -4.673430778448    -1.159738877891     0.735655122722
    C            3.096860380573     1.758139351253     0.135006173590
    H            3.668663117812     1.469651610532     1.004240638594
    H            2.867084114104     2.810622262812     0.171425068995
    H            3.666781319373     1.530153191365    -0.753180818630

  Mulliken Charges: (a.u.)
   Center  Symbol    Alpha    Beta     Spin     Total
       1     O     4.20472  4.20472  0.00000 -0.40944
       2     C     2.81346  2.81346  0.00000  0.37307
       3     C     3.09309  3.09309  0.00000 -0.18618
       4     O     4.13968  4.13968  0.00000 -0.27937
       5     C     3.08372  3.08372  0.00000 -0.16744
       6     H     0.43743  0.43743  0.00000  0.12515
       7     H     0.43949  0.43949  0.00000  0.12102
       8     C     3.09101  3.09101  0.00000 -0.18202
       9     H     0.44920  0.44920  0.00000  0.10160
      10     H     0.44786  0.44786  0.00000  0.10428
      11     C     3.08421  3.08421  0.00000 -0.16842
      12     H     0.45432  0.45432  0.00000  0.09137
      13     H     0.45453  0.45453  0.00000  0.09094
      14     C     3.15030  3.15030  0.00000 -0.30060
      15     H     0.45395  0.45395  0.00000  0.09209
      16     H     0.45396  0.45396  0.00000  0.09209
      17     H     0.45478  0.45478  0.00000  0.09044
      18     H     0.44778  0.44778  0.00000  0.10444
      19     H     0.45483  0.45483  0.00000  0.09034
      20     C     3.03790  3.03790  0.00000 -0.07579
      21     H     0.45329  0.45329  0.00000  0.09343
      22     H     0.44727  0.44727  0.00000  0.10546
      23     H     0.45323  0.45323  0.00000  0.09354

   Total alpha = 36.00000, Total beta = 36.00000, Total charge = -0.00000

*** Psi4 exiting successfully. Buy a developer a beer!
