  ==> Input File <==

--------------------------------------------------------------------------
set {
	reference rhf
	basis 6-31G*
}

set_num_threads( 4 )
memory 2 gb

molecule MOL {
0 1

O	 0.625848	 1.349995	 -0.000749
C	 0.486307	 0.169203	 0.000779
C	 1.608116	 -0.841643	 0.000302
O	 -0.698257	 -0.426125	 0.001050
C	 2.990107	 -0.200498	 -0.000684
H	 1.468623	 -1.481519	 -0.865924
H	 1.469683	 -1.481289	 0.866878
H	 3.129736	 0.423364	 -0.875135
H	 3.757882	 -0.966877	 -0.001197
H	 3.130964	 0.423383	 0.873533
C	 -1.569248	 -0.157529	 1.094956
C	 -2.842533	 -0.943738	 0.864888
H	 -1.759124	 0.906130	 1.141441
H	 -1.080321	 -0.448498	 2.014673
H	 -3.317187	 -0.644509	 -0.062649
H	 -3.537904	 -0.767247	 1.679110
H	 -2.634787	 -2.006588	 0.815406

	symmetry c1
}
set optking {
	frozen_dihedral = ("
		11 4 2 3
	")
}

ee = optimize('scf')
oeprop('DIPOLE', 'QUADRUPOLE', 'MULLIKEN_CHARGES')
f=open( 'psi4out.xyz', 'w' )
f.write( "17  " )
f.write( str(ee) + "\n" )
f.write( MOL.save_string_xyz() )
f.close()
--------------------------------------------------------------------------

    Molecular point group: c1
  Charge       = 0
  Multiplicity = 1
  Basis Set: 6-31G*
  Basis Set:
  @DF-RHF Final Energy:  -344.89742695433688
    Total Energy =                       -344.8974269543372770
    Molecular point group: c1
  Basis Set: 6-31G*
  Basis Set:
  Basis Set: 6-31G*
  Basis Set:
  @DF-RHF Final Energy:  -344.89629543441197
    Total Energy =                       -344.8962954344119680
  Basis Set: 6-31G*
  Basis Set:
  Basis Set: 6-31G*
  Basis Set:
  @DF-RHF Final Energy:  -344.89805853700670
    Total Energy =                       -344.8980585370068184
  Basis Set: 6-31G*
  Basis Set:
  Basis Set: 6-31G*
  Basis Set:
  @DF-RHF Final Energy:  -344.89824928608778
    Total Energy =                       -344.8982492860877755
  Basis Set: 6-31G*
  Basis Set:
  Basis Set: 6-31G*
  Basis Set:
  @DF-RHF Final Energy:  -344.89826128247853
    Total Energy =                       -344.8982612824784155
  Basis Set: 6-31G*
  Basis Set:
  Basis Set: 6-31G*
  Basis Set:
  @DF-RHF Final Energy:  -344.89826282068645
    Total Energy =                       -344.8982628206864547
  Basis Set: 6-31G*
  Basis Set:
  Charge       = 0
  Multiplicity = 1
  Basis Set: 6-31G*
  Basis Set:

    Orbital Energies (a.u.)
    -----------------------

    Doubly Occupied:

       1A    -20.586383     2A    -20.552665     3A    -11.373601
       4A    -11.290917     5A    -11.240083     6A    -11.223342
       7A    -11.217374     8A     -1.459616     9A     -1.364120
      10A     -1.067273    11A     -1.033971    12A     -0.907208
      13A     -0.856314    14A     -0.769656    15A     -0.700132
      16A     -0.681759    17A     -0.659794    18A     -0.632438
      19A     -0.598558    20A     -0.563890    21A     -0.557519
      22A     -0.527601    23A     -0.523107    24A     -0.518098
      25A     -0.503731    26A     -0.492547    27A     -0.450122
      28A     -0.433614

  @DF-RHF Final Energy:  -344.89826303792984

   => Energetics <=

    Nuclear Repulsion Energy =            314.2409934786497843
    One-Electron Energy =               -1092.7076518648300407
    Two-Electron Energy =                 433.5683953482503625
    DFT Exchange-Correlation Energy =       0.0000000000000000
    Empirical Dispersion Energy =           0.0000000000000000
    PCM Polarization Energy =               0.0000000000000000
    EFP Energy =                            0.0000000000000000
    Total Energy =                       -344.8982630379298939
    Molecular point group: c1
  Basis Set: 6-31G*
  Basis Set:

  -Total Gradient:
     Atom            X                  Y                   Z
    ------   -----------------  -----------------  -----------------
       1        0.000064851770    -0.000048990760    -0.000182325209
       2        0.001370497604    -0.002330237715    -0.006721234335
       3       -0.000130130949    -0.000114907147     0.005989575951
       4       -0.003916860236     0.007771541560    -0.002464195399
       5        0.000021554679    -0.000023983088     0.000025601125
       6        0.000001658397     0.000041686351     0.000012066320
       7       -0.000005095046     0.000019526978     0.000026980343
       8        0.000006420224     0.000003877946    -0.000016421939
       9        0.000008032098     0.000010443638    -0.000004176548
      10       -0.000009334894    -0.000004409540     0.000001218283
      11        0.002594085441    -0.005322544169     0.003335660259
      12       -0.000004753117    -0.000000105547     0.000005191761
      13       -0.000000730903     0.000003856011     0.000005176091
      14        0.000001502656     0.000002013820    -0.000016521160
      15        0.000002541046     0.000000253387     0.000002306218
      16       -0.000002754090    -0.000002164804     0.000002006320
      17       -0.000001484681    -0.000005856922    -0.000000908080

  **** Optimization is complete! (in 7 steps) ****
    Final optimized geometry and variables:
    Molecular point group: c1

    Geometry (in Angstrom), charge = 0, multiplicity = 1:

    O            0.548941761060     1.485659288888    -0.178290573257
    C            0.424951054553     0.310740941223    -0.261554264535
    C            1.562186754283    -0.680293881175    -0.259889898633
    O           -0.776086219691    -0.293277962269    -0.292495171896
    C            2.936851029641    -0.033277630850    -0.367717492577
    H            1.391363466758    -1.394181983523    -1.059658310304
    H            1.464309577666    -1.246205385749     0.664006133106
    H            3.034724193243     0.518719432862    -1.295218902424
    H            3.712405890354    -0.791216105538    -0.339862642690
    H            3.105708286397     0.660182683749     0.446698603074
    C           -1.657531581024    -0.037705468355     0.794534136289
    C           -2.952385795531    -0.772488978887     0.522436133763
    H           -1.818445438968     1.027864588459     0.883717092044
    H           -1.194811396289    -0.393127860389     1.710046033026
    H           -3.404493631062    -0.414424807248    -0.395017448867
    H           -3.649933018281    -0.610894803143     1.337998193545
    H           -2.775475628227    -1.837391623840     0.425158785910

  Mulliken Charges: (a.u.)
   Center  Symbol    Alpha    Beta     Spin     Total
       1     O     4.26600  4.26600  0.00000 -0.53200
       2     C     2.60693  2.60693  0.00000  0.78614
       3     C     3.20726  3.20726  0.00000 -0.41452
       4     O     4.32240  4.32240  0.00000 -0.64479
       5     C     3.24018  3.24018  0.00000 -0.48036
       6     H     0.39970  0.39970  0.00000  0.20060
       7     H     0.40471  0.40471  0.00000  0.19057
       8     H     0.41072  0.41072  0.00000  0.17856
       9     H     0.41782  0.41782  0.00000  0.16436
      10     H     0.40857  0.40857  0.00000  0.18286
      11     C     3.00318  3.00318  0.00000 -0.00636
      12     C     3.24767  3.24767  0.00000 -0.49534
      13     H     0.40493  0.40493  0.00000  0.19013
      14     H     0.42272  0.42272  0.00000  0.15457
      15     H     0.40820  0.40820  0.00000  0.18359
      16     H     0.41709  0.41709  0.00000  0.16583
      17     H     0.41193  0.41193  0.00000  0.17615

   Total alpha = 28.00000, Total beta = 28.00000, Total charge =  0.00000
