  ==> Input File <==

--------------------------------------------------------------------------
set {
	reference rhf
	basis 6-31G*
}

set_num_threads( 1 )
memory 2 gb

molecule MOL {
0 1

H	 -1.836216	 1.387520	 -0.000064
C	 -1.301823	 0.443321	 -0.000031
O	 -0.003969	 0.658512	 0.000451
O	 -1.829879	 -0.616434	 -0.000857
C	 0.509653	 1.569020	 0.972230
C	 2.007924	 1.647286	 0.773789
H	 0.253317	 1.207353	 1.958539
H	 0.035104	 2.530859	 0.834515
H	 2.465231	 0.673637	 0.907619
H	 2.439584	 2.331942	 1.496387
H	 2.246131	 2.003536	 -0.221817

	symmetry c1
}
set optking {
	frozen_dihedral = ("
		7 5 3 2
	")
}

ee = energy('scf')
oeprop('DIPOLE', 'QUADRUPOLE', 'MULLIKEN_CHARGES')
f=open( 'psi4out.xyz', 'w' )
f.write( "11  " )
f.write( str(ee) + "\n" )
f.write( MOL.save_string_xyz() )
f.close()
--------------------------------------------------------------------------

    Molecular point group: c1

    Geometry (in Angstrom), charge = 0, multiplicity = 1:

       Center              X                  Y                   Z               Mass
    ------------   -----------------  -----------------  -----------------  -----------------
           H         -1.713355464752     0.647310729136    -0.350693406076     1.007825032070
           C         -1.178962464752    -0.296888270864    -0.350660406076    12.000000000000
           O          0.118891535248    -0.081697270864    -0.350178406076    15.994914619560
           O         -1.707018464752    -1.356643270864    -0.351486406076    15.994914619560
           C          0.632513535248     0.828810729136     0.621600593924    12.000000000000
           C          2.130784535248     0.907076729136     0.423159593924    12.000000000000
           H          0.376177535248     0.467143729136     1.607909593924     1.007825032070
           H          0.157964535248     1.790649729136     0.483885593924     1.007825032070
           H          2.588091535248    -0.066572270864     0.556989593924     1.007825032070
           H          2.562444535248     1.591732729136     1.145757593924     1.007825032070
           H          2.368991535248     1.263326729136    -0.572446406076     1.007825032070

  Charge       = 0
  Multiplicity = 1
  Basis Set: 6-31G*
  Basis Set:

    Orbital Energies (a.u.)
    -----------------------

    Doubly Occupied:

       1A    -20.603002     2A    -20.562979     3A    -11.379547
       4A    -11.308564     5A    -11.234330     6A     -1.471078
       7A     -1.379415     8A     -1.056508     9A     -0.890724
      10A     -0.843757    11A     -0.740448    12A     -0.691594
      13A     -0.662412    14A     -0.621364    15A     -0.567226
      16A     -0.554157    17A     -0.536391    18A     -0.510328
      19A     -0.463309    20A     -0.451185

  @DF-RHF Final Energy:  -266.81251708468710

   => Energetics <=

    Nuclear Repulsion Energy =            176.4776150241527546
    One-Electron Energy =                -713.5238204992335795
    Two-Electron Energy =                 270.2336883903930698
    DFT Exchange-Correlation Energy =       0.0000000000000000
    Empirical Dispersion Energy =           0.0000000000000000
    PCM Polarization Energy =               0.0000000000000000
    EFP Energy =                            0.0000000000000000
    Total Energy =                       -266.8125170846877268

  Mulliken Charges: (a.u.)
   Center  Symbol    Alpha    Beta     Spin     Total
       1     H     0.43467  0.43467  0.00000  0.13067
       2     C     2.72401  2.72401  0.00000  0.55197
       3     O     4.29044  4.29044  0.00000 -0.58088
       4     O     4.24011  4.24011  0.00000 -0.48022
       5     C     3.00837  3.00837  0.00000 -0.01673
       6     C     3.24733  3.24733  0.00000 -0.49466
       7     H     0.41062  0.41062  0.00000  0.17876
       8     H     0.41789  0.41789  0.00000  0.16421
       9     H     0.40387  0.40387  0.00000  0.19227
      10     H     0.41540  0.41540  0.00000  0.16921
      11     H     0.40730  0.40730  0.00000  0.18540

   Total alpha = 20.00000, Total beta = 20.00000, Total charge =  0.00000
