                              Psi4 1.0.54 Driver

  ==> Input File <==

--------------------------------------------------------------------------
set {
	reference rhf
	basis cc-pvtz
}

set_num_threads( 4 )
memory 2 gb

molecule MOL {
0 1

O	 1.847685	 1.294399	 -0.000190
C	 1.704209	 0.119472	 -0.000093
C	 0.380337	 -0.600947	 -0.000234
O	 2.715427	 -0.733672	 0.000025
C	 -0.824290	 0.329213	 -0.000115
H	 0.371455	 -1.255476	 -0.865660
H	 0.371410	 -1.255787	 0.864952
C	 -2.146151	 -0.432825	 -0.000068
H	 -0.773936	 0.979158	 -0.866319
H	 -0.773838	 0.979034	 0.866186
C	 -3.366283	 0.483552	 0.000557
H	 -2.189286	 -1.084450	 -0.869996
H	 -2.188867	 -1.085083	 0.869399
C	 -3.149508	 1.770246	 -0.788645
H	 -3.628848	 0.729162	 1.025688
H	 -4.216855	 -0.052762	 -0.410606
H	 -2.326126	 2.346554	 -0.379812
H	 -4.033513	 2.397008	 -0.767709
H	 -2.919172	 1.558469	 -1.827553
C	 4.020999	 -0.192556	 0.000019
H	 4.182809	 0.412891	 -0.879449
H	 4.692590	 -1.035653	 0.000152
H	 4.182726	 0.413087	 0.879368

	symmetry c1
}
set optking {
	frozen_dihedral = ("
		15 11 8 12
	")
}

ee,wfn = optimize('scf', return_wfn=True)
oeprop( wfn, 'DIPOLE', 'QUADRUPOLE', 'MULLIKEN_CHARGES')
f=open( 'psi4out.xyz', 'w' )
f.write( "23  " )
f.write( str(ee) + "\n" )
f.write( MOL.save_string_xyz() )
f.close()
--------------------------------------------------------------------------

    Molecular point group: c1
  Charge       = 0
  Multiplicity = 1
  Basis Set: CC-PVTZ
  Basis Set:
  @DF-RHF Final Energy:  -423.12396395758992
    Total Energy =                       -423.1239639575899218
    Molecular point group: c1
  Basis Set: CC-PVTZ
  Basis Set:
  Basis Set: CC-PVTZ
  Basis Set:
  @DF-RHF Final Energy:  -423.08112048683847
    Total Energy =                       -423.0811204868380173
  Basis Set: CC-PVTZ
  Basis Set:
  Basis Set: CC-PVTZ
  Basis Set:
  @DF-RHF Final Energy:  -423.12477073609381
    Total Energy =                       -423.1247707360930690
  Basis Set: CC-PVTZ
  Basis Set:
  Basis Set: CC-PVTZ
  Basis Set:
  @DF-RHF Final Energy:  -423.12645459727986
    Total Energy =                       -423.1264545972801443
  Basis Set: CC-PVTZ
  Basis Set:
  @DF-RHF Final Energy:  -423.12658279221318
    Total Energy =                       -423.1265827922125027
  Basis Set: CC-PVTZ
  Basis Set:
  @DF-RHF Final Energy:  -423.12658653020134
    Total Energy =                       -423.1265865302011662
  Basis Set: CC-PVTZ
  Basis Set:
  Basis Set: CC-PVTZ
  Basis Set:
  @DF-RHF Final Energy:  -423.12657826429341
    Total Energy =                       -423.1265782642933573
  Basis Set: CC-PVTZ
  Basis Set:
  Basis Set: CC-PVTZ
  Basis Set:
  @DF-RHF Final Energy:  -423.12659481005346
    Total Energy =                       -423.1265948100538026
  Basis Set: CC-PVTZ
  Basis Set:
  Charge       = 0
  Multiplicity = 1
  Basis Set: CC-PVTZ
  Basis Set:

    Orbital Energies (a.u.)
    -----------------------

    Doubly Occupied:

       1A    -20.596272     2A    -20.534086     3A    -11.364486
       4A    -11.278445     5A    -11.233641     6A    -11.216891
       7A    -11.215965     8A    -11.214803     9A    -11.205872
      10A     -1.472168    11A     -1.365736    12A     -1.093548
      13A     -1.042232    14A     -0.985990    15A     -0.932058
      16A     -0.859907    17A     -0.781106    18A     -0.767832
      19A     -0.698836    20A     -0.686557    21A     -0.676110
      22A     -0.646523    23A     -0.610772    24A     -0.599139
      25A     -0.592206    26A     -0.559450    27A     -0.537198
      28A     -0.526299    29A     -0.520595    30A     -0.518003
      31A     -0.493038    32A     -0.464062    33A     -0.463676
      34A     -0.460918    35A     -0.454555    36A     -0.438357

  @DF-RHF Final Energy:  -423.12659515304472

   => Energetics <=

    Nuclear Repulsion Energy =            458.5346892389295590
    One-Electron Energy =               -1485.1078988665381075
    Two-Electron Energy =                 603.4466144745642850
    DFT Exchange-Correlation Energy =       0.0000000000000000
    Empirical Dispersion Energy =           0.0000000000000000
    PCM Polarization Energy =               0.0000000000000000
    EFP Energy =                            0.0000000000000000
    Total Energy =                       -423.1265951530442635
    Molecular point group: c1
  Basis Set: CC-PVTZ
  Basis Set:

  -Total Gradient:
     Atom            X                  Y                   Z
    ------   -----------------  -----------------  -----------------
       1       -0.000013501347    -0.000040313344     0.000003200926
       2        0.000005665508     0.000039901572    -0.000014210197
       3        0.000015913833    -0.000003662564     0.000008904510
       4       -0.000006821117    -0.000002242079     0.000005431344
       5        0.000008181682     0.000011237015    -0.000003163939
       6       -0.000001083773     0.000001685534     0.000011598544
       7        0.000000151810     0.000004811326    -0.000001032951
       8        0.002053441077     0.004771255264    -0.002269838545
       9        0.000000437875    -0.000009571459     0.000002107651
      10        0.000002040422    -0.000001997699    -0.000013953693
      11        0.002888014489     0.004554126305     0.001806767688
      12       -0.002183035537    -0.004733450145     0.001622401857
      13        0.000003938693     0.000005032033    -0.000008515707
      14       -0.000001537736    -0.000014017723     0.000004796870
      15       -0.002755660897    -0.004576571376    -0.001157615061
      16        0.000000939128     0.000008155366     0.000003387610
      17       -0.000008616576    -0.000008256369    -0.000002905164
      18        0.000004163929    -0.000001980984    -0.000003351593
      19       -0.000000042648    -0.000001699619     0.000008630593
      20       -0.000003323356     0.000011353488    -0.000002488956
      21       -0.000001859826    -0.000011261491     0.000009923508
      22       -0.000004653482     0.000001015554     0.000000719319
      23       -0.000002752159    -0.000003548607    -0.000010794612

  **** Optimization is complete! (in 9 steps) ****
    Final optimized geometry and variables:
    Molecular point group: c1

    Geometry (in Angstrom), charge = 0, multiplicity = 1:

    O            1.645812241327     1.085749229524     0.443879991413
    C            1.566093853965    -0.043418081733     0.097785549627
    C            0.283574683023    -0.791098442365    -0.162248303658
    O            2.621734704592    -0.813461730417    -0.109830276175
    C           -0.968669131944     0.044585136301     0.062062445017
    H            0.329773032614    -1.162828301730    -1.180724141949
    H            0.290221763829    -1.670366900924     0.473354420962
    C           -2.239103272469    -0.749921574940    -0.223504342509
    H           -0.920153313564     0.925274680702    -0.564808269932
    H           -0.979308140384     0.402861136815     1.085759498469
    C           -3.561435341889    -0.033262560549     0.089222200386
    H           -2.250470964761    -1.096381427128    -1.254078317664
    H           -2.215636019096    -1.662563106911     0.367761066606
    C           -3.637530804700     1.436860762520    -0.308839031292
    H           -3.797236315569    -0.155745818078     1.142225875231
    H           -4.351687135270    -0.569291582489    -0.428980078336
    H           -2.942254169094     2.047627691775     0.253417883773
    H           -4.633409905819     1.825616365177    -0.130499225734
    H           -3.417082588978     1.569878205263    -1.363225849428
    C            3.895665614866    -0.238095040536     0.097775501310
    H            4.045917690720     0.603879344583    -0.561545143834
    H            4.611702954470    -1.013760896726    -0.120181232611
    H            4.003099802728     0.091719356541     1.120463942346

  Mulliken Charges: (a.u.)
   Center  Symbol    Alpha    Beta     Spin     Total
       1     O     4.19722  4.19722  0.00000 -0.39443
       2     C     2.80609  2.80609  0.00000  0.38781
       3     C     3.10299  3.10299  0.00000 -0.20598
       4     O     4.14629  4.14629  0.00000 -0.29258
       5     C     3.08595  3.08595  0.00000 -0.17190
       6     H     0.43998  0.43998  0.00000  0.12004
       7     H     0.43909  0.43909  0.00000  0.12182
       8     C     3.09964  3.09964  0.00000 -0.19929
       9     H     0.44321  0.44321  0.00000  0.11358
      10     H     0.44540  0.44540  0.00000  0.10920
      11     C     3.08847  3.08847  0.00000 -0.17693
      12     H     0.45248  0.45248  0.00000  0.09504
      13     H     0.45299  0.45299  0.00000  0.09402
      14     C     3.15666  3.15666  0.00000 -0.31331
      15     H     0.45215  0.45215  0.00000  0.09571
      16     H     0.45125  0.45125  0.00000  0.09750
      17     H     0.44896  0.44896  0.00000  0.10208
      18     H     0.44544  0.44544  0.00000  0.10912
      19     H     0.45390  0.45390  0.00000  0.09221
      20     C     3.03775  3.03775  0.00000 -0.07549
      21     H     0.45434  0.45434  0.00000  0.09131
      22     H     0.44536  0.44536  0.00000  0.10927
      23     H     0.45440  0.45440  0.00000  0.09121

   Total alpha = 36.00000, Total beta = 36.00000, Total charge = -0.00000

*** Psi4 exiting successfully. Buy a developer a beer!
