  ==> Input File <==

--------------------------------------------------------------------------
set {
	reference rhf
	basis 6-31G*
}

set_num_threads( 4 )
memory 2 gb

molecule MOL {
0 1

H	 -3.892951	 0.981613	 -0.358725
C	 -3.196921	 0.361773	 0.172313
C	 -2.076860	 -0.007332	 -0.404944
H	 -3.439953	 0.057760	 1.173024
O	 -1.861770	 -1.287494	 -0.807166
H	 -1.275239	 0.679853	 -0.610799
C	 -0.592965	 -1.633858	 -1.245361
C	 0.302341	 -2.044463	 -0.098136
H	 -0.106780	 -0.825854	 -1.780571
H	 -0.692968	 -2.481535	 -1.907122
F	 1.488249	 -2.400441	 -0.570055
F	 0.491467	 -1.052380	 0.756167
F	 -0.190214	 -3.064607	 0.573493

	symmetry c1
}
set optking {
	frozen_dihedral = ("
		6 3 2 1
	")
}

ee = optimize('scf')
oeprop('DIPOLE', 'QUADRUPOLE', 'MULLIKEN_CHARGES')
f=open( 'psi4out.xyz', 'w' )
f.write( "13  " )
f.write( str(ee) + "\n" )
f.write( MOL.save_string_xyz() )
f.close()
--------------------------------------------------------------------------

    Molecular point group: c1
  Charge       = 0
  Multiplicity = 1
  Basis Set: 6-31G*
  Basis Set:
  @DF-RHF Final Energy:  -527.43365092447289
    Total Energy =                       -527.4336509244726585
    Molecular point group: c1
  Basis Set: 6-31G*
  Basis Set:
  Basis Set: 6-31G*
  Basis Set:
  @DF-RHF Final Energy:  -527.46500733149969
    Total Energy =                       -527.4650073315001464
  Basis Set: 6-31G*
  Basis Set:
  Basis Set: 6-31G*
  Basis Set:
  @DF-RHF Final Energy:  -527.49490740817362
    Total Energy =                       -527.4949074081735034
  Basis Set: 6-31G*
  Basis Set:
  Basis Set: 6-31G*
  Basis Set:
  @DF-RHF Final Energy:  -527.50044158579999
    Total Energy =                       -527.5004415858002176
  Basis Set: 6-31G*
  Basis Set:
  @DF-RHF Final Energy:  -527.50087790802877
    Total Energy =                       -527.5008779080289969
  @DF-RHF Final Energy:  -527.50089483873182
    Total Energy =                       -527.5008948387317105
  @DF-RHF Final Energy:  -527.38737363593623
    Total Energy =                       -527.3873736359361146
  @DF-RHF Final Energy:  -527.48537041799113
    Total Energy =                       -527.4853704179909073
  @DF-RHF Final Energy:  -527.36994908952920
    Total Energy =                       -527.3699490895293138
  @DF-RHF Final Energy:  -527.46008961057316
    Total Energy =                       -527.4600896105736183
  @DF-RHF Final Energy:  -527.49708505231501
    Total Energy =                       -527.4970850523150148
  @DF-RHF Final Energy:  -527.50057545657046
    Total Energy =                       -527.5005754565703455
  @DF-RHF Final Energy:  -527.50083716725294
    Total Energy =                       -527.5008371672530529
  @DF-RHF Final Energy:  -527.50088645484880
    Total Energy =                       -527.5008864548487963
  @DF-RHF Final Energy:  -527.50089552934730
    Total Energy =                       -527.5008955293474173
  @DF-RHF Final Energy:  -527.50089563684287
    Total Energy =                       -527.5008956368430972
  @DF-RHF Final Energy:  -527.50088620363999
    Total Energy =                       -527.5008862036399933
  @DF-RHF Final Energy:  -527.50077056729378
    Total Energy =                       -527.5007705672937846
  @DF-RHF Final Energy:  -527.50089499953106
    Total Energy =                       -527.5008949995310559
  @DF-RHF Final Energy:  -527.50089122262932
    Total Energy =                       -527.5008912226294342
  @DF-RHF Final Energy:  -527.50089214870923
    Total Energy =                       -527.5008921487093403
  @DF-RHF Final Energy:  -527.50088807315888
    Total Energy =                       -527.5008880731586487
  @DF-RHF Final Energy:  -527.49768151995545
    Total Energy =                       -527.4976815199554494
  @DF-RHF Final Energy:  -527.50088720623921
    Total Energy =                       -527.5008872062389855
  @DF-RHF Final Energy:  -527.50089119260235
    Total Energy =                       -527.5008911926024666
  @DF-RHF Final Energy:  -527.50089086104845
    Total Energy =                       -527.5008908610484468
  @DF-RHF Final Energy:  -527.50089060964262
    Total Energy =                       -527.5008906096425108
  @DF-RHF Final Energy:  -527.50086854229289
    Total Energy =                       -527.5008685422933468
  @DF-RHF Final Energy:  -527.50089080927523
    Total Energy =                       -527.5008908092752336
  @DF-RHF Final Energy:  -527.50089055326885
    Total Energy =                       -527.5008905532689596
  @DF-RHF Final Energy:  -527.44913241638187
    Total Energy =                       -527.4491324163820991
  @DF-RHF Final Energy:  -527.30565685153238
    Total Energy =                       -527.3056568515323761
  @DF-RHF Final Energy:  -527.44913241596396
    Total Energy =                       -527.4491324159635042
  @DF-RHF Final Energy:  -527.49608247534024
    Total Energy =                       -527.4960824753402449
  @DF-RHF Final Energy:  -527.49973828051793
    Total Energy =                       -527.4997382805179313
  @DF-RHF Final Energy:  -527.50061738291242
    Total Energy =                       -527.5006173829121963
  Basis Set: 6-31G*
  Basis Set:
  @DF-RHF Final Energy:  -527.50077493583331
    Total Energy =                       -527.5007749358330784
  Basis Set: 6-31G*
  Basis Set:
  Basis Set: 6-31G*
  Basis Set:
  @DF-RHF Final Energy:  -527.50085685154090
    Total Energy =                       -527.5008568515405614
  Basis Set: 6-31G*
  Basis Set:
  Basis Set: 6-31G*
  Basis Set:
  @DF-RHF Final Energy:  -527.50088295269211
    Total Energy =                       -527.5008829526918817
  Basis Set: 6-31G*
  Basis Set:
  Charge       = 0
  Multiplicity = 1
  Basis Set: 6-31G*
  Basis Set:

    Orbital Energies (a.u.)
    -----------------------

    Doubly Occupied:

       1A    -26.346770     2A    -26.344240     3A    -26.342929
       4A    -20.609398     5A    -11.504135     6A    -11.317692
       7A    -11.311199     8A    -11.216315     9A     -1.741647
      10A     -1.641849    11A     -1.639534    12A     -1.436747
      13A     -1.085876    14A     -1.015287    15A     -0.924004
      16A     -0.838940    17A     -0.831875    18A     -0.822474
      19A     -0.794789    20A     -0.721410    21A     -0.712098
      22A     -0.694735    23A     -0.673481    24A     -0.662155
      25A     -0.653164    26A     -0.645235    27A     -0.636965
      28A     -0.577917    29A     -0.556927    30A     -0.518709
      31A     -0.506358    32A     -0.348917

  @DF-RHF Final Energy:  -527.49952398694290

   => Energetics <=

    Nuclear Repulsion Energy =            415.0069168157797890
    One-Electron Energy =               -1553.6653423099112388
    Two-Electron Energy =                 611.1589015071881477
    DFT Exchange-Correlation Energy =       0.0000000000000000
    Empirical Dispersion Energy =           0.0000000000000000
    PCM Polarization Energy =               0.0000000000000000
    EFP Energy =                            0.0000000000000000
    Total Energy =                       -527.4995239869433590
    Molecular point group: c1
  Basis Set: 6-31G*
  Basis Set:

  -Total Gradient:
     Atom            X                  Y                   Z
    ------   -----------------  -----------------  -----------------
       1       -0.015571443190    -0.012168060428    -0.027496154195
       2        0.033736400868     0.001176046765     0.050052208581
       3       -0.024701211406     0.038051068995    -0.037017151450
       4        0.000605323756    -0.001422516243    -0.005032458902
       5       -0.005303058979    -0.004446183141     0.001061652623
       6        0.010929465877    -0.020687755496     0.018952705423
       7       -0.001288119921    -0.000540324160     0.000230328326
       8        0.003304014001    -0.005922763600     0.002406113023
       9        0.001052202581     0.001507130145    -0.000154267605
      10        0.001326759726    -0.000922829906     0.001139918212
      11        0.000543508932     0.001978461056    -0.003191994582
      12       -0.001045058616     0.003712651573     0.000071167502
      13       -0.003588783626    -0.000314925564    -0.001022066955

    Molecular point group: c1

    Geometry (in Angstrom), charge = 0, multiplicity = 1:

    H           -2.812260462024     2.989418906211     0.746892605773
    C           -2.337665470032     2.031468818158     0.665235146783
    C           -1.526881255415     1.556123328874    -0.269980579181
    H           -3.207619637825     1.476297265729     0.961886736959
    O           -1.178016271156     0.292347289141    -0.742236476618
    H           -0.615324942666     2.108276301972    -0.138808160831
    C            0.166434544597     0.010174604674    -0.973305214254
    C            0.902337245603    -0.723362262650     0.109486595906
    H            0.731681513982     0.957066820408    -1.252952718079
    H            0.242074022774    -0.728649420047    -1.727251181038
    F            2.142153277420    -0.776316908310    -0.391979452436
    F            0.797204995723     0.154886252352     1.056515929073
    F            0.118652378872    -1.801118344859     0.331128542702

  Mulliken Charges: (a.u.)
   Center  Symbol    Alpha    Beta     Spin     Total
       1     H     0.40643  0.40643  0.00000  0.18714
       2     C     3.22888  3.22888  0.00000 -0.45776
       3     C     2.90263  2.90263  0.00000  0.19475
       4     H     0.40730  0.40730  0.00000  0.18541
       5     O     4.29671  4.29671  0.00000 -0.59342
       6     H     0.40456  0.40456  0.00000  0.19087
       7     C     3.06408  3.06408  0.00000 -0.12816
       8     C     2.45402  2.45402  0.00000  1.09196
       9     H     0.40659  0.40659  0.00000  0.18682
      10     H     0.39169  0.39169  0.00000  0.21663
      11     F     4.68247  4.68247  0.00000 -0.36494
      12     F     4.68045  4.68045  0.00000 -0.36091
      13     F     4.67420  4.67420  0.00000 -0.34839

   Total alpha = 32.00000, Total beta = 32.00000, Total charge =  0.00000
