  ==> Input File <==

--------------------------------------------------------------------------
set {
	reference rhf
	basis cc-pvtz
}

set_num_threads( 4 )
memory 2 gb

molecule MOL {
0 1

H	 -3.322000	 0.549000	 0.000000
C	 -2.271000	 0.323000	 0.000000
C	 -1.834000	 -0.997000	 0.000000
C	 -1.335000	 1.337000	 -0.000000
H	 -2.549000	 -1.801000	 0.000000
C	 -0.487000	 -1.291000	 -0.000000
H	 -1.655000	 2.364000	 -0.000000
C	 0.027000	 1.057000	 -0.000000
H	 -0.136000	 -2.306000	 0.000000
C	 0.452000	 -0.262000	 -0.000000
H	 0.730000	 1.867000	 -0.000000
O	 1.745000	 -0.650000	 -0.000000
C	 2.758000	 0.314000	 0.000000
H	 2.711000	 0.940000	 -0.885000
H	 3.692000	 -0.229000	 0.000000
H	 2.711000	 0.940000	 0.885000

	symmetry c1
}
ee = optimize('scf')
oeprop('DIPOLE', 'QUADRUPOLE', 'MULLIKEN_CHARGES')
f=open( 'psi4out.xyz', 'w' )
f.write( "16  " )
f.write( str(ee) + "\n" )
f.write( MOL.save_string_xyz() )
f.close()
--------------------------------------------------------------------------

    Molecular point group: c1
  Charge       = 0
  Multiplicity = 1
  Basis Set: CC-PVTZ
  Basis Set:
  @DF-RHF Final Energy:  -344.70363344951727
    Total Energy =                       -344.7036334495170991
    Molecular point group: c1
  Basis Set: CC-PVTZ
  Basis Set:
  Basis Set: CC-PVTZ
  Basis Set:
  @DF-RHF Final Energy:  -344.70375197190140
    Total Energy =                       -344.7037519719017951
  Basis Set: CC-PVTZ
  Basis Set:
  Basis Set: CC-PVTZ
  Basis Set:
  @DF-RHF Final Energy:  -344.70375735977728
    Total Energy =                       -344.7037573597774553
  Basis Set: CC-PVTZ
  Basis Set:
  Charge       = 0
  Multiplicity = 1
  Basis Set: CC-PVTZ
  Basis Set:

    Orbital Energies (a.u.)
    -----------------------

    Doubly Occupied:

       1A    -20.580709     2A    -11.293787     3A    -11.278586
       4A    -11.231233     5A    -11.229997     6A    -11.221796
       7A    -11.217967     8A    -11.216842     9A     -1.420258
      10A     -1.150928    11A     -1.025821    12A     -1.016625
      13A     -0.944445    14A     -0.834527    15A     -0.808286
      16A     -0.726444    17A     -0.667828    18A     -0.666373
      19A     -0.661291    20A     -0.619483    21A     -0.590117
      22A     -0.579342    23A     -0.528315    24A     -0.523825
      25A     -0.512487    26A     -0.478708    27A     -0.467955
      28A     -0.339777    29A     -0.309937

  @DF-RHF Final Energy:  -344.70375779539762

   => Energetics <=

    Nuclear Repulsion Energy =            348.9248066739950787
    One-Electron Energy =               -1158.9697501165640006
    Two-Electron Energy =                 465.3411856471712440
    DFT Exchange-Correlation Energy =       0.0000000000000000
    Empirical Dispersion Energy =           0.0000000000000000
    PCM Polarization Energy =               0.0000000000000000
    EFP Energy =                            0.0000000000000000
    Total Energy =                       -344.7037577953976211
    Molecular point group: c1
  Basis Set: CC-PVTZ
  Basis Set:

  -Total Gradient:
     Atom            X                  Y                   Z
    ------   -----------------  -----------------  -----------------
       1        0.000010391028     0.000007410397     0.000000000001
       2       -0.000048899914    -0.000052492998    -0.000000000393
       3       -0.000047438403    -0.000000801197     0.000000000700
       4        0.000046231390     0.000041862694     0.000000000305
       5        0.000004981493     0.000000892352    -0.000000000114
       6        0.000048059860     0.000002072506     0.000000000812
       7       -0.000000212361    -0.000002512805     0.000000000003
       8        0.000021773271     0.000029004760     0.000000000660
       9       -0.000009286652     0.000002860297    -0.000000000029
      10        0.000041669820    -0.000089645609    -0.000000003362
      11        0.000029778647     0.000001645778     0.000000000184
      12       -0.000012396610     0.000071686879     0.000000001158
      13       -0.000058809945    -0.000015133226    -0.000000000094
      14       -0.000007087310     0.000000966636     0.000001024998
      15       -0.000011667072     0.000001216933     0.000000000127
      16       -0.000007087241     0.000000966604    -0.000001024956

  **** Optimization is complete! (in 4 steps) ****
    Final optimized geometry and variables:
    Molecular point group: c1

    Geometry (in Angstrom), charge = 0, multiplicity = 1:

    H           -3.294565344570     0.569785054379     0.000000011996
    C           -2.246225142757     0.343737062315     0.000000005707
    C           -1.809462550112    -0.973483702957     0.000000006849
    C           -1.312577722306     1.353775325235     0.000000002239
    H           -2.523539903440    -1.775123296023     0.000000013018
    C           -0.467257671864    -1.267605497581    -0.000000002508
    H           -1.631287573673     2.379013763022     0.000000006544
    C            0.046965683961     1.074395926815    -0.000000005356
    H           -0.119372588324    -2.281827925964    -0.000000000515
    C            0.471771714486    -0.241513847878    -0.000000013919
    H            0.748160994379     1.882966045433    -0.000000002309
    O            1.760431460975    -0.625183357007    -0.000000003286
    C            2.773564853716     0.334878864536     0.000000006507
    H            2.728294016746     0.960928189420    -0.884149833550
    H            3.706386386221    -0.206609967887     0.000000016699
    H            2.728293999038     0.960928188925     0.884149846004

  Mulliken Charges: (a.u.)
   Center  Symbol    Alpha    Beta     Spin     Total
       1     H     0.42442  0.42442  0.00000  0.15117
       2     C     3.10101  3.10101  0.00000 -0.20201
       3     C     3.05793  3.05793  0.00000 -0.11585
       4     C     3.06156  3.06156  0.00000 -0.12311
       5     H     0.42300  0.42300  0.00000  0.15400
       6     C     3.11177  3.11177  0.00000 -0.22354
       7     H     0.42366  0.42366  0.00000  0.15269
       8     C     3.14417  3.14417  0.00000 -0.28834
       9     H     0.42101  0.42101  0.00000  0.15798
      10     C     2.84992  2.84992  0.00000  0.30017
      11     H     0.42254  0.42254  0.00000  0.15493
      12     O     4.15061  4.15061  0.00000 -0.30122
      13     C     3.04490  3.04490  0.00000 -0.08980
      14     H     0.46240  0.46240  0.00000  0.07520
      15     H     0.43872  0.43872  0.00000  0.12256
      16     H     0.46240  0.46240  0.00000  0.07520

   Total alpha = 29.00000, Total beta = 29.00000, Total charge =  0.00000
