  ==> Input File <==

--------------------------------------------------------------------------
set {
	reference rhf
	basis 6-31G*
}

set_num_threads( 4 )
memory 2 gb

molecule MOL {
0 1

H	 2.863103	 -1.360301	 1.052286
O	 2.826016	 -1.159218	 0.122261
C	 2.077727	 -0.067559	 -0.035091
C	 0.624473	 -0.343591	 0.253101
O	 2.542965	 0.974826	 -0.363729
C	 -0.265902	 0.883932	 0.072916
H	 0.324016	 -1.163849	 -0.390541
H	 0.565024	 -0.726111	 1.268924
C	 -1.728698	 0.646073	 0.462102
H	 -0.209144	 1.219470	 -0.958188
H	 0.135059	 1.692851	 0.673903
C	 -2.482460	 -0.343073	 -0.431425
H	 -2.245265	 1.602650	 0.432430
H	 -1.779332	 0.308348	 1.496285
C	 -3.960546	 -0.461025	 -0.060175
H	 -2.395034	 -0.026811	 -1.468912
H	 -2.024850	 -1.327147	 -0.371646
H	 -4.472726	 -1.168004	 -0.705284
H	 -4.465146	 0.496508	 -0.151489
H	 -4.081218	 -0.800940	 0.964585

	symmetry c1
}
set optking {
	frozen_dihedral = ("
		1 2 3 5
	")
}

ee = optimize('scf')
oeprop('DIPOLE', 'QUADRUPOLE', 'MULLIKEN_CHARGES')
f=open( 'psi4out.xyz', 'w' )
f.write( "20  " )
f.write( str(ee) + "\n" )
f.write( MOL.save_string_xyz() )
f.close()
--------------------------------------------------------------------------

    Molecular point group: c1
  Charge       = 0
  Multiplicity = 1
  Basis Set: 6-31G*
  Basis Set:
  @DF-RHF Final Energy:  -383.92594777001415
    Total Energy =                       -383.9259477700140906
    Molecular point group: c1
  Basis Set: 6-31G*
  Basis Set:
  Basis Set: 6-31G*
  Basis Set:
  @DF-RHF Final Energy:  -383.92740160082059
    Total Energy =                       -383.9274016008203034
  Basis Set: 6-31G*
  Basis Set:
  Basis Set: 6-31G*
  Basis Set:
  @DF-RHF Final Energy:  -383.92653548566597
    Total Energy =                       -383.9265354856661929
  Basis Set: 6-31G*
  Basis Set:
  Basis Set: 6-31G*
  Basis Set:
  @DF-RHF Final Energy:  -383.92764200480354
    Total Energy =                       -383.9276420048038858
  Basis Set: 6-31G*
  Basis Set:
  @DF-RHF Final Energy:  -383.92765388301154
    Total Energy =                       -383.9276538830113168
  Basis Set: 6-31G*
  Basis Set:
  @DF-RHF Final Energy:  -383.92765506286401
    Total Energy =                       -383.9276550628642326
  Basis Set: 6-31G*
  Basis Set:
  Basis Set: 6-31G*
  Basis Set:
  @DF-RHF Final Energy:  -383.92765357805933
    Total Energy =                       -383.9276535780588802
  Basis Set: 6-31G*
  Basis Set:
  Basis Set: 6-31G*
  Basis Set:
  @DF-RHF Final Energy:  -383.92765527393141
    Total Energy =                       -383.9276552739311228
  Basis Set: 6-31G*
  Basis Set:
  Charge       = 0
  Multiplicity = 1
  Basis Set: 6-31G*
  Basis Set:

    Orbital Energies (a.u.)
    -----------------------

    Doubly Occupied:

       1A    -20.595846     2A    -20.560863     3A    -11.381162
       4A    -11.245136     5A    -11.225862     6A    -11.223394
       7A    -11.222556     8A    -11.214404     9A     -1.460270
      10A     -1.368138    11A     -1.098306    12A     -1.041433
      13A     -0.959231    14A     -0.865284    15A     -0.818812
      16A     -0.786302    17A     -0.714718    18A     -0.672819
      19A     -0.659089    20A     -0.637672    21A     -0.616716
      22A     -0.590294    23A     -0.562403    24A     -0.551434
      25A     -0.537200    26A     -0.508036    27A     -0.503319
      28A     -0.490552    29A     -0.471897    30A     -0.467376
      31A     -0.460451    32A     -0.442611

  @DF-RHF Final Energy:  -383.92765527523204

   => Energetics <=

    Nuclear Repulsion Energy =            375.1803982276653642
    One-Electron Energy =               -1266.3089348299968151
    Two-Electron Energy =                 507.2008813270995233
    DFT Exchange-Correlation Energy =       0.0000000000000000
    Empirical Dispersion Energy =           0.0000000000000000
    PCM Polarization Energy =               0.0000000000000000
    EFP Energy =                            0.0000000000000000
    Total Energy =                       -383.9276552752319276
    Molecular point group: c1
  Basis Set: 6-31G*
  Basis Set:

  -Total Gradient:
     Atom            X                  Y                   Z
    ------   -----------------  -----------------  -----------------
       1        0.002753408964     0.002064347753     0.000128617709
       2       -0.003218554113    -0.002227002842     0.001122519981
       3       -0.000062888455    -0.000685336100    -0.004132739252
       4        0.000009140613    -0.000005219172     0.000014013363
       5        0.000515847666     0.000850546300     0.002866634855
       6        0.000005362843    -0.000003639778     0.000001413392
       7        0.000002106100    -0.000003366138     0.000000790308
       8       -0.000000535951     0.000003360999    -0.000000470405
       9        0.000000935720     0.000001053982     0.000003070186
      10       -0.000001437852    -0.000001273833     0.000001721251
      11       -0.000000186295     0.000003591682     0.000000416546
      12       -0.000002939659     0.000004835025    -0.000005654201
      13        0.000002367205     0.000001253391    -0.000000711355
      14       -0.000002901435     0.000001306327    -0.000000949479
      15        0.000001326298    -0.000005416116     0.000003034625
      16       -0.000003505314     0.000001647079    -0.000002217754
      17        0.000000714333     0.000000920273    -0.000000196200
      18        0.000000423650    -0.000001625302     0.000001175489
      19        0.000002088411    -0.000000824656    -0.000001629068
      20       -0.000000772736     0.000000841128     0.000001160010

  **** Optimization is complete! (in 9 steps) ****
    Final optimized geometry and variables:
    Molecular point group: c1

    Geometry (in Angstrom), charge = 0, multiplicity = 1:

    H            2.994429332014    -1.356707580340     1.062480632759
    O            2.885523448240    -1.154053463676     0.141548324316
    C            2.084373415104    -0.070150518444    -0.042401845197
    C            0.626398842365    -0.334608145321     0.253459556340
    O            2.523224033490     0.952706429351    -0.431634497459
    C           -0.265205933512     0.892337457050     0.076642219773
    H            0.324561725177    -1.154673109340    -0.390671794779
    H            0.555818799070    -0.720379733984     1.269716601912
    C           -1.729345690986     0.654091254508     0.460738710987
    H           -0.204006011070     1.229959873921    -0.953129320128
    H            0.133929068627     1.700281895870     0.680858945452
    C           -2.481640047171    -0.329587170149    -0.440052019063
    H           -2.244661661246     1.611354134723     0.434325504331
    H           -1.784035307499     0.311545035832     1.493332353448
    C           -3.960715652450    -0.448323579031    -0.073088840312
    H           -2.391201831613    -0.007700788708    -1.475404756525
    H           -2.025026264532    -1.314462943952    -0.384839863262
    H           -4.471624501749    -1.151573983017    -0.723162134496
    H           -4.464334454551     0.510006743762    -0.160918299810
    H           -4.084487200734    -0.793345646757     0.949639823014

  Mulliken Charges: (a.u.)
   Center  Symbol    Alpha    Beta     Spin     Total
       1     H     0.26786  0.26786  0.00000  0.46429
       2     O     4.36768  4.36768  0.00000 -0.73536
       3     C     2.62518  2.62518  0.00000  0.74964
       4     C     3.21651  3.21651  0.00000 -0.43302
       5     O     4.24579  4.24579  0.00000 -0.49158
       6     C     3.15404  3.15404  0.00000 -0.30809
       7     H     0.39479  0.39479  0.00000  0.21042
       8     H     0.41338  0.41338  0.00000  0.17324
       9     C     3.15561  3.15561  0.00000 -0.31122
      10     H     0.40953  0.40953  0.00000  0.18094
      11     H     0.40980  0.40980  0.00000  0.18041
      12     C     3.15483  3.15483  0.00000 -0.30967
      13     H     0.41720  0.41720  0.00000  0.16560
      14     H     0.42490  0.42490  0.00000  0.15020
      15     C     3.23929  3.23929  0.00000 -0.47859
      16     H     0.42041  0.42041  0.00000  0.15918
      17     H     0.42335  0.42335  0.00000  0.15329
      18     H     0.41786  0.41786  0.00000  0.16427
      19     H     0.42026  0.42026  0.00000  0.15948
      20     H     0.42172  0.42172  0.00000  0.15656

   Total alpha = 32.00000, Total beta = 32.00000, Total charge =  0.00000
