  ==> Input File <==

--------------------------------------------------------------------------
set {
	reference rhf
	basis 6-31G*
}

set_num_threads( 1 )
memory 2 gb

molecule MOL {
0 1

H	 -1.454736	 -0.331950	 0.435647
N	 -0.626943	 -0.667432	 -0.000092
C	 -0.655931	 -1.980474	 -0.603247
C	 0.469286	 0.129090	 0.000148
H	 -0.886030	 -2.741852	 0.134564
H	 0.317187	 -2.180842	 -1.021126
H	 -1.395891	 -2.028404	 -1.395202
C	 1.788933	 -0.616240	 -0.000037
O	 0.411098	 1.327768	 -0.000049
H	 1.872803	 -1.245775	 -0.880381
H	 2.595421	 0.101576	 0.003713
H	 1.870096	 -1.252171	 0.875943

	symmetry c1
}
set optking {
	frozen_dihedral = ("
		4 2 3 5
	")
}

ee = energy('scf')
oeprop('DIPOLE', 'QUADRUPOLE', 'MULLIKEN_CHARGES')
f=open( 'psi4out.xyz', 'w' )
f.write( "12  " )
f.write( str(ee) + "\n" )
f.write( MOL.save_string_xyz() )
f.close()
--------------------------------------------------------------------------

    Molecular point group: c1

    Geometry (in Angstrom), charge = 0, multiplicity = 1:

       Center              X                  Y                   Z               Mass
    ------------   -----------------  -----------------  -----------------  -----------------
           H         -1.728038380738     0.044150919435     0.560228154114     1.007825032070
           N         -0.900245380738    -0.291331080565     0.124489154114    14.003074004780
           C         -0.929233380738    -1.604373080565    -0.478665845886    12.000000000000
           C          0.195983619262     0.505190919435     0.124729154114    12.000000000000
           H         -1.159332380738    -2.365751080565     0.259145154114     1.007825032070
           H          0.043884619262    -1.804741080565    -0.896544845886     1.007825032070
           H         -1.669193380738    -1.652303080565    -1.270620845886     1.007825032070
           C          1.515630619262    -0.240139080565     0.124544154114    12.000000000000
           O          0.137795619262     1.703868919435     0.124532154114    15.994914619560
           H          1.599500619262    -0.869674080565    -0.755799845886     1.007825032070
           H          2.322118619262     0.477676919435     0.128294154114     1.007825032070
           H          1.596793619262    -0.876070080565     1.000524154114     1.007825032070

  Charge       = 0
  Multiplicity = 1
  Basis Set: 6-31G*
  Basis Set:

    Orbital Energies (a.u.)
    -----------------------

    Doubly Occupied:

       1A    -20.520641     2A    -15.574297     3A    -11.344237
       4A    -11.267871     5A    -11.227905     6A     -1.384805
       7A     -1.231448     8A     -1.004119     9A     -0.954866
      10A     -0.788426    11A     -0.676116    12A     -0.663608
      13A     -0.639131    14A     -0.595466    15A     -0.576605
      16A     -0.568181    17A     -0.552615    18A     -0.501140
      19A     -0.413412    20A     -0.380942

  @DF-RHF Final Energy:  -246.98785131069832

   => Energetics <=

    Nuclear Repulsion Energy =            182.1559624335394005
    One-Electron Energy =                -696.5558137067336020
    Two-Electron Energy =                 267.4119999624966795
    DFT Exchange-Correlation Energy =       0.0000000000000000
    Empirical Dispersion Energy =           0.0000000000000000
    PCM Polarization Energy =               0.0000000000000000
    EFP Energy =                            0.0000000000000000
    Total Energy =                       -246.9878513106974651

  Mulliken Charges: (a.u.)
   Center  Symbol    Alpha    Beta     Spin     Total
       1     H     0.30542  0.30542  0.00000  0.38916
       2     N     3.88862  3.88862  0.00000 -0.77725
       3     C     3.13800  3.13800  0.00000 -0.27601
       4     C     2.63739  2.63739  0.00000  0.72522
       5     H     0.41518  0.41518  0.00000  0.16963
       6     H     0.41196  0.41196  0.00000  0.17609
       7     H     0.40905  0.40905  0.00000  0.18190
       8     C     3.29820  3.29820  0.00000 -0.59641
       9     O     4.28990  4.28990  0.00000 -0.57981
      10     H     0.40879  0.40879  0.00000  0.18241
      11     H     0.39295  0.39295  0.00000  0.21410
      12     H     0.40453  0.40453  0.00000  0.19095

   Total alpha = 20.00000, Total beta = 20.00000, Total charge = -0.00000
