                              Psi4 1.0.54 Driver

  ==> Input File <==

--------------------------------------------------------------------------
set {
	reference rhf
	basis cc-pvtz
}

set_num_threads( 4 )
memory 2 gb

molecule MOL {
0 1

H	 -2.123894	 -0.667238	 -0.609809
O	 -2.041679	 -0.058866	 0.103463
C	 -0.959304	 0.780994	 -0.094939
C	 0.354905	 0.037902	 -0.006215
H	 -0.985899	 1.279578	 -1.057596
H	 -0.969809	 1.529522	 0.682889
F	 0.461511	 -0.598888	 1.146575
F	 0.438490	 -0.859680	 -0.965880
F	 1.390703	 0.835536	 -0.110492

	symmetry c1
}
set optking {
	frozen_dihedral = ("
		7 4 3 5
	")
}

ee,wfn = optimize('scf', return_wfn=True)
oeprop( wfn, 'DIPOLE', 'QUADRUPOLE', 'MULLIKEN_CHARGES')
f=open( 'psi4out.xyz', 'w' )
f.write( "9  " )
f.write( str(ee) + "\n" )
f.write( MOL.save_string_xyz() )
f.close()
--------------------------------------------------------------------------

    Molecular point group: c1
  Charge       = 0
  Multiplicity = 1
  Basis Set: CC-PVTZ
  Basis Set:
  @DF-RHF Final Energy:  -450.84673176447330
    Total Energy =                       -450.8467317644733612
    Molecular point group: c1
  Basis Set: CC-PVTZ
  Basis Set:
  Basis Set: CC-PVTZ
  Basis Set:
  @DF-RHF Final Energy:  -450.84706451173054
    Total Energy =                       -450.8470645117305367
  Basis Set: CC-PVTZ
  Basis Set:
  Basis Set: CC-PVTZ
  Basis Set:
  @DF-RHF Final Energy:  -450.84711965358952
    Total Energy =                       -450.8471196535894023
  Basis Set: CC-PVTZ
  Basis Set:
  Basis Set: CC-PVTZ
  Basis Set:
  @DF-RHF Final Energy:  -450.84712416578111
    Total Energy =                       -450.8471241657809969
  Basis Set: CC-PVTZ
  Basis Set:
  Charge       = 0
  Multiplicity = 1
  Basis Set: CC-PVTZ
  Basis Set:

    Orbital Energies (a.u.)
    -----------------------

    Doubly Occupied:

       1A    -26.339808     2A    -26.338770     3A    -26.335461
       4A    -20.583607     5A    -11.493437     6A    -11.310137
       7A     -1.747570     8A     -1.644942     9A     -1.642309
      10A     -1.407039    11A     -1.050409    12A     -0.929609
      13A     -0.837531    14A     -0.836252    15A     -0.810775
      16A     -0.732762    17A     -0.718738    18A     -0.703430
      19A     -0.671554    20A     -0.665493    21A     -0.649072
      22A     -0.633018    23A     -0.618498    24A     -0.534551
      25A     -0.484613

  @DF-RHF Final Energy:  -450.84712495967045

   => Energetics <=

    Nuclear Repulsion Energy =            277.7227427075845867
    One-Electron Energy =               -1177.7009718793133288
    Two-Electron Energy =                 449.1311042120582897
    DFT Exchange-Correlation Energy =       0.0000000000000000
    Empirical Dispersion Energy =           0.0000000000000000
    PCM Polarization Energy =               0.0000000000000000
    EFP Energy =                            0.0000000000000000
    Total Energy =                       -450.8471249596705093
    Molecular point group: c1
  Basis Set: CC-PVTZ
  Basis Set:

  -Total Gradient:
     Atom            X                  Y                   Z
    ------   -----------------  -----------------  -----------------
       1        0.000008358031    -0.000011330553    -0.000008225664
       2        0.000003820173     0.000032260416    -0.000014751969
       3        0.000588601337     0.001122252612     0.000640233534
       4        0.000601875978     0.001160748098     0.000587966902
       5       -0.000633350369    -0.001256510143    -0.000635323686
       6        0.000004774898     0.000010442389     0.000010481032
       7       -0.000557642921    -0.001025010938    -0.000566732017
       8        0.000003916798    -0.000023677731    -0.000021611547
       9       -0.000020353923    -0.000009174156     0.000007963417

  **** Optimization is complete! (in 5 steps) ****
    Final optimized geometry and variables:
    Molecular point group: c1

    Geometry (in Angstrom), charge = 0, multiplicity = 1:

    H           -2.113948858292    -0.660668520178    -0.664417007004
    O           -2.040890593042    -0.078986163182     0.071718444347
    C           -0.963867332423     0.776895255132    -0.088010092086
    C            0.355179659419     0.042382124319     0.001396478093
    H           -0.983336025857     1.289440756349    -1.043356805701
    H           -0.995608126567     1.507512502181     0.705807409494
    F            0.487233767894    -0.617968657517     1.126192851627
    F            0.472979843207    -0.833480513600    -0.982098269037
    F            1.359615185549     0.887141069762    -0.096614813593

  Mulliken Charges: (a.u.)
   Center  Symbol    Alpha    Beta     Spin     Total
       1     H     0.38686  0.38686  0.00000  0.22628
       2     O     4.19234  4.19234  0.00000 -0.38469
       3     C     2.99054  2.99054  0.00000  0.01892
       4     C     2.68478  2.68478  0.00000  0.63043
       5     H     0.46158  0.46158  0.00000  0.07684
       6     H     0.44707  0.44707  0.00000  0.10587
       7     F     4.60693  4.60693  0.00000 -0.21387
       8     F     4.61799  4.61799  0.00000 -0.23599
       9     F     4.61190  4.61190  0.00000 -0.22379

   Total alpha = 25.00000, Total beta = 25.00000, Total charge = -0.00000

*** Psi4 exiting successfully. Buy a developer a beer!
