  ==> Input File <==

--------------------------------------------------------------------------
set {
	reference rhf
	basis 6-31G*
}

set_num_threads( 4 )
memory 2 gb

molecule MOL {
0 1

O	 -2.821601	 1.309235	 -0.001213
C	 -2.668563	 0.129746	 -0.000350
C	 -3.801572	 -0.864014	 -0.000442
O	 -1.481751	 -0.454642	 0.000584
H	 -4.417280	 -0.689587	 -0.874708
H	 -3.443784	 -1.883046	 -0.000565
H	 -4.417179	 -0.689832	 0.873954
C	 -0.334255	 0.388708	 0.000906
C	 0.891947	 -0.504646	 0.000751
H	 -0.365390	 1.025305	 -0.873475
H	 -0.365484	 1.024911	 0.875569
C	 2.191998	 0.301789	 0.000897
H	 0.855148	 -1.151283	 -0.871571
H	 0.855132	 -1.151660	 0.872805
C	 3.441114	 -0.581407	 0.000108
H	 2.215074	 0.954890	 -0.869742
H	 2.215465	 0.953923	 0.872248
C	 4.403561	 -0.252140	 1.140348
H	 3.957168	 -0.472924	 -0.951204
H	 3.143076	 -1.625217	 0.068694
H	 4.746281	 0.776871	 1.079575
H	 5.278432	 -0.894084	 1.113088
H	 3.926200	 -0.384403	 2.107117

	symmetry c1
}
set optking {
	frozen_dihedral = ("
		19 15 12 16
	")
}

ee = optimize('scf')
oeprop('DIPOLE', 'QUADRUPOLE', 'MULLIKEN_CHARGES')
f=open( 'psi4out.xyz', 'w' )
f.write( "23  " )
f.write( str(ee) + "\n" )
f.write( MOL.save_string_xyz() )
f.close()
--------------------------------------------------------------------------

    Molecular point group: c1
  Charge       = 0
  Multiplicity = 1
  Basis Set: 6-31G*
  Basis Set:
  @DF-RHF Final Energy:  -422.97374625668829
    Total Energy =                       -422.9737462566881732
    Molecular point group: c1
  Basis Set: 6-31G*
  Basis Set:
  Basis Set: 6-31G*
  Basis Set:
  @DF-RHF Final Energy:  -422.97397372981891
    Total Energy =                       -422.9739737298194768
  Basis Set: 6-31G*
  Basis Set:
  Basis Set: 6-31G*
  Basis Set:
  @DF-RHF Final Energy:  -422.97405286995973
    Total Energy =                       -422.9740528699594506
  Basis Set: 6-31G*
  Basis Set:
  Basis Set: 6-31G*
  Basis Set:
  @DF-RHF Final Energy:  -422.97389052223832
    Total Energy =                       -422.9738905222380936
  Basis Set: 6-31G*
  Basis Set:
  Basis Set: 6-31G*
  Basis Set:
  @DF-RHF Final Energy:  -422.97405709919582
    Total Energy =                       -422.9740570991959885
  Basis Set: 6-31G*
  Basis Set:
  Charge       = 0
  Multiplicity = 1
  Basis Set: 6-31G*
  Basis Set:

    Orbital Energies (a.u.)
    -----------------------

    Doubly Occupied:

       1A    -20.603006     2A    -20.540528     3A    -11.374078
       4A    -11.281255     5A    -11.232384     6A    -11.224595
       7A    -11.223678     8A    -11.221441     9A    -11.213233
      10A     -1.467930    11A     -1.360723    12A     -1.092393
      13A     -1.041072    14A     -1.003199    15A     -0.930389
      16A     -0.843218    17A     -0.802051    18A     -0.774251
      19A     -0.691403    20A     -0.685204    21A     -0.668853
      22A     -0.638410    23A     -0.610554    24A     -0.592945
      25A     -0.581476    26A     -0.571045    27A     -0.551300
      28A     -0.533463    29A     -0.526188    30A     -0.503643
      31A     -0.498315    32A     -0.475856    33A     -0.464906
      34A     -0.463887    35A     -0.451331    36A     -0.435182

  @DF-RHF Final Energy:  -422.97405728619492

   => Energetics <=

    Nuclear Repulsion Energy =            450.3041234016088765
    One-Electron Energy =               -1468.2095958478937519
    Two-Electron Energy =                 594.9314151600897276
    DFT Exchange-Correlation Energy =       0.0000000000000000
    Empirical Dispersion Energy =           0.0000000000000000
    PCM Polarization Energy =               0.0000000000000000
    EFP Energy =                            0.0000000000000000
    Total Energy =                       -422.9740572861951478
    Molecular point group: c1
  Basis Set: 6-31G*
  Basis Set:

  -Total Gradient:
     Atom            X                  Y                   Z
    ------   -----------------  -----------------  -----------------
       1       -0.000001082229    -0.000001078159    -0.000001501603
       2       -0.000017297410    -0.000009012464     0.000010905731
       3       -0.000003902734     0.000003277989    -0.000002140773
       4       -0.000016262178     0.000011074843    -0.000001181750
       5       -0.000001540571    -0.000002494974    -0.000000953049
       6        0.000000864403     0.000000996717    -0.000000539605
       7       -0.000001230306     0.000000935173    -0.000000911366
       8       -0.000000295482    -0.000008853584    -0.000018800206
       9        0.000040749772     0.000024993997     0.000014013602
      10        0.000001917332     0.000005006798     0.000006248246
      11       -0.000001018312     0.000000071932    -0.000002747029
      12        0.001137718387     0.001584623530     0.001142231541
      13        0.000004123503    -0.000002611787     0.000004468368
      14        0.000000270281     0.000001967930     0.000001722729
      15       -0.001206820749    -0.001692540563    -0.000892040280
      16       -0.000769121430    -0.001081983026    -0.000826011338
      17        0.000008291409    -0.000005050359     0.000003948168
      18       -0.000009841639    -0.000013479936    -0.000019370811
      19        0.000842988152     0.001186529376     0.000584553151
      20       -0.000006669954     0.000003319983     0.000004209106
      21       -0.000010196722    -0.000000491650     0.000001315801
      22        0.000010906422    -0.000001695114    -0.000001484853
      23       -0.000002549937    -0.000003506655    -0.000005933779

  **** Optimization is complete! (in 6 steps) ****
    Final optimized geometry and variables:
    Molecular point group: c1

    Geometry (in Angstrom), charge = 0, multiplicity = 1:

    O           -2.788954696114     1.365156569724    -0.140661590399
    C           -2.635740298454     0.185691081457    -0.137667270825
    C           -3.768690014407    -0.808146718758    -0.140245252287
    O           -1.448915572409    -0.398654199880    -0.131649362029
    H           -4.381674625206    -0.634715584174    -1.016614308587
    H           -3.410834282431    -1.827155885186    -0.138112868104
    H           -4.387046163397    -0.633050896165     0.732028459740
    C           -0.301315335697     0.444645272708    -0.128685280230
    C            0.924864071319    -0.448210085318    -0.122213299291
    H           -0.329037918022     1.079666022214    -1.004408606244
    H           -0.335904589004     1.082846258922     0.744519563872
    C            2.226652416084     0.357967632929    -0.116153442204
    H            0.893495096004    -1.095900707808    -0.994084800807
    H            0.885542285722    -1.094884315187     0.750227409274
    C            3.489626379409    -0.532754870223    -0.124627900955
    H            2.233580565025     1.013889433645    -0.982869552127
    H            2.238701018561     1.005856115372     0.757011321132
    C            4.471759294577    -0.198106273066     0.999005568490
    H            4.004030043512    -0.429632422812    -1.075410701323
    H            3.204438161887    -1.578034736198    -0.043998050741
    H            4.807373522863     0.832803013415     0.931089005905
    H            5.349422395853    -0.835764571050     0.957021316725
    H            4.010733416263    -0.331118313195     1.973791487741

  Mulliken Charges: (a.u.)
   Center  Symbol    Alpha    Beta     Spin     Total
       1     O     4.28391  4.28391  0.00000 -0.56781
       2     C     2.61533  2.61533  0.00000  0.76934
       3     C     3.28774  3.28774  0.00000 -0.57547
       4     O     4.31257  4.31257  0.00000 -0.62513
       5     H     0.39750  0.39750  0.00000  0.20500
       6     H     0.39987  0.39987  0.00000  0.20025
       7     H     0.39751  0.39751  0.00000  0.20498
       8     C     2.99632  2.99632  0.00000  0.00737
       9     C     3.16698  3.16698  0.00000 -0.33396
      10     H     0.41073  0.41073  0.00000  0.17853
      11     H     0.41070  0.41070  0.00000  0.17861
      12     C     3.16373  3.16373  0.00000 -0.32747
      13     H     0.41381  0.41381  0.00000  0.17237
      14     H     0.41431  0.41431  0.00000  0.17139
      15     C     3.15462  3.15462  0.00000 -0.30925
      16     H     0.41811  0.41811  0.00000  0.16377
      17     H     0.41785  0.41785  0.00000  0.16430
      18     C     3.24050  3.24050  0.00000 -0.48101
      19     H     0.41840  0.41840  0.00000  0.16319
      20     H     0.41835  0.41835  0.00000  0.16329
      21     H     0.42043  0.42043  0.00000  0.15913
      22     H     0.41927  0.41927  0.00000  0.16146
      23     H     0.42145  0.42145  0.00000  0.15710

   Total alpha = 36.00000, Total beta = 36.00000, Total charge =  0.00000
