  ==> Input File <==

--------------------------------------------------------------------------
set {
	reference rhf
	basis cc-pvtz
}

set_num_threads( 4 )
memory 2 gb

molecule MOL {
0 1

H	 -0.366580	 2.045936	 -0.305741
C	 0.351829	 1.335402	 0.083179
N	 -0.000018	 0.000080	 -0.334836
H	 1.327156	 1.599860	 -0.305475
H	 0.380566	 1.445403	 1.171445
C	 -0.876401	 0.006719	 -1.481260
C	 1.165485	 -0.822757	 -0.551133
H	 -1.175334	 -1.005139	 -1.723900
H	 -1.770803	 0.575174	 -1.259695
H	 -0.409737	 0.443440	 -2.369274
H	 1.763805	 -0.860885	 0.350389
H	 0.864391	 -1.833693	 -0.795011
H	 1.800327	 -0.454097	 -1.362413

	symmetry c1
}
set optking {
	frozen_dihedral = ("
		6 3 2 1
	")
}

ee = optimize('scf')
oeprop('DIPOLE', 'QUADRUPOLE', 'MULLIKEN_CHARGES')
f=open( 'psi4out.xyz', 'w' )
f.write( "13  " )
f.write( str(ee) + "\n" )
f.write( MOL.save_string_xyz() )
f.close()
--------------------------------------------------------------------------

    Molecular point group: c1
  Charge       = 0
  Multiplicity = 1
  Basis Set: CC-PVTZ
  Basis Set:
  @DF-RHF Final Energy:  -173.32907158069668
    Total Energy =                       -173.3290715806968194
    Molecular point group: c1
  Basis Set: CC-PVTZ
  Basis Set:
  Basis Set: CC-PVTZ
  Basis Set:
  @DF-RHF Final Energy:  -173.32992279607004
    Total Energy =                       -173.3299227960699227
  Basis Set: CC-PVTZ
  Basis Set:
  Basis Set: CC-PVTZ
  Basis Set:
  @DF-RHF Final Energy:  -173.33004874123702
    Total Energy =                       -173.3300487412370501
  Basis Set: CC-PVTZ
  Basis Set:
  Basis Set: CC-PVTZ
  Basis Set:
  @DF-RHF Final Energy:  -173.33005783547000
    Total Energy =                       -173.3300578354703134
  Basis Set: CC-PVTZ
  Basis Set:
  Charge       = 0
  Multiplicity = 1
  Basis Set: CC-PVTZ
  Basis Set:

    Orbital Energies (a.u.)
    -----------------------

    Doubly Occupied:

       1A    -15.535310     2A    -11.234432     3A    -11.234103
       4A    -11.234046     5A     -1.223154     6A     -0.953231
       7A     -0.952187     8A     -0.805780     9A     -0.639629
      10A     -0.631239    11A     -0.629763    12A     -0.548083
      13A     -0.544837    14A     -0.515460    15A     -0.503503
      16A     -0.502505    17A     -0.340904

  @DF-RHF Final Energy:  -173.33005862603963

   => Energetics <=

    Nuclear Repulsion Energy =            139.0593913708196112
    One-Electron Energy =                -508.7225657337276630
    Two-Electron Energy =                 196.3331157368684501
    DFT Exchange-Correlation Energy =       0.0000000000000000
    Empirical Dispersion Energy =           0.0000000000000000
    PCM Polarization Energy =               0.0000000000000000
    EFP Energy =                            0.0000000000000000
    Total Energy =                       -173.3300586260396301
    Molecular point group: c1
  Basis Set: CC-PVTZ
  Basis Set:

  -Total Gradient:
     Atom            X                  Y                   Z
    ------   -----------------  -----------------  -----------------
       1        0.002498243786     0.000704931747    -0.003888777486
       2       -0.004274582284    -0.000893784946     0.005830334035
       3        0.004558554354     0.000213146401    -0.004175584279
       4        0.000006376607     0.000020461671    -0.000017933784
       5        0.000000401690    -0.000033514746    -0.000023499732
       6       -0.002818350623    -0.000021757943     0.002249664431
       7        0.000032374705     0.000025352745     0.000033382939
       8        0.000004746925     0.000003496955    -0.000001382218
       9       -0.000013828285    -0.000001491461    -0.000015749690
      10        0.000005070132    -0.000007483280     0.000012120556
      11        0.000018411044    -0.000013367449    -0.000001491913
      12       -0.000005159300     0.000003044266     0.000000189436
      13       -0.000012258751     0.000000966038    -0.000001272293

  **** Optimization is complete! (in 5 steps) ****
    Final optimized geometry and variables:
    Molecular point group: c1

    Geometry (in Angstrom), charge = 0, multiplicity = 1:

    H           -0.546409124534     1.924840281740     0.350494574433
    C            0.185595049927     1.203405020078     0.688044711395
    N           -0.157787491444    -0.122294316306     0.219987552203
    H            1.145569975373     1.542586540984     0.293029024450
    H            0.242650519453     1.235118442713     1.769897778488
    C           -1.058230692255    -0.137743774645    -0.904232766623
    C            0.989169477487    -0.975084109348     0.054989641177
    H           -1.342428552918    -1.158029193066    -1.130670599346
    H           -1.959671565441     0.410989731373    -0.664674612167
    H           -0.628683162708     0.296940717458    -1.812902318279
    H            1.569615453599    -0.994174092842     0.969518422190
    H            0.673631350978    -1.988925428345    -0.157941175305
    H            1.650531369194    -0.648633375465    -0.753973299241

  Mulliken Charges: (a.u.)
   Center  Symbol    Alpha    Beta     Spin     Total
       1     H     0.45664  0.45664  0.00000  0.08671
       2     C     3.08652  3.08652  0.00000 -0.17304
       3     N     3.59724  3.59724  0.00000 -0.19447
       4     H     0.47059  0.47059  0.00000  0.05881
       5     H     0.45080  0.45080  0.00000  0.09840
       6     C     3.08874  3.08874  0.00000 -0.17747
       7     C     3.08934  3.08934  0.00000 -0.17869
       8     H     0.45349  0.45349  0.00000  0.09301
       9     H     0.45248  0.45248  0.00000  0.09503
      10     H     0.47426  0.47426  0.00000  0.05148
      11     H     0.45268  0.45268  0.00000  0.09464
      12     H     0.45363  0.45363  0.00000  0.09275
      13     H     0.47358  0.47358  0.00000  0.05284

   Total alpha = 17.00000, Total beta = 17.00000, Total charge = -0.00000
