  ==> Input File <==

--------------------------------------------------------------------------
set {
	reference rhf
	basis cc-pvtz
}

set_num_threads( 4 )
memory 2 gb

molecule MOL {
0 1

H	 -1.061118	 0.067625	 1.838591
C	 -0.603756	 -0.484978	 1.046138
C	 -0.599960	 -1.865078	 1.039528
C	 0.000000	 0.179985	 0.000046
H	 -1.064188	 -2.400838	 1.843871
C	 -0.000003	 -2.552036	 -0.000012
N	 0.000000	 1.644631	 0.000076
C	 0.603758	 -0.484935	 -1.046072
H	 -0.000000	 -3.625035	 -0.000032
C	 0.599958	 -1.865035	 -1.039521
O	 1.050559	 2.194174	 -0.000073
O	 -1.050559	 2.194174	 -0.000074
H	 1.061111	 0.067700	 -1.838508
H	 1.064190	 -2.400763	 -1.843884

	symmetry c1
}
set optking {
	frozen_dihedral = ("
		2 4 7 11
	")
}

ee = optimize('scf')
oeprop('DIPOLE', 'QUADRUPOLE', 'MULLIKEN_CHARGES')
f=open( 'psi4out.xyz', 'w' )
f.write( "14  " )
f.write( str(ee) + "\n" )
f.write( MOL.save_string_xyz() )
f.close()
--------------------------------------------------------------------------

    Molecular point group: c1
  Charge       = 0
  Multiplicity = 1
  Basis Set: CC-PVTZ
  Basis Set:
  @DF-RHF Final Energy:  -434.32292612537128
    Total Energy =                       -434.3229261253715094
    Molecular point group: c1
  Basis Set: CC-PVTZ
  Basis Set:
  Basis Set: CC-PVTZ
  Basis Set:
  @DF-RHF Final Energy:  -434.31702153185228
    Total Energy =                       -434.3170215318522196
  Basis Set: CC-PVTZ
  Basis Set:
  Basis Set: CC-PVTZ
  Basis Set:
  @DF-RHF Final Energy:  -434.32317248428973
    Total Energy =                       -434.3231724842901258
  Basis Set: CC-PVTZ
  Basis Set:
  Basis Set: CC-PVTZ
  Basis Set:
  @DF-RHF Final Energy:  -434.32343779444255
    Total Energy =                       -434.3234377944422704
  Basis Set: CC-PVTZ
  Basis Set:
  Basis Set: CC-PVTZ
  Basis Set:
  @DF-RHF Final Energy:  -434.32344039863642
    Total Energy =                       -434.3234403986364214
  Basis Set: CC-PVTZ
  Basis Set:
  Charge       = 0
  Multiplicity = 1
  Basis Set: CC-PVTZ
  Basis Set:

    Orbital Energies (a.u.)
    -----------------------

    Doubly Occupied:

       1A    -20.596586     2A    -20.596293     3A    -15.847803
       4A    -11.306326     5A    -11.267829     6A    -11.267613
       7A    -11.261148     8A    -11.260050     9A    -11.259291
      10A     -1.643976    11A     -1.427083    12A     -1.206319
      13A     -1.096812    14A     -1.056661    15A     -0.959388
      16A     -0.873318    17A     -0.830663    18A     -0.786599
      19A     -0.740490    20A     -0.737119    21A     -0.716955
      22A     -0.654014    23A     -0.650940    24A     -0.626069
      25A     -0.560485    26A     -0.549954    27A     -0.533621
      28A     -0.498601    29A     -0.487811    30A     -0.457878
      31A     -0.373109    32A     -0.370430

  @DF-RHF Final Energy:  -434.32344096298579

   => Energetics <=

    Nuclear Repulsion Energy =            417.7219759994724768
    One-Electron Energy =               -1419.0883736562991544
    Two-Electron Energy =                 567.0429566938407788
    DFT Exchange-Correlation Energy =       0.0000000000000000
    Empirical Dispersion Energy =           0.0000000000000000
    PCM Polarization Energy =               0.0000000000000000
    EFP Energy =                            0.0000000000000000
    Total Energy =                       -434.3234409629858419
    Molecular point group: c1
  Basis Set: CC-PVTZ
  Basis Set:

  -Total Gradient:
     Atom            X                  Y                   Z
    ------   -----------------  -----------------  -----------------
       1       -0.000001370735     0.000007775789     0.000008478048
       2        0.004063306868    -0.000128394872     0.002182960398
       3        0.000041317245     0.000013143139     0.000015721939
       4       -0.005707933635     0.000149203455    -0.001110611358
       5       -0.000002949555     0.000000579486    -0.000005051549
       6        0.000002289236    -0.000000793400    -0.000011384971
       7        0.001582650200     0.000202913773    -0.006514664767
       8       -0.000083681281     0.000000328302    -0.000017548887
       9       -0.000000508560    -0.000002029278     0.000001565822
      10       -0.000041605558     0.000000296516    -0.000004301390
      11        0.000210912727    -0.000168427365     0.005460260148
      12       -0.000068722281    -0.000085364339    -0.000000488089
      13        0.000001438133     0.000007368841    -0.000009794057
      14        0.000004857195     0.000003399952     0.000004858712

  **** Optimization is complete! (in 6 steps) ****
    Final optimized geometry and variables:
    Molecular point group: c1

    Geometry (in Angstrom), charge = 0, multiplicity = 1:

    H           -1.094989660773     0.079523452064     1.812846580931
    C           -0.622084115441    -0.475582158569     1.028160129790
    C           -0.595113442166    -1.856505358337     1.037348793580
    C           -0.030358114513     0.179152399301    -0.025956340019
    H           -1.043873564489    -2.390343729165     1.851824058126
    C            0.005918547680    -2.546024583753     0.000744220533
    N            0.000675791084     1.641780375570    -0.005363120975
    C            0.603163105076    -0.480156739339    -1.052900299304
    H            0.016378924578    -3.618651911531     0.009123963951
    C            0.599278678691    -1.860933607075    -1.043699539374
    O            1.066236429079     2.159773142349    -0.025118031643
    O           -1.039268786993     2.204828172144     0.072413582267
    H            1.083049264556     0.071841582355    -1.835615256097
    H            1.068741514848    -2.398561326252    -1.843886385831

  Mulliken Charges: (a.u.)
   Center  Symbol    Alpha    Beta     Spin     Total
       1     H     0.40960  0.40960  0.00000  0.18080
       2     C     3.08729  3.08729  0.00000 -0.17459
       3     C     3.06691  3.06691  0.00000 -0.13382
       4     C     2.93041  2.93041  0.00000  0.13919
       5     H     0.41729  0.41729  0.00000  0.16543
       6     C     3.07297  3.07297  0.00000 -0.14594
       7     N     3.28351  3.28351  0.00000  0.43297
       8     C     3.08656  3.08656  0.00000 -0.17312
       9     H     0.41773  0.41773  0.00000  0.16454
      10     C     3.06630  3.06630  0.00000 -0.13260
      11     O     4.16545  4.16545  0.00000 -0.33091
      12     O     4.16750  4.16750  0.00000 -0.33501
      13     H     0.41116  0.41116  0.00000  0.17769
      14     H     0.41731  0.41731  0.00000  0.16537

   Total alpha = 32.00000, Total beta = 32.00000, Total charge = -0.00000
