                              Psi4 1.0.54 Driver

  ==> Input File <==

--------------------------------------------------------------------------
set {
	reference rhf
	basis cc-pvtz
}

set_num_threads( 4 )
memory 2 gb

molecule MOL {
0 1

H	 -3.484446	 -0.266839	 0.773767
O	 -3.104611	 -0.225977	 -0.085542
C	 -1.772515	 -0.082671	 -0.024055
C	 -1.093149	 -0.009586	 1.185721
C	 -1.080807	 -0.008258	 -1.221630
H	 -1.636746	 -0.068065	 2.110658
C	 0.273613	 0.137449	 1.191684
H	 -1.623869	 -0.066680	 -2.143417
C	 0.287700	 0.138965	 -1.198353
H	 0.809401	 0.195089	 2.118354
C	 0.981121	 0.213562	 0.000000
H	 0.825348	 0.196804	 -2.126850
C	 2.447402	 0.371303	 0.000000
O	 3.227427	 -0.521847	 0.000000
H	 2.796538	 1.409525	 0.000000

	symmetry c1
}
set optking {
	frozen_dihedral = ("
		7 11 13 14
	")
}

ee,wfn = optimize('scf', return_wfn=True)
oeprop( wfn, 'DIPOLE', 'QUADRUPOLE', 'MULLIKEN_CHARGES')
f=open( 'psi4out.xyz', 'w' )
f.write( "15  " )
f.write( str(ee) + "\n" )
f.write( MOL.save_string_xyz() )
f.close()
--------------------------------------------------------------------------

    Molecular point group: c1
  Charge       = 0
  Multiplicity = 1
  Basis Set: CC-PVTZ
  Basis Set:
  @DF-RHF Final Energy:  -418.42638888899563
    Total Energy =                       -418.4263888889959162
    Molecular point group: c1
  Basis Set: CC-PVTZ
  Basis Set:
  Basis Set: CC-PVTZ
  Basis Set:
  @DF-RHF Final Energy:  -418.42705526850318
    Total Energy =                       -418.4270552685036364
  Basis Set: CC-PVTZ
  Basis Set:
  Basis Set: CC-PVTZ
  Basis Set:
  @DF-RHF Final Energy:  -418.42708328020558
    Total Energy =                       -418.4270832802058067
  Basis Set: CC-PVTZ
  Basis Set:
  Basis Set: CC-PVTZ
  Basis Set:
  @DF-RHF Final Energy:  -418.42703029749231
    Total Energy =                       -418.4270302974923652
  Basis Set: CC-PVTZ
  Basis Set:
  Basis Set: CC-PVTZ
  Basis Set:
  @DF-RHF Final Energy:  -418.42709214975940
    Total Energy =                       -418.4270921497595737
  Basis Set: CC-PVTZ
  Basis Set:
  Charge       = 0
  Multiplicity = 1
  Basis Set: CC-PVTZ
  Basis Set:

    Orbital Energies (a.u.)
    -----------------------

    Doubly Occupied:

       1A    -20.596116     2A    -20.562059     3A    -11.330956
       4A    -11.310965     5A    -11.252572     6A    -11.250777
       7A    -11.242473     8A    -11.240390     9A    -11.234949
      10A     -1.427751    11A     -1.415977    12A     -1.172425
      13A     -1.041151    14A     -1.038483    15A     -0.890073
      16A     -0.863102    17A     -0.803850    18A     -0.756485
      19A     -0.710782    20A     -0.680284    21A     -0.659770
      22A     -0.631018    23A     -0.607539    24A     -0.607101
      25A     -0.594745    26A     -0.565114    27A     -0.534001
      28A     -0.505058    29A     -0.499091    30A     -0.425492
      31A     -0.358378    32A     -0.328117

  @DF-RHF Final Energy:  -418.42709274217367

   => Energetics <=

    Nuclear Repulsion Energy =            401.0666511917409593
    One-Electron Energy =               -1364.7134030336660544
    Two-Electron Energy =                 545.2196590997510839
    DFT Exchange-Correlation Energy =       0.0000000000000000
    Empirical Dispersion Energy =           0.0000000000000000
    PCM Polarization Energy =               0.0000000000000000
    EFP Energy =                            0.0000000000000000
    Total Energy =                       -418.4270927421740680
    Molecular point group: c1
  Basis Set: CC-PVTZ
  Basis Set:

  -Total Gradient:
     Atom            X                  Y                   Z
    ------   -----------------  -----------------  -----------------
       1        0.000005632729     0.000007115744     0.000001204506
       2       -0.000026406503    -0.000027510399     0.000011437024
       3        0.000038411277     0.000041897266    -0.000150627574
       4        0.000073719040     0.000010425007     0.000054821197
       5       -0.000166930990    -0.000021726143     0.000084314517
       6        0.000000660723     0.000001475960    -0.000000973237
       7       -0.000058856249     0.000147748486     0.000070846230
       8        0.000018288468     0.000006815282    -0.000010144791
       9        0.000165745755    -0.000018572432     0.000093084948
      10       -0.000010372271     0.000006032368    -0.000007048777
      11       -0.000035397211    -0.000239283732    -0.000295547063
      12       -0.000019488609     0.000003181148    -0.000003368382
      13        0.000083430413     0.000023354878     0.000436297549
      14       -0.000053252848     0.000053539098    -0.000262491071
      15       -0.000015183731     0.000005507469    -0.000021805077

  **** Optimization is complete! (in 6 steps) ****
    Final optimized geometry and variables:
    Molecular point group: c1

    Geometry (in Angstrom), charge = 0, multiplicity = 1:

    H           -3.496734761791    -0.267750730023     0.785088465701
    O           -3.118706282087    -0.215996221912    -0.074185727847
    C           -1.781404297904    -0.072052771658    -0.008984552165
    C           -1.099214743489     0.001409083014     1.190822171304
    C           -1.085997460471     0.003455895186    -1.204199851850
    H           -1.634066754826    -0.059186064962     2.120899687365
    C            0.275001660977     0.149255677371     1.193051198613
    H           -1.626651383211    -0.057728231509    -2.127721937681
    C            0.282970438020     0.151151271500    -1.189566437006
    H            0.794270718182     0.199840551848     2.131641511321
    C            0.978237960956     0.220935224493     0.007439631136
    H            0.813494442144     0.203962181737    -2.121786582880
    C            2.468179634409     0.389464149029     0.013496414555
    O            3.236349470662    -0.507742947396     0.022602109866
    H            2.832846033341     1.422306815994     0.006037211902

  Mulliken Charges: (a.u.)
   Center  Symbol    Alpha    Beta     Spin     Total
       1     H     0.38666  0.38666  0.00000  0.22669
       2     O     4.17064  4.17064  0.00000 -0.34127
       3     C     2.85740  2.85740  0.00000  0.28521
       4     C     3.12379  3.12379  0.00000 -0.24758
       5     C     3.09891  3.09891  0.00000 -0.19782
       6     H     0.43229  0.43229  0.00000  0.13543
       7     C     3.08741  3.08741  0.00000 -0.17481
       8     H     0.41715  0.41715  0.00000  0.16571
       9     C     3.07817  3.07817  0.00000 -0.15634
      10     H     0.42138  0.42138  0.00000  0.15724
      11     C     2.95450  2.95450  0.00000  0.09099
      12     H     0.42160  0.42160  0.00000  0.15680
      13     C     2.93580  2.93580  0.00000  0.12840
      14     O     4.15524  4.15524  0.00000 -0.31048
      15     H     0.45908  0.45908  0.00000  0.08184

   Total alpha = 32.00000, Total beta = 32.00000, Total charge = -0.00000

*** Psi4 exiting successfully. Buy a developer a beer!
