  ==> Input File <==

--------------------------------------------------------------------------
set {
	reference rhf
	basis 6-31G*
}

set_num_threads( 1 )
memory 2 gb

molecule MOL {
0 1

H	 1.807615	 -3.057987	 -1.500355
O	 2.623847	 -2.713899	 -1.832680
C	 2.392867	 -2.025790	 -3.035680
C	 1.692344	 -0.686193	 -2.837000
H	 3.368955	 -1.866133	 -3.475493
H	 1.824668	 -2.647080	 -3.727004
C	 0.278850	 -0.802382	 -2.261324
H	 2.303801	 -0.071118	 -2.181890
H	 1.650212	 -0.179546	 -3.799757
C	 -0.417363	 0.554609	 -2.124653
H	 0.327821	 -1.284611	 -1.288996
H	 -0.321118	 -1.448672	 -2.902174
C	 -1.867748	 0.487535	 -1.632488
H	 0.161129	 1.187872	 -1.454449
H	 -0.405234	 1.048957	 -3.093763
C	 -2.037799	 -0.007733	 -0.193645
H	 -2.301294	 1.482433	 -1.710140
H	 -2.445834	 -0.146576	 -2.302978
C	 -3.489788	 0.042957	 0.286558
H	 -1.419914	 0.596260	 0.469320
H	 -1.673729	 -1.028347	 -0.103628
C	 -4.216917	 1.317354	 -0.141063
H	 -4.025645	 -0.823308	 -0.095450
H	 -3.513059	 -0.038752	 1.371301
H	 -4.239342	 1.411634	 -1.223113
H	 -5.243387	 1.322503	 0.212445
H	 -3.726170	 2.201406	 0.256408

	symmetry c1
}
set optking {
	frozen_dihedral = ("
		14 10 7 4,
		14 10 13 16,
		10 7 4 8,
		8 4 3 2,
		10 13 16 20,
		4 3 2 1
	")
}

ee = energy('scf')
oeprop('DIPOLE', 'QUADRUPOLE', 'MULLIKEN_CHARGES')
f=open( 'psi4out.xyz', 'w' )
f.write( "27  " )
f.write( str(ee) + "\n" )
f.write( MOL.save_string_xyz() )
f.close()
--------------------------------------------------------------------------

    Molecular point group: c1

    Geometry (in Angstrom), charge = 0, multiplicity = 1:

       Center              X                  Y                   Z               Mass
    ------------   -----------------  -----------------  -----------------  -----------------
           H          2.330367539154    -2.595304757030     0.031449636509     1.007825032070
           O          3.146599539154    -2.251216757030    -0.300875363491    15.994914619560
           C          2.915619539154    -1.563107757030    -1.503875363491    12.000000000000
           C          2.215096539154    -0.223510757030    -1.305195363491    12.000000000000
           H          3.891707539154    -1.403450757030    -1.943688363491     1.007825032070
           H          2.347420539154    -2.184397757030    -2.195199363491     1.007825032070
           C          0.801602539154    -0.339699757030    -0.729519363491    12.000000000000
           H          2.826553539154     0.391564242970    -0.650085363491     1.007825032070
           H          2.172964539154     0.283136242970    -2.267952363491     1.007825032070
           C          0.105389539154     1.017291242970    -0.592848363491    12.000000000000
           H          0.850573539154    -0.821928757030     0.242808636509     1.007825032070
           H          0.201634539154    -0.985989757030    -1.370369363491     1.007825032070
           C         -1.344995460846     0.950217242970    -0.100683363491    12.000000000000
           H          0.683881539154     1.650554242970     0.077355636509     1.007825032070
           H          0.117518539154     1.511639242970    -1.561958363491     1.007825032070
           C         -1.515046460846     0.454949242970     1.338159636509    12.000000000000
           H         -1.778541460846     1.945115242970    -0.178335363491     1.007825032070
           H         -1.923081460846     0.316106242970    -0.771173363491     1.007825032070
           C         -2.967035460846     0.505639242970     1.818362636509    12.000000000000
           H         -0.897161460846     1.058942242970     2.001124636509     1.007825032070
           H         -1.150976460846    -0.565664757030     1.428176636509     1.007825032070
           C         -3.694164460846     1.780036242970     1.390741636509    12.000000000000
           H         -3.502892460846    -0.360625757030     1.436354636509     1.007825032070
           H         -2.990306460846     0.423930242970     2.903105636509     1.007825032070
           H         -3.716589460846     1.874316242970     0.308691636509     1.007825032070
           H         -4.720634460846     1.785185242970     1.744249636509     1.007825032070
           H         -3.203417460846     2.664088242970     1.788212636509     1.007825032070

  Charge       = 0
  Multiplicity = 1
  Basis Set: 6-31G*
  Basis Set:

    Orbital Energies (a.u.)
    -----------------------

    Doubly Occupied:

       1A    -20.552133     2A    -11.266863     3A    -11.219392
       4A    -11.216793     5A    -11.215968     6A    -11.214942
       7A    -11.214485     8A    -11.213894     9A    -11.208198
      10A     -1.358874    11A     -1.096498    12A     -1.062477
      13A     -1.007878    14A     -0.944526    15A     -0.895667
      16A     -0.830693    17A     -0.797688    18A     -0.766028
      19A     -0.693501    20A     -0.646794    21A     -0.636328
      22A     -0.619553    23A     -0.609549    24A     -0.587183
      25A     -0.577995    26A     -0.555736    27A     -0.537504
      28A     -0.526353    29A     -0.505357    30A     -0.499202
      31A     -0.486056    32A     -0.474233    33A     -0.468951
      34A     -0.455086    35A     -0.448288    36A     -0.441428
      37A     -0.423012

  @DF-RHF Final Energy:  -388.27558873166475

   => Energetics <=

    Nuclear Repulsion Energy =            463.8633932587079585
    One-Electron Energy =               -1445.7277728046699394
    Two-Electron Energy =                 593.5887908142952938
    DFT Exchange-Correlation Energy =       0.0000000000000000
    Empirical Dispersion Energy =           0.0000000000000000
    PCM Polarization Energy =               0.0000000000000000
    EFP Energy =                            0.0000000000000000
    Total Energy =                       -388.2755887316667440

  Mulliken Charges: (a.u.)
   Center  Symbol    Alpha    Beta     Spin     Total
       1     H     0.27991  0.27991  0.00000  0.44017
       2     O     4.37097  4.37097  0.00000 -0.74193
       3     C     2.99733  2.99733  0.00000  0.00533
       4     C     3.16092  3.16092  0.00000 -0.32185
       5     H     0.41449  0.41449  0.00000  0.17101
       6     H     0.43210  0.43210  0.00000  0.13580
       7     C     3.16343  3.16343  0.00000 -0.32686
       8     H     0.41503  0.41503  0.00000  0.16995
       9     H     0.42440  0.42440  0.00000  0.15119
      10     C     3.15038  3.15038  0.00000 -0.30075
      11     H     0.42304  0.42304  0.00000  0.15392
      12     H     0.42561  0.42561  0.00000  0.14878
      13     C     3.16005  3.16005  0.00000 -0.32010
      14     H     0.42179  0.42179  0.00000  0.15642
      15     H     0.42185  0.42185  0.00000  0.15629
      16     C     3.15387  3.15387  0.00000 -0.30774
      17     H     0.41594  0.41594  0.00000  0.16812
      18     H     0.42488  0.42488  0.00000  0.15024
      19     C     3.15094  3.15094  0.00000 -0.30188
      20     H     0.42343  0.42343  0.00000  0.15314
      21     H     0.42153  0.42153  0.00000  0.15694
      22     C     3.24651  3.24651  0.00000 -0.49302
      23     H     0.42308  0.42308  0.00000  0.15384
      24     H     0.42018  0.42018  0.00000  0.15964
      25     H     0.41782  0.41782  0.00000  0.16436
      26     H     0.41860  0.41860  0.00000  0.16279
      27     H     0.42191  0.42191  0.00000  0.15618

   Total alpha = 37.00000, Total beta = 37.00000, Total charge =  0.00000
