                              Psi4 1.0.54 Driver

  ==> Input File <==

--------------------------------------------------------------------------
set {
	reference rhf
	basis cc-pvtz
}

set_num_threads( 4 )
memory 2 gb

molecule MOL {
0 1

O	 2.868453	 1.353349	 -0.000734
C	 2.841259	 0.166180	 -0.000295
C	 1.542794	 -0.614730	 -0.000853
C	 4.113372	 -0.651103	 0.000743
C	 0.288398	 0.247429	 0.000314
H	 1.557171	 -1.273139	 -0.866508
H	 1.557484	 -1.274998	 0.863344
C	 -0.993089	 -0.581367	 -0.000217
H	 0.305153	 0.900562	 -0.864701
H	 0.305567	 0.898805	 0.866656
C	 -2.258482	 0.271340	 0.000669
H	 -1.002280	 -1.233920	 -0.870484
H	 -1.002061	 -1.235367	 0.868958
C	 -3.542237	 -0.547110	 0.104835
H	 -2.287869	 0.869903	 -0.906509
H	 -2.214995	 0.976302	 0.827267
C	 -4.802363	 0.311885	 0.105030
H	 -3.587133	 -1.251237	 -0.721681
H	 -3.514304	 -1.144775	 1.011992
H	 -4.877396	 0.896554	 -0.805779
H	 -5.694634	 -0.299073	 0.179888
H	 -4.804157	 1.003606	 0.940830
H	 4.145311	 -1.294584	 -0.871587
H	 4.970080	 0.004978	 -0.000091
H	 4.145223	 -1.291980	 0.874988

	symmetry c1
}
set optking {
	frozen_dihedral = ("
		15 11 8 12
	")
}

ee,wfn = optimize('scf', return_wfn=True)
oeprop( wfn, 'DIPOLE', 'QUADRUPOLE', 'MULLIKEN_CHARGES')
f=open( 'psi4out.xyz', 'w' )
f.write( "25  " )
f.write( str(ee) + "\n" )
f.write( MOL.save_string_xyz() )
f.close()
--------------------------------------------------------------------------

    Molecular point group: c1
  Charge       = 0
  Multiplicity = 1
  Basis Set: CC-PVTZ
  Basis Set:
  @DF-RHF Final Energy:  -387.27460349079018
    Total Energy =                       -387.2746034907900139
    Molecular point group: c1
  Basis Set: CC-PVTZ
  Basis Set:
  Basis Set: CC-PVTZ
  Basis Set:
  @DF-RHF Final Energy:  -387.27460931540469
    Total Energy =                       -387.2746093154041773
  Basis Set: CC-PVTZ
  Basis Set:
  Basis Set: CC-PVTZ
  Basis Set:
  @DF-RHF Final Energy:  -387.27461071282863
    Total Energy =                       -387.2746107128284621
  Basis Set: CC-PVTZ
  Basis Set:
  Charge       = 0
  Multiplicity = 1
  Basis Set: CC-PVTZ
  Basis Set:

    Orbital Energies (a.u.)
    -----------------------

    Doubly Occupied:

       1A    -20.538859     2A    -11.320487     3A    -11.230131
       4A    -11.226557     5A    -11.215237     6A    -11.214592
       7A    -11.213412     8A    -11.211542     9A    -11.206351
      10A     -1.398903    11A     -1.095203    12A     -1.057690
      13A     -1.015579    14A     -0.970192    15A     -0.891499
      16A     -0.814616    17A     -0.791289    18A     -0.730992
      19A     -0.663143    20A     -0.654277    21A     -0.633401
      22A     -0.626827    23A     -0.596972    24A     -0.585250
      25A     -0.567589    26A     -0.560057    27A     -0.541355
      28A     -0.527216    29A     -0.513335    30A     -0.491843
      31A     -0.490020    32A     -0.473804    33A     -0.463851
      34A     -0.463406    35A     -0.452476    36A     -0.401358

  @DF-RHF Final Energy:  -387.27461077507854

   => Energetics <=

    Nuclear Repulsion Energy =            439.1464322077577549
    One-Electron Energy =               -1395.1434614016648084
    Two-Electron Energy =                 568.7224184188287381
    DFT Exchange-Correlation Energy =       0.0000000000000000
    Empirical Dispersion Energy =           0.0000000000000000
    PCM Polarization Energy =               0.0000000000000000
    EFP Energy =                            0.0000000000000000
    Total Energy =                       -387.2746107750783722
    Molecular point group: c1
  Basis Set: CC-PVTZ
  Basis Set:

  -Total Gradient:
     Atom            X                  Y                   Z
    ------   -----------------  -----------------  -----------------
       1        0.000050503014    -0.000005878604     0.000241381451
       2       -0.000030559971    -0.000012353548    -0.000712545403
       3       -0.000018628737    -0.000000840412     0.000293816922
       4       -0.000015879025    -0.000012673299     0.000228678126
       5        0.000026610841    -0.000018140854    -0.000088221629
       6        0.000018030034     0.000076260925     0.000026453941
       7       -0.000037793847    -0.000053802711     0.000000025997
       8       -0.000874262874    -0.001293603729     0.000596541220
       9        0.000003126375    -0.000004286682    -0.000016258335
      10        0.000052912870     0.000026918482    -0.000023812762
      11        0.000820183083     0.001353952016     0.000511643527
      12        0.000376023689     0.000739121904    -0.000583526224
      13        0.000142470986     0.000114292852     0.000045848838
      14       -0.000045911144     0.000012709730    -0.000096356531
      15       -0.000422123544    -0.000781302214    -0.000507633084
      16       -0.000113355766    -0.000112763211     0.000043856885
      17        0.000075960152    -0.000017436820     0.000055682383
      18       -0.000028759237     0.000034137439     0.000027163717
      19       -0.000090143804     0.000009310590    -0.000085573796
      20        0.000049589616    -0.000078948539     0.000077406063
      21        0.000036539990    -0.000015681546     0.000024317873
      22        0.000026964602    -0.000021849675    -0.000069360228
      23       -0.000048515403     0.000055461048     0.000019408662
      24        0.000028818443     0.000012649828     0.000001769507
      25        0.000018199661    -0.000005252967    -0.000010707120

  **** Optimization is complete! (in 4 steps) ****
    Final optimized geometry and variables:
    Molecular point group: c1

    Geometry (in Angstrom), charge = 0, multiplicity = 1:

    O            2.868190101981     1.352554629115    -0.026025032448
    C            2.840710039817     0.165455826182    -0.029334075453
    C            1.542198996198    -0.615589443572    -0.025200469345
    C            4.112676470727    -0.652087358915    -0.031934856732
    C            0.287783702897     0.246341628374    -0.019028145444
    H            1.553515937680    -1.273515208460    -0.891174373543
    H            1.560243682302    -1.276299429932     0.838652918216
    C           -0.994161019218    -0.582773679619    -0.008947277221
    H            0.298981121779     0.896921096623    -0.886199855686
    H            0.310795281137     0.900478582670     0.845050135129
    C           -2.258088459516     0.272274125964    -0.009642274231
    H           -1.005191701499    -1.234136910671    -0.879994863571
    H           -0.997959879984    -1.232479274924     0.863125431487
    C           -3.542742659736    -0.547444436854     0.079206082024
    H           -2.283252940313     0.870312361980    -0.917218281503
    H           -2.222039774197     0.972465696829     0.820928726298
    C           -4.802924159274     0.310809966999     0.068735588108
    H           -3.578935021656    -1.249538116964    -0.749469188259
    H           -3.524521432113    -1.147442453737     0.984916277156
    H           -4.871617156265     0.893487636091    -0.843691644807
    H           -5.695388730513    -0.300423459033     0.138667125349
    H           -4.810694577119     1.004311977088     0.902930392638
    H            4.142283291392    -1.294466739006    -0.905085083577
    H            4.969772912261     0.003608452712    -0.033987931896
    H            4.146080674648    -1.293867845358     0.841554068795

  Mulliken Charges: (a.u.)
   Center  Symbol    Alpha    Beta     Spin     Total
       1     O     4.17075  4.17075  0.00000 -0.34150
       2     C     2.86222  2.86222  0.00000  0.27556
       3     C     3.11403  3.11403  0.00000 -0.22805
       4     C     3.15126  3.15126  0.00000 -0.30252
       5     C     3.08306  3.08306  0.00000 -0.16612
       6     H     0.44561  0.44561  0.00000  0.10877
       7     H     0.44564  0.44564  0.00000  0.10872
       8     C     3.09012  3.09012  0.00000 -0.18023
       9     H     0.44612  0.44612  0.00000  0.10775
      10     H     0.44609  0.44609  0.00000  0.10782
      11     C     3.08616  3.08616  0.00000 -0.17232
      12     H     0.45587  0.45587  0.00000  0.08826
      13     H     0.45600  0.45600  0.00000  0.08800
      14     C     3.08432  3.08432  0.00000 -0.16864
      15     H     0.45381  0.45381  0.00000  0.09239
      16     H     0.45363  0.45363  0.00000  0.09275
      17     C     3.15038  3.15038  0.00000 -0.30077
      18     H     0.45524  0.45524  0.00000  0.08951
      19     H     0.45519  0.45519  0.00000  0.08962
      20     H     0.45483  0.45483  0.00000  0.09034
      21     H     0.44870  0.44870  0.00000  0.10261
      22     H     0.45479  0.45479  0.00000  0.09042
      23     H     0.45043  0.45043  0.00000  0.09915
      24     H     0.43536  0.43536  0.00000  0.12927
      25     H     0.45039  0.45039  0.00000  0.09923

   Total alpha = 36.00000, Total beta = 36.00000, Total charge = -0.00000

*** Psi4 exiting successfully. Buy a developer a beer!
