  ==> Input File <==

--------------------------------------------------------------------------
set {
	reference rhf
	basis 6-31G*
}

set_num_threads( 4 )
memory 2 gb

molecule MOL {
0 1

H	 2.575353	 2.064200	 0.280355
O	 3.327221	 1.711818	 -0.173067
C	 3.566904	 0.396410	 0.258567
C	 2.544731	 -0.604775	 -0.268234
H	 4.552197	 0.140790	 -0.109578
H	 3.607300	 0.353706	 1.346374
C	 1.119218	 -0.360957	 0.233097
H	 2.559858	 -0.573750	 -1.354592
H	 2.865499	 -1.602970	 0.025161
C	 0.127412	 -1.413763	 -0.269636
H	 0.792975	 0.625594	 -0.084153
H	 1.114392	 -0.357490	 1.323191
C	 -1.298997	 -1.265338	 0.272274
H	 0.103077	 -1.391972	 -1.357652
H	 0.499268	 -2.398619	 0.005105
C	 -2.037799	 -0.007733	 -0.193645
H	 -1.873037	 -2.137723	 -0.033076
H	 -1.273965	 -1.286601	 1.360741
C	 -3.489788	 0.042957	 0.286558
H	 -2.018487	 0.037633	 -1.281615
H	 -1.520642	 0.881911	 0.157615
C	 -4.216917	 1.317354	 -0.141063
H	 -4.025645	 -0.823308	 -0.095450
H	 -3.513059	 -0.038752	 1.371301
H	 -4.239342	 1.411634	 -1.223113
H	 -5.243387	 1.322503	 0.212445
H	 -3.726170	 2.201406	 0.256408

	symmetry c1
}
set optking {
	frozen_dihedral = ("
		20 16 19 22
	")
}

ee = optimize('scf')
oeprop('DIPOLE', 'QUADRUPOLE', 'MULLIKEN_CHARGES')
f=open( 'psi4out.xyz', 'w' )
f.write( "27  " )
f.write( str(ee) + "\n" )
f.write( MOL.save_string_xyz() )
f.close()
--------------------------------------------------------------------------

    Molecular point group: c1
  Charge       = 0
  Multiplicity = 1
  Basis Set: 6-31G*
  Basis Set:
  @DF-RHF Final Energy:  -388.28174668484644
    Total Energy =                       -388.2817466848457570
    Molecular point group: c1
  Basis Set: 6-31G*
  Basis Set:
  Basis Set: 6-31G*
  Basis Set:
  @DF-RHF Final Energy:  -388.28174535158013
    Total Energy =                       -388.2817453515799571
  Basis Set: 6-31G*
  Basis Set:
  Charge       = 0
  Multiplicity = 1
  Basis Set: 6-31G*
  Basis Set:

    Orbital Energies (a.u.)
    -----------------------

    Doubly Occupied:

       1A    -20.552309     2A    -11.267052     3A    -11.219809
       4A    -11.217318     5A    -11.216170     6A    -11.215713
       7A    -11.215223     8A    -11.214381     9A    -11.209437
      10A     -1.359078    11A     -1.095310    12A     -1.061576
      13A     -1.011575    14A     -0.948516    15A     -0.888134
      16A     -0.819965    17A     -0.801788    18A     -0.778079
      19A     -0.693715    20A     -0.652104    21A     -0.638173
      22A     -0.614625    23A     -0.600384    24A     -0.583088
      25A     -0.580178    26A     -0.552402    27A     -0.541215
      28A     -0.531869    29A     -0.505111    30A     -0.494038
      31A     -0.485597    32A     -0.474078    33A     -0.469191
      34A     -0.461168    35A     -0.452217    36A     -0.441783
      37A     -0.422938

  @DF-RHF Final Energy:  -388.28174629232797

   => Energetics <=

    Nuclear Repulsion Energy =            459.8487420297831250
    One-Electron Energy =               -1437.6903630298320422
    Two-Electron Energy =                 589.5598747077217467
    DFT Exchange-Correlation Energy =       0.0000000000000000
    Empirical Dispersion Energy =           0.0000000000000000
    PCM Polarization Energy =               0.0000000000000000
    EFP Energy =                            0.0000000000000000
    Total Energy =                       -388.2817462923271705
    Molecular point group: c1
  Basis Set: 6-31G*
  Basis Set:

  -Total Gradient:
     Atom            X                  Y                   Z
    ------   -----------------  -----------------  -----------------
       1        0.000004076583    -0.000016948379     0.000008452201
       2        0.000035702367    -0.000017787342    -0.000028270144
       3       -0.000042575072     0.000017419446     0.000048766664
       4       -0.000002587256     0.000017003209    -0.000039175713
       5       -0.000011795158     0.000024843434    -0.000010397740
       6        0.000011831766    -0.000003294874     0.000005529883
       7       -0.000024856106     0.000010022655     0.000001839294
       8       -0.000003339656    -0.000007999017    -0.000005102324
       9       -0.000006904763     0.000006067271     0.000002373446
      10        0.000019171096    -0.000041014329     0.000015912135
      11       -0.000040311443     0.000038747080     0.000006373883
      12        0.000005008818    -0.000010393179    -0.000011249638
      13       -0.000062006820    -0.000009528732    -0.000115301957
      14        0.000003930240    -0.000034566312     0.000006048946
      15        0.000017248476     0.000012276734     0.000023826468
      16        0.000125754819     0.000568503001     0.000215139165
      17       -0.000013102857    -0.000002372087    -0.000012929010
      18       -0.000024202036    -0.000007645075    -0.000023706833
      19       -0.000139840598    -0.000301181372    -0.000383535060
      20       -0.000028988672    -0.000415117191    -0.000005330612
      21        0.000094537111     0.000042083634     0.000025954726
      22        0.000088907145     0.000132031896     0.000251599576
      23       -0.000010520252    -0.000041007708     0.000041112348
      24        0.000005180653     0.000048214032    -0.000011667430
      25        0.000016192950    -0.000005974087     0.000001982359
      26       -0.000001563789    -0.000008079752    -0.000013566780
      27       -0.000014947549     0.000005697043     0.000005322149

  **** Optimization is complete! (in 3 steps) ****
    Final optimized geometry and variables:
    Molecular point group: c1

    Geometry (in Angstrom), charge = 0, multiplicity = 1:

    H            2.568626390652     2.042012703346     0.271078269246
    O            3.320831131482     1.689453384260    -0.181654509049
    C            3.563009766976     0.376098910511     0.254635066101
    C            2.542566552049    -0.628822045519    -0.268413650949
    H            4.548552540014     0.121288010968    -0.113313276831
    H            3.604218953497     0.337213809929     1.342559214531
    C            1.116839407495    -0.386044275353     0.232685514988
    H            2.557177201721    -0.601552277996    -1.354878252945
    H            2.865328712318    -1.625375060632     0.028301074609
    C            0.126413326482    -1.441130063091    -0.267958060360
    H            0.789218673134     0.599472205684    -0.086418818602
    H            1.112152753949    -0.380473467250     1.322777117144
    C           -1.300715122269    -1.291402425379     0.271570862998
    H            0.103507475896    -1.422778296211    -1.356074489089
    H            0.498327598993    -2.424947431111     0.010414374011
    C           -2.034343675883    -0.028585234666    -0.188502134028
    H           -1.876800988540    -2.160238611212    -0.040067266145
    H           -1.278268207144    -1.318982542641     1.359916292638
    C           -3.489157735027     0.019503470226     0.283512277485
    H           -2.009184712186     0.022338419026    -1.276108156493
    H           -1.517241831000     0.857289518471     0.172171048532
    C           -4.214123907539     1.295906129003    -0.141754738033
    H           -4.022248613226    -0.846009127611    -0.103915566734
    H           -3.518229786522    -0.065448936536     1.367907915589
    H           -4.225550538847     1.398891294698    -1.223210888614
    H           -5.244225779096     1.296501766873     0.201034112376
    H           -3.728979747908     2.177439889760     0.267891721401

  Mulliken Charges: (a.u.)
   Center  Symbol    Alpha    Beta     Spin     Total
       1     H     0.27992  0.27992  0.00000  0.44016
       2     O     4.37091  4.37091  0.00000 -0.74182
       3     C     2.99739  2.99739  0.00000  0.00523
       4     C     3.16093  3.16093  0.00000 -0.32185
       5     H     0.41444  0.41444  0.00000  0.17112
       6     H     0.43205  0.43205  0.00000  0.13590
       7     C     3.16335  3.16335  0.00000 -0.32671
       8     H     0.41496  0.41496  0.00000  0.17009
       9     H     0.42433  0.42433  0.00000  0.15134
      10     C     3.15203  3.15203  0.00000 -0.30406
      11     H     0.42285  0.42285  0.00000  0.15431
      12     H     0.42545  0.42545  0.00000  0.14909
      13     C     3.15356  3.15356  0.00000 -0.30711
      14     H     0.42163  0.42163  0.00000  0.15673
      15     H     0.42149  0.42149  0.00000  0.15703
      16     C     3.15234  3.15234  0.00000 -0.30468
      17     H     0.42123  0.42123  0.00000  0.15754
      18     H     0.42429  0.42429  0.00000  0.15143
      19     C     3.15126  3.15126  0.00000 -0.30252
      20     H     0.42354  0.42354  0.00000  0.15292
      21     H     0.42389  0.42389  0.00000  0.15223
      22     C     3.23915  3.23915  0.00000 -0.47830
      23     H     0.42272  0.42272  0.00000  0.15456
      24     H     0.42336  0.42336  0.00000  0.15327
      25     H     0.42145  0.42145  0.00000  0.15709
      26     H     0.41921  0.41921  0.00000  0.16158
      27     H     0.42228  0.42228  0.00000  0.15543

   Total alpha = 37.00000, Total beta = 37.00000, Total charge =  0.00000
