  ==> Input File <==

--------------------------------------------------------------------------
set {
	reference rhf
	basis 6-31G*
}

set_num_threads( 1 )
memory 2 gb

molecule MOL {
0 1

O	 0.866219	 -0.235622	 -4.916452
C	 0.321741	 0.310207	 -4.005382
C	 0.285939	 -0.325028	 -2.626433
C	 -0.327661	 1.666608	 -4.166096
C	 1.621753	 -0.120181	 -1.893780
H	 0.104328	 -1.386188	 -2.757811
H	 -0.527999	 0.087054	 -2.036754
C	 1.631333	 -0.777471	 -0.511575
H	 2.413294	 -0.524717	 -2.514422
H	 1.820561	 0.944925	 -1.785285
C	 2.915987	 -0.544314	 0.291766
H	 1.466668	 -1.847612	 -0.622973
H	 0.789298	 -0.397540	 0.063298
C	 3.373361	 0.914346	 0.347591
H	 3.708709	 -1.142521	 -0.150311
H	 2.780642	 -0.921148	 1.303579
H	 3.506512	 1.320010	 -0.651625
H	 4.322697	 0.999599	 0.867103
H	 2.660624	 1.545032	 0.868198
H	 -1.402708	 1.574681	 -4.035374
H	 -0.118307	 2.063126	 -5.149828
H	 0.029279	 2.356155	 -3.406543

	symmetry c1
}
set optking {
	frozen_dihedral = ("
		6 3 2 1,
		6 3 5 8,
		3 5 8 12
	")
}

ee = energy('scf')
oeprop('DIPOLE', 'QUADRUPOLE', 'MULLIKEN_CHARGES')
f=open( 'psi4out.xyz', 'w' )
f.write( "22  " )
f.write( str(ee) + "\n" )
f.write( MOL.save_string_xyz() )
f.close()
--------------------------------------------------------------------------

    Molecular point group: c1

    Geometry (in Angstrom), charge = 0, multiplicity = 1:

       Center              X                  Y                   Z               Mass
    ------------   -----------------  -----------------  -----------------  -----------------
           O         -0.478573164358    -0.362073281436    -2.729241754406    15.994914619560
           C         -1.023051164358     0.183755718564    -1.818171754406    12.000000000000
           C         -1.058853164358    -0.451479281436    -0.439222754406    12.000000000000
           C         -1.672453164358     1.540156718564    -1.978885754406    12.000000000000
           C          0.276960835642    -0.246632281436     0.293430245594    12.000000000000
           H         -1.240464164358    -1.512639281436    -0.570600754406     1.007825032070
           H         -1.872791164358    -0.039397281436     0.150456245594     1.007825032070
           C          0.286540835642    -0.903922281436     1.675635245594    12.000000000000
           H          1.068501835642    -0.651168281436    -0.327211754406     1.007825032070
           H          0.475768835642     0.818473718564     0.401925245594     1.007825032070
           C          1.571194835642    -0.670765281436     2.478976245594    12.000000000000
           H          0.121875835642    -1.974063281436     1.564237245594     1.007825032070
           H         -0.555494164358    -0.523991281436     2.250508245594     1.007825032070
           C          2.028568835642     0.787894718564     2.534801245594    12.000000000000
           H          2.363916835642    -1.268972281436     2.036899245594     1.007825032070
           H          1.435849835642    -1.047599281436     3.490789245594     1.007825032070
           H          2.161719835642     1.193558718564     1.535585245594     1.007825032070
           H          2.977904835642     0.873147718564     3.054313245594     1.007825032070
           H          1.315831835642     1.418580718564     3.055408245594     1.007825032070
           H         -2.747500164358     1.448229718564    -1.848163754406     1.007825032070
           H         -1.463099164358     1.936674718564    -2.962617754406     1.007825032070
           H         -1.315513164358     2.229703718564    -1.219332754406     1.007825032070

  Charge       = 0
  Multiplicity = 1
  Basis Set: 6-31G*
  Basis Set:

    Orbital Energies (a.u.)
    -----------------------

    Doubly Occupied:

       1A    -20.547279     2A    -11.324432     3A    -11.229336
       4A    -11.228756     5A    -11.228205     6A    -11.222415
       7A    -11.220820     8A    -11.212921     9A     -1.393034
      10A     -1.096528    11A     -1.044351    12A     -0.999177
      13A     -0.937786    14A     -0.862002    15A     -0.782996
      16A     -0.733180    17A     -0.661798    18A     -0.646750
      19A     -0.628788    20A     -0.618491    21A     -0.598756
      22A     -0.585066    23A     -0.555477    24A     -0.549746
      25A     -0.528730    26A     -0.524124    27A     -0.501081
      28A     -0.485593    29A     -0.466231    30A     -0.465529
      31A     -0.461456    32A     -0.396239

  @DF-RHF Final Energy:  -348.09590006087325

   => Energetics <=

    Nuclear Repulsion Energy =            374.5628444107691735
    One-Electron Energy =               -1213.8434889980526350
    Two-Electron Energy =                 491.1847445264104408
    DFT Exchange-Correlation Energy =       0.0000000000000000
    Empirical Dispersion Energy =           0.0000000000000000
    PCM Polarization Energy =               0.0000000000000000
    EFP Energy =                            0.0000000000000000
    Total Energy =                       -348.0959000608729639

  Mulliken Charges: (a.u.)
   Center  Symbol    Alpha    Beta     Spin     Total
       1     O     4.26252  4.26252  0.00000 -0.52504
       2     C     2.73716  2.73716  0.00000  0.52569
       3     C     3.19897  3.19897  0.00000 -0.39793
       4     C     3.28963  3.28963  0.00000 -0.57927
       5     C     3.16604  3.16604  0.00000 -0.33209
       6     H     0.40148  0.40148  0.00000  0.19704
       7     H     0.41693  0.41693  0.00000  0.16615
       8     C     3.15223  3.15223  0.00000 -0.30446
       9     H     0.40595  0.40595  0.00000  0.18809
      10     H     0.41808  0.41808  0.00000  0.16384
      11     C     3.15260  3.15260  0.00000 -0.30519
      12     H     0.41806  0.41806  0.00000  0.16388
      13     H     0.42429  0.42429  0.00000  0.15141
      14     C     3.24458  3.24458  0.00000 -0.48917
      15     H     0.42085  0.42085  0.00000  0.15831
      16     H     0.41907  0.41907  0.00000  0.16186
      17     H     0.41876  0.41876  0.00000  0.16248
      18     H     0.41701  0.41701  0.00000  0.16597
      19     H     0.42210  0.42210  0.00000  0.15580
      20     H     0.40690  0.40690  0.00000  0.18619
      21     H     0.39709  0.39709  0.00000  0.20581
      22     H     0.40968  0.40968  0.00000  0.18064

   Total alpha = 32.00000, Total beta = 32.00000, Total charge =  0.00000
