  ==> Input File <==

--------------------------------------------------------------------------
set {
	reference rhf
	basis 6-31G*
}

set_num_threads( 4 )
memory 2 gb

molecule MOL {
0 1

O	 3.091343	 1.150358	 0.212171
C	 2.701189	 0.057885	 -0.047330
C	 1.435612	 -0.268513	 -0.802691
O	 3.347903	 -1.046386	 0.304773
C	 0.661497	 0.972788	 -1.240905
H	 1.719401	 -0.889659	 -1.645800
H	 0.829194	 -0.900721	 -0.159055
C	 -0.677590	 0.658422	 -1.916563
H	 1.280560	 1.564279	 -1.908751
H	 0.482692	 1.594042	 -0.369989
C	 -0.567346	 -0.058446	 -3.265287
H	 -1.208769	 1.595903	 -2.063883
H	 -1.293762	 0.065769	 -1.241949
C	 -1.922375	 -0.250848	 -3.949304
H	 0.088575	 0.512124	 -3.921058
H	 -0.098445	 -1.031185	 -3.135353
C	 -1.824984	 -0.970836	 -5.295507
H	 -2.392787	 0.720056	 -4.095224
H	 -2.582296	 -0.812108	 -3.289613
C	 -3.182012	 -1.155570	 -5.973777
H	 -1.165105	 -0.411845	 -5.955606
H	 -1.358985	 -1.943334	 -5.151033
H	 -3.080149	 -1.668610	 -6.925102
H	 -3.658832	 -0.198121	 -6.163856
H	 -3.854320	 -1.740887	 -5.352745
C	 4.728119	 -1.109107	 -0.004993
H	 4.882018	 -1.033965	 -1.071845
H	 5.068212	 -2.067527	 0.355250
H	 5.265056	 -0.311663	 0.488280

	symmetry c1
}
set optking {
	frozen_dihedral = ("
		1 2 4 26
	")
}

ee = optimize('scf')
oeprop('DIPOLE', 'QUADRUPOLE', 'MULLIKEN_CHARGES')
f=open( 'psi4out.xyz', 'w' )
f.write( "29  " )
f.write( str(ee) + "\n" )
f.write( MOL.save_string_xyz() )
f.close()
--------------------------------------------------------------------------

    Molecular point group: c1
  Charge       = 0
  Multiplicity = 1
  Basis Set: 6-31G*
  Basis Set:
  @DF-RHF Final Energy:  -501.03217137388231
    Total Energy =                       -501.0321713738826475
    Molecular point group: c1
  Basis Set: 6-31G*
  Basis Set:
  Basis Set: 6-31G*
  Basis Set:
  @DF-RHF Final Energy:  -501.02976521203084
    Total Energy =                       -501.0297652120307248
  Basis Set: 6-31G*
  Basis Set:
  Basis Set: 6-31G*
  Basis Set:
  @DF-RHF Final Energy:  -501.03296912245321
    Total Energy =                       -501.0329691224540056
  Basis Set: 6-31G*
  Basis Set:
  Basis Set: 6-31G*
  Basis Set:
  @DF-RHF Final Energy:  -501.03304589715401
    Total Energy =                       -501.0330458971541248
  Basis Set: 6-31G*
  Basis Set:
  Basis Set: 6-31G*
  Basis Set:
  @DF-RHF Final Energy:  -501.03305427983412
    Total Energy =                       -501.0330542798349143
  Basis Set: 6-31G*
  Basis Set:
  Basis Set: 6-31G*
  Basis Set:
  @DF-RHF Final Energy:  -501.03305199948602
    Total Energy =                       -501.0330519994865881
  Basis Set: 6-31G*
  Basis Set:
  Basis Set: 6-31G*
  Basis Set:
  @DF-RHF Final Energy:  -501.03305505834305
    Total Energy =                       -501.0330550583435070
  Basis Set: 6-31G*
  Basis Set:
  Charge       = 0
  Multiplicity = 1
  Basis Set: 6-31G*
  Basis Set:

    Orbital Energies (a.u.)
    -----------------------

    Doubly Occupied:

       1A    -20.592276     2A    -20.551336     3A    -11.373720
       4A    -11.285326     5A    -11.235853     6A    -11.219836
       7A    -11.218348     8A    -11.216973     9A    -11.216684
      10A    -11.215225    11A    -11.209706    12A     -1.461916
      13A     -1.364405    14A     -1.098674    15A     -1.066924
      16A     -1.017848    17A     -0.976129    18A     -0.931738
      19A     -0.863754    20A     -0.800475    21A     -0.791401
      22A     -0.762060    23A     -0.699850    24A     -0.677839
      25A     -0.671171    26A     -0.652203    27A     -0.627760
      28A     -0.610420    29A     -0.596684    30A     -0.584728
      31A     -0.569448    32A     -0.546620    33A     -0.539464
      34A     -0.530321    35A     -0.515121    36A     -0.506568
      37A     -0.500002    38A     -0.478675    39A     -0.471278
      40A     -0.463049    41A     -0.461663    42A     -0.451426
      43A     -0.441709    44A     -0.433033

  @DF-RHF Final Energy:  -501.03305561666866

   => Energetics <=

    Nuclear Repulsion Energy =            610.3066821495908698
    One-Electron Energy =               -1891.6801924400356256
    Two-Electron Energy =                 780.3404546737763212
    DFT Exchange-Correlation Energy =       0.0000000000000000
    Empirical Dispersion Energy =           0.0000000000000000
    PCM Polarization Energy =               0.0000000000000000
    EFP Energy =                            0.0000000000000000
    Total Energy =                       -501.0330556166684346
    Molecular point group: c1
  Basis Set: 6-31G*
  Basis Set:

  -Total Gradient:
     Atom            X                  Y                   Z
    ------   -----------------  -----------------  -----------------
       1       -0.005396720073     0.000170598227     0.008007702590
       2        0.007424360812    -0.001949397964    -0.015083315244
       3       -0.000005404093    -0.000058803659     0.000007732943
       4       -0.000778932149     0.005350308944     0.013726178122
       5       -0.000007443941    -0.000015593828     0.000016000960
       6       -0.000013371369     0.000006488540    -0.000002781758
       7       -0.000003156988    -0.000013418591     0.000000515932
       8        0.000003182416     0.000001810583    -0.000002392015
       9       -0.000000736045     0.000001545643    -0.000005384939
      10        0.000002134412     0.000001007978    -0.000001978993
      11       -0.000001500336     0.000006019002    -0.000005360772
      12        0.000002567717     0.000001083814     0.000002526930
      13        0.000000469328    -0.000000049629    -0.000001155640
      14        0.000000394480    -0.000004218912    -0.000000453952
      15        0.000001518956     0.000002331832    -0.000002370625
      16       -0.000002017579     0.000002775189     0.000000746052
      17       -0.000001328354    -0.000007967859     0.000003861855
      18       -0.000001468381    -0.000001558224     0.000000353108
      19        0.000001793731    -0.000001602307     0.000001681872
      20        0.000000757921     0.000006478716    -0.000003440645
      21        0.000001845002    -0.000002141729     0.000001249435
      22       -0.000002258336    -0.000002122361     0.000000680056
      23        0.000000114448     0.000002409002    -0.000001356173
      24       -0.000002689873     0.000000298344     0.000000991914
      25        0.000002563100    -0.000001019107    -0.000000552894
      26       -0.001226156931    -0.003489509889    -0.006669363789
      27       -0.000011592894    -0.000004763135    -0.000000028041
      28        0.000016553446    -0.000002587558     0.000004256429
      29       -0.000003478444     0.000001598931     0.000005457284

  **** Optimization is complete! (in 8 steps) ****
    Final optimized geometry and variables:
    Molecular point group: c1

    Geometry (in Angstrom), charge = 0, multiplicity = 1:

    O            2.392068756013     1.360998606353     2.089307170231
    C            1.999830733514     0.266531519353     1.859529393271
    C            0.724691899122    -0.069279599795     1.127754144415
    O            2.607686834000    -0.836211491301     2.325187663410
    C           -0.093995128522     1.158403099651     0.736265230770
    H            1.006329604807    -0.663166133654     0.262707702384
    H            0.154853268765    -0.737504767735     1.768158224433
    C           -1.437957610826     0.822523776120     0.080903399646
    H            0.493381232225     1.784660806477     0.071572974060
    H           -0.272017941542     1.751910489447     1.626785110298
    C           -1.336427203401     0.144640571621    -1.288523849769
    H           -1.999035980037     1.747452859941    -0.030227391478
    H           -2.021806049319     0.194625197564     0.752247836872
    C           -2.699915983663    -0.070187336133    -1.948658004930
    H           -0.711971059996     0.751318099689    -1.942665399953
    H           -0.836797710350    -0.816941083953    -1.194441614976
    C           -2.611185370610    -0.752290734011    -3.315032028607
    H           -3.201250641080     0.889830149294    -2.059093842235
    H           -3.328666649553    -0.667329798511    -1.290089852162
    C           -3.976733651269    -0.958637222315    -3.969556052848
    H           -1.981779114611    -0.157728414012    -3.973836288600
    H           -2.114884838541    -1.714376836335    -3.205867807565
    H           -3.880873545197    -1.443731040413    -4.936043399789
    H           -4.484513172044    -0.010801447630    -4.124238526819
    H           -4.618567641865    -1.579025399495    -3.350359976507
    C            4.004896454716    -0.937824683108     2.125572705202
    H            4.226489672219    -1.009916577761     1.067106325403
    H            4.317998532876    -1.843799462559     2.620745139749
    H            4.519291204077    -0.087688759987     2.549426079570

  Mulliken Charges: (a.u.)
   Center  Symbol    Alpha    Beta     Spin     Total
       1     O     4.26972  4.26972  0.00000 -0.53944
       2     C     2.60555  2.60555  0.00000  0.78891
       3     C     3.21244  3.21244  0.00000 -0.42488
       4     O     4.31394  4.31394  0.00000 -0.62788
       5     C     3.15438  3.15438  0.00000 -0.30876
       6     H     0.40316  0.40316  0.00000  0.19369
       7     H     0.39883  0.39883  0.00000  0.20233
       8     C     3.15648  3.15648  0.00000 -0.31296
       9     H     0.41306  0.41306  0.00000  0.17388
      10     H     0.40876  0.40876  0.00000  0.18247
      11     C     3.15499  3.15499  0.00000 -0.30998
      12     H     0.41808  0.41808  0.00000  0.16384
      13     H     0.42339  0.42339  0.00000  0.15322
      14     C     3.15031  3.15031  0.00000 -0.30062
      15     H     0.42285  0.42285  0.00000  0.15431
      16     H     0.42410  0.42410  0.00000  0.15180
      17     C     3.15146  3.15146  0.00000 -0.30292
      18     H     0.42315  0.42315  0.00000  0.15370
      19     H     0.42374  0.42374  0.00000  0.15251
      20     C     3.23936  3.23936  0.00000 -0.47873
      21     H     0.42290  0.42290  0.00000  0.15419
      22     H     0.42363  0.42363  0.00000  0.15275
      23     H     0.41922  0.41922  0.00000  0.16156
      24     H     0.42143  0.42143  0.00000  0.15713
      25     H     0.42170  0.42170  0.00000  0.15659
      26     C     3.09517  3.09517  0.00000 -0.19033
      27     H     0.41938  0.41938  0.00000  0.16123
      28     H     0.40602  0.40602  0.00000  0.18796
      29     H     0.40278  0.40278  0.00000  0.19444

   Total alpha = 44.00000, Total beta = 44.00000, Total charge = -0.00000
