  ==> Input File <==

--------------------------------------------------------------------------
set {
	reference rhf
	basis 6-31G*
}

set_num_threads( 1 )
memory 2 gb

molecule MOL {
0 1

H	 1.136379	 0.211822	 1.465562
C	 1.135357	 0.094285	 0.374742
C	 0.065331	 0.871482	 -0.349150
O	 1.941633	 -0.601957	 -0.151457
C	 -1.173920	 0.017741	 -0.653885
H	 0.495414	 1.283444	 -1.254815
H	 -0.220657	 1.702205	 0.294488
C	 -0.905506	 -1.098331	 -1.664212
H	 -1.955569	 0.668551	 -1.032675
H	 -1.555936	 -0.408013	 0.271554
H	 -0.555955	 -0.691821	 -2.608188
H	 -1.808463	 -1.667278	 -1.859877
H	 -0.149982	 -1.791853	 -1.307000

	symmetry c1
}
set optking {
	frozen_dihedral = ("
		6 3 5 9
	")
}

ee = energy('scf')
oeprop('DIPOLE', 'QUADRUPOLE', 'MULLIKEN_CHARGES')
f=open( 'psi4out.xyz', 'w' )
f.write( "13  " )
f.write( str(ee) + "\n" )
f.write( MOL.save_string_xyz() )
f.close()
--------------------------------------------------------------------------

    Molecular point group: c1

    Geometry (in Angstrom), charge = 0, multiplicity = 1:

       Center              X                  Y                   Z               Mass
    ------------   -----------------  -----------------  -----------------  -----------------
           H          0.916269850117     0.374254636498     1.965312029271     1.007825032070
           C          0.915247850117     0.256717636498     0.874492029271    12.000000000000
           C         -0.154778149883     1.033914636498     0.150600029271    12.000000000000
           O          1.721523850117    -0.439524363502     0.348293029271    15.994914619560
           C         -1.394029149883     0.180173636498    -0.154134970729    12.000000000000
           H          0.275304850117     1.445876636498    -0.755064970729     1.007825032070
           H         -0.440766149883     1.864637636498     0.794238029271     1.007825032070
           C         -1.125615149883    -0.935898363502    -1.164461970729    12.000000000000
           H         -2.175678149883     0.830983636498    -0.532924970729     1.007825032070
           H         -1.776045149883    -0.245580363502     0.771304029271     1.007825032070
           H         -0.776064149883    -0.529388363502    -2.108437970729     1.007825032070
           H         -2.028572149883    -1.504845363502    -1.360126970729     1.007825032070
           H         -0.370091149883    -1.629420363502    -0.807249970729     1.007825032070

  Charge       = 0
  Multiplicity = 1
  Basis Set: 6-31G*
  Basis Set:

    Orbital Energies (a.u.)
    -----------------------

    Doubly Occupied:

       1A    -20.564192     2A    -11.327550     3A    -11.237443
       4A    -11.235541     5A    -11.212690     6A     -1.404454
       7A     -1.082637     8A     -0.971292     9A     -0.845834
      10A     -0.781873    11A     -0.676022    12A     -0.650883
      13A     -0.608264    14A     -0.593438    15A     -0.563465
      16A     -0.525119    17A     -0.503659    18A     -0.489883
      19A     -0.480219    20A     -0.408686

  @DF-RHF Final Energy:  -230.98278961066737

   => Energetics <=

    Nuclear Repulsion Energy =            175.7535361465344010
    One-Electron Energy =                -661.1463348370152744
    Two-Electron Energy =                 254.4100090798139036
    DFT Exchange-Correlation Energy =       0.0000000000000000
    Empirical Dispersion Energy =           0.0000000000000000
    PCM Polarization Energy =               0.0000000000000000
    EFP Energy =                            0.0000000000000000
    Total Energy =                       -230.9827896106669414

  Mulliken Charges: (a.u.)
   Center  Symbol    Alpha    Beta     Spin     Total
       1     H     0.42921  0.42921  0.00000  0.14158
       2     C     2.84190  2.84190  0.00000  0.31620
       3     C     3.20063  3.20063  0.00000 -0.40126
       4     O     4.23494  4.23494  0.00000 -0.46987
       5     C     3.16208  3.16208  0.00000 -0.32416
       6     H     0.40010  0.40010  0.00000  0.19981
       7     H     0.41520  0.41520  0.00000  0.16959
       8     C     3.24229  3.24229  0.00000 -0.48458
       9     H     0.41248  0.41248  0.00000  0.17503
      10     H     0.41802  0.41802  0.00000  0.16396
      11     H     0.41822  0.41822  0.00000  0.16357
      12     H     0.41894  0.41894  0.00000  0.16212
      13     H     0.40600  0.40600  0.00000  0.18800

   Total alpha = 20.00000, Total beta = 20.00000, Total charge =  0.00000
