                              Psi4 1.0.54 Driver

  ==> Input File <==

--------------------------------------------------------------------------
set {
	reference rhf
	basis cc-pvtz
}

set_num_threads( 4 )
memory 2 gb

molecule MOL {
0 1

O	 -1.883316	 -0.825978	 1.778942
C	 -1.628289	 0.120703	 1.115724
C	 -2.377736	 1.422662	 1.156764
O	 -0.637375	 0.157174	 0.243149
H	 -2.783502	 1.639489	 0.176937
H	 -3.172768	 1.359130	 1.881695
H	 -1.699157	 2.224995	 1.416303
C	 0.162530	 -1.009518	 0.097799
C	 1.587210	 -0.664190	 0.477086
H	 0.096803	 -1.356267	 -0.924704
H	 -0.233803	 -1.785900	 0.736810
C	 2.256770	 0.342732	 -0.454344
H	 2.154716	 -1.590834	 0.479041
H	 1.598751	 -0.289614	 1.496104
C	 3.698146	 0.643205	 -0.057145
H	 2.235038	 -0.042575	 -1.470299
H	 1.683491	 1.262594	 -0.461300
H	 4.150202	 1.356548	 -0.736242
H	 4.305463	 -0.255904	 -0.069842
H	 3.749130	 1.061068	 0.942759

	symmetry c1
}
set optking {
	frozen_dihedral = ("
		2 4 8 10
	")
}

ee,wfn = optimize('scf', return_wfn=True)
oeprop( wfn, 'DIPOLE', 'QUADRUPOLE', 'MULLIKEN_CHARGES')
f=open( 'psi4out.xyz', 'w' )
f.write( "20  " )
f.write( str(ee) + "\n" )
f.write( MOL.save_string_xyz() )
f.close()
--------------------------------------------------------------------------

    Molecular point group: c1
  Charge       = 0
  Multiplicity = 1
  Basis Set: CC-PVTZ
  Basis Set:
  @DF-RHF Final Energy:  -384.08450582399774
    Total Energy =                       -384.0845058239979153
    Molecular point group: c1
  Basis Set: CC-PVTZ
  Basis Set:
  Basis Set: CC-PVTZ
  Basis Set:
  @DF-RHF Final Energy:  -383.75557623687530
    Total Energy =                       -383.7555762368753562
  Basis Set: CC-PVTZ
  Basis Set:
  Basis Set: CC-PVTZ
  Basis Set:
  @DF-RHF Final Energy:  -383.93100431024931
    Total Energy =                       -383.9310043102493069
  Basis Set: CC-PVTZ
  Basis Set:
  Basis Set: CC-PVTZ
  Basis Set:
  @DF-RHF Final Energy:  -384.06018890846900
    Total Energy =                       -384.0601889084687173
  Basis Set: CC-PVTZ
  Basis Set:
  @DF-RHF Final Energy:  -384.08111777421021
    Total Energy =                       -384.0811177742098153
  @DF-RHF Final Energy:  -384.08481171321324
    Total Energy =                       -384.0848117132135258
  @DF-RHF Final Energy:  -384.08543303681398
    Total Energy =                       -384.0854330368140381
  Basis Set: CC-PVTZ
  Basis Set:
  @DF-RHF Final Energy:  -384.08520006980683
    Total Energy =                       -384.0852000698073425
  Basis Set: CC-PVTZ
  Basis Set:
  Basis Set: CC-PVTZ
  Basis Set:
  @DF-RHF Final Energy:  -384.08545267838707
    Total Energy =                       -384.0854526783866731
  Basis Set: CC-PVTZ
  Basis Set:
  Basis Set: CC-PVTZ
  Basis Set:
  @DF-RHF Final Energy:  -384.08545382770166
    Total Energy =                       -384.0854538277020538
  Basis Set: CC-PVTZ
  Basis Set:
  Charge       = 0
  Multiplicity = 1
  Basis Set: CC-PVTZ
  Basis Set:

    Orbital Energies (a.u.)
    -----------------------

    Doubly Occupied:

       1A    -20.593091     2A    -20.532232     3A    -11.368276
       4A    -11.278611     5A    -11.231201     6A    -11.222988
       7A    -11.218579     8A    -11.211385     9A     -1.468410
      10A     -1.365822    11A     -1.086235    12A     -1.029284
      13A     -0.981385    14A     -0.884985    15A     -0.818115
      16A     -0.763752    17A     -0.698325    18A     -0.687640
      19A     -0.663657    20A     -0.632459    21A     -0.599057
      22A     -0.595225    23A     -0.569759    24A     -0.565303
      25A     -0.541573    26A     -0.526063    27A     -0.519377
      28A     -0.491224    29A     -0.475587    30A     -0.466079
      31A     -0.446831    32A     -0.442604

  @DF-RHF Final Energy:  -384.08545440729569

   => Energetics <=

    Nuclear Repulsion Energy =            386.5911741118928262
    One-Electron Energy =               -1289.4030227722421387
    Two-Electron Energy =                 518.7263942530536269
    DFT Exchange-Correlation Energy =       0.0000000000000000
    Empirical Dispersion Energy =           0.0000000000000000
    PCM Polarization Energy =               0.0000000000000000
    EFP Energy =                            0.0000000000000000
    Total Energy =                       -384.0854544072957424
    Molecular point group: c1
  Basis Set: CC-PVTZ
  Basis Set:

  -Total Gradient:
     Atom            X                  Y                   Z
    ------   -----------------  -----------------  -----------------
       1        0.000055280943     0.000125338908     0.000008127836
       2       -0.000085521844    -0.000149352114    -0.000187147781
       3       -0.000003002904     0.000006738550    -0.000082436485
       4        0.000046313877    -0.000080106866     0.000249173332
       5        0.000009672092     0.000049709298     0.000020886093
       6       -0.000001494504    -0.000010969826     0.000010014574
       7        0.000001568819     0.000009703765     0.000035713910
       8        0.000174760637     0.000171064969    -0.000014254579
       9       -0.000005387842     0.000048598659     0.000001020151
      10       -0.000177932672    -0.000120045086    -0.000036679670
      11       -0.000004294997    -0.000010595289     0.000000683896
      12        0.000010396105    -0.000028706504     0.000013695468
      13        0.000005752316    -0.000002950599    -0.000008396975
      14       -0.000010433310    -0.000008481838     0.000013396013
      15       -0.000014295059    -0.000009392326    -0.000014825496
      16        0.000006336522     0.000007893062    -0.000017577357
      17       -0.000018357772    -0.000001453942     0.000006714181
      18        0.000004019768     0.000009111936     0.000000016420
      19        0.000007658161    -0.000007223216     0.000000394983
      20       -0.000001038342     0.000001118453     0.000001481486

  **** Optimization is complete! (in 11 steps) ****
    Final optimized geometry and variables:
    Molecular point group: c1

    Geometry (in Angstrom), charge = 0, multiplicity = 1:

    O           -2.179382301168    -1.263395207818     0.457527145554
    C           -1.830118158314    -0.134710568933     0.393793450796
    C           -2.554751510026     1.016493151515     1.033140113860
    O           -0.749646829249     0.279666022792    -0.246173094845
    H           -2.810565304436     1.750290795712     0.280069234099
    H           -3.445273048165     0.656502294552     1.522079939300
    H           -1.904470376944     1.497354053057     1.752789605211
    C            0.080454731956    -0.656650041844    -0.926140252411
    C            1.482226238268    -0.634997981446    -0.347699938483
    H            0.086614045479    -0.358590317644    -1.966683280429
    H           -0.354844591001    -1.638078600509    -0.848576871858
    C            2.203659937387     0.701201318506    -0.499076587016
    H            2.051111454816    -1.414311196371    -0.848296548131
    H            1.431918050037    -0.913624069199     0.700851294304
    C            3.611368376544     0.680237252983     0.086702136636
    H            2.255208384989     0.960715554598    -1.553267477224
    H            1.622404134341     1.480421626630    -0.019636145088
    H            4.101255839433     1.638798725113    -0.038300834166
    H            4.227204557807    -0.071386137221    -0.396126008478
    H            3.590026114149     0.456048490447     1.147970292049

  Mulliken Charges: (a.u.)
   Center  Symbol    Alpha    Beta     Spin     Total
       1     O     4.19825  4.19825  0.00000 -0.39651
       2     C     2.80149  2.80149  0.00000  0.39701
       3     C     3.14083  3.14083  0.00000 -0.28166
       4     O     4.15976  4.15976  0.00000 -0.31951
       5     H     0.44564  0.44564  0.00000  0.10873
       6     H     0.43788  0.43788  0.00000  0.12424
       7     H     0.44677  0.44677  0.00000  0.10647
       8     C     2.99987  2.99987  0.00000  0.00026
       9     C     3.09122  3.09122  0.00000 -0.18243
      10     H     0.45078  0.45078  0.00000  0.09845
      11     H     0.43182  0.43182  0.00000  0.13637
      12     C     3.08518  3.08518  0.00000 -0.17035
      13     H     0.45119  0.45119  0.00000  0.09761
      14     H     0.44950  0.44950  0.00000  0.10100
      15     C     3.14944  3.14944  0.00000 -0.29888
      16     H     0.45608  0.45608  0.00000  0.08784
      17     H     0.44710  0.44710  0.00000  0.10579
      18     H     0.44754  0.44754  0.00000  0.10493
      19     H     0.45541  0.45541  0.00000  0.08918
      20     H     0.45426  0.45426  0.00000  0.09147

   Total alpha = 32.00000, Total beta = 32.00000, Total charge = -0.00000

*** Psi4 exiting successfully. Buy a developer a beer!
