                              Psi4 1.0.54 Driver

  ==> Input File <==

--------------------------------------------------------------------------
set {
	reference rhf
	basis cc-pvtz
}

set_num_threads( 4 )
memory 2 gb

molecule MOL {
0 1

H	 1.166964	 -1.062386	 0.758429
O	 1.324748	 -0.612467	 -0.052206
C	 0.706474	 0.636793	 -0.025501
C	 -0.378782	 0.776054	 1.004285
H	 0.284354	 0.791220	 -1.011538
H	 1.438039	 1.428409	 0.125679
C	 -0.838154	 -0.186685	 1.772671
H	 -0.792843	 1.767340	 1.088863
H	 -0.463382	 -1.190220	 1.706065
H	 -1.617465	 -0.001493	 2.487121

	symmetry c1
}
set optking {
	frozen_dihedral = ("
		5 3 2 1
	")
}

ee,wfn = optimize('scf', return_wfn=True)
oeprop( wfn, 'DIPOLE', 'QUADRUPOLE', 'MULLIKEN_CHARGES')
f=open( 'psi4out.xyz', 'w' )
f.write( "10  " )
f.write( str(ee) + "\n" )
f.write( MOL.save_string_xyz() )
f.close()
--------------------------------------------------------------------------

    Molecular point group: c1
  Charge       = 0
  Multiplicity = 1
  Basis Set: CC-PVTZ
  Basis Set:
  @DF-RHF Final Energy:  -191.99523593134393
    Total Energy =                       -191.9952359313439842
    Molecular point group: c1
  Basis Set: CC-PVTZ
  Basis Set:
  Basis Set: CC-PVTZ
  Basis Set:
  @DF-RHF Final Energy:  -191.99251671655747
    Total Energy =                       -191.9925167165574464
  Basis Set: CC-PVTZ
  Basis Set:
  Basis Set: CC-PVTZ
  Basis Set:
  @DF-RHF Final Energy:  -191.99582518233126
    Total Energy =                       -191.9958251823311741
  Basis Set: CC-PVTZ
  Basis Set:
  Basis Set: CC-PVTZ
  Basis Set:
  @DF-RHF Final Energy:  -191.99589484286915
    Total Energy =                       -191.9958948428691201
  Basis Set: CC-PVTZ
  Basis Set:
  Basis Set: CC-PVTZ
  Basis Set:
  @DF-RHF Final Energy:  -191.99589812021003
    Total Energy =                       -191.9958981202099437
  Basis Set: CC-PVTZ
  Basis Set:
  Basis Set: CC-PVTZ
  Basis Set:
  @DF-RHF Final Energy:  -191.99589932621194
    Total Energy =                       -191.9958993262118554
  Basis Set: CC-PVTZ
  Basis Set:
  Charge       = 0
  Multiplicity = 1
  Basis Set: CC-PVTZ
  Basis Set:

    Orbital Energies (a.u.)
    -----------------------

    Doubly Occupied:

       1A    -20.551283     2A    -11.278588     3A    -11.239643
       4A    -11.225423     5A     -1.372876     6A     -1.068396
       7A     -0.937743     8A     -0.778029     9A     -0.692305
      10A     -0.660821    11A     -0.632782    12A     -0.573432
      13A     -0.556180    14A     -0.485019    15A     -0.458573
      16A     -0.375011

  @DF-RHF Final Energy:  -191.99589949078154

   => Energetics <=

    Nuclear Repulsion Energy =            119.5348676423596004
    One-Electron Energy =                -497.2893303530979097
    Two-Electron Energy =                 185.7585632199567556
    DFT Exchange-Correlation Energy =       0.0000000000000000
    Empirical Dispersion Energy =           0.0000000000000000
    PCM Polarization Energy =               0.0000000000000000
    EFP Energy =                            0.0000000000000000
    Total Energy =                       -191.9958994907815679
    Molecular point group: c1
  Basis Set: CC-PVTZ
  Basis Set:

  -Total Gradient:
     Atom            X                  Y                   Z
    ------   -----------------  -----------------  -----------------
       1       -0.002521559375    -0.001705382952    -0.001494928826
       2        0.002585992217     0.001694786153     0.002026310418
       3        0.002153020711     0.001703231286    -0.001212806264
       4        0.000009310797     0.000016907709     0.000009922579
       5       -0.002218973262    -0.001700829658     0.000675109734
       6       -0.000007451793     0.000006191281     0.000002047502
       7        0.000005328749     0.000012813612    -0.000007528460
       8        0.000001250438    -0.000007214234    -0.000005027755
       9       -0.000010236508    -0.000005827050     0.000007203780
      10        0.000003318028    -0.000014676146    -0.000000302710

  **** Optimization is complete! (in 7 steps) ****
    Final optimized geometry and variables:
    Molecular point group: c1

    Geometry (in Angstrom), charge = 0, multiplicity = 1:

    H            1.142266970879    -1.020351796629     0.047986749030
    O            1.218297232417    -0.467505361208    -0.706758563302
    C            0.394120022570     0.650288171755    -0.576319566770
    C           -0.724075833045     0.513549579385     0.418375668678
    H           -0.053225036087     0.843010099060    -1.546484804133
    H            0.988773838246     1.520514887835    -0.312783840325
    C           -1.141857527838    -0.594679509662     0.989936747148
    H           -1.221285269497     1.439836235091     0.652036103424
    H           -0.710650083633    -1.556792550172     0.781498874280
    H           -1.956512321222    -0.583437207718     1.688121879610

  Mulliken Charges: (a.u.)
   Center  Symbol    Alpha    Beta     Spin     Total
       1     H     0.38961  0.38961  0.00000  0.22079
       2     O     4.20258  4.20258  0.00000 -0.40515
       3     C     2.93532  2.93532  0.00000  0.12937
       4     C     3.07906  3.07906  0.00000 -0.15811
       5     H     0.46238  0.46238  0.00000  0.07523
       6     H     0.47106  0.47106  0.00000  0.05787
       7     C     3.17673  3.17673  0.00000 -0.35346
       8     H     0.42206  0.42206  0.00000  0.15588
       9     H     0.43489  0.43489  0.00000  0.13023
      10     H     0.42632  0.42632  0.00000  0.14736

   Total alpha = 16.00000, Total beta = 16.00000, Total charge =  0.00000

*** Psi4 exiting successfully. Buy a developer a beer!
