  ==> Input File <==

--------------------------------------------------------------------------
set {
	reference rhf
	basis cc-pvtz
}

set_num_threads( 4 )
memory 2 gb

molecule MOL {
0 1

H	 0.757804	 0.187144	 2.364397
C	 -0.205767	 0.206113	 1.876667
O	 -0.000000	 0.000000	 0.518769
H	 -0.831726	 -0.572550	 2.307614
H	 -0.675625	 1.168861	 2.066943
C	 -1.165153	 0.000000	 -0.236961
H	 -1.229451	 0.882440	 -0.870223
H	 -2.002557	 0.000000	 0.445289
H	 -1.229451	 -0.882440	 -0.870223

	symmetry c1
}
set optking {
	frozen_dihedral = ("
		2 3 6 7
	")
}

ee = optimize('scf')
oeprop('DIPOLE', 'QUADRUPOLE', 'MULLIKEN_CHARGES')
f=open( 'psi4out.xyz', 'w' )
f.write( "9  " )
f.write( str(ee) + "\n" )
f.write( MOL.save_string_xyz() )
f.close()
--------------------------------------------------------------------------

    Molecular point group: c1
  Charge       = 0
  Multiplicity = 1
  Basis Set: CC-PVTZ
  Basis Set:
  @DF-RHF Final Energy:  -154.12256937330261
    Total Energy =                       -154.1225693733025253
    Molecular point group: c1
  Basis Set: CC-PVTZ
  Basis Set:
  Basis Set: CC-PVTZ
  Basis Set:
  @DF-RHF Final Energy:  -154.12346284901753
    Total Energy =                       -154.1234628490175282
  Basis Set: CC-PVTZ
  Basis Set:
  Basis Set: CC-PVTZ
  Basis Set:
  @DF-RHF Final Energy:  -154.12372616132501
    Total Energy =                       -154.1237261613250666
  Basis Set: CC-PVTZ
  Basis Set:
  Charge       = 0
  Multiplicity = 1
  Basis Set: CC-PVTZ
  Basis Set:

    Orbital Energies (a.u.)
    -----------------------

    Doubly Occupied:

       1A    -20.546850     2A    -11.263566     3A    -11.262634
       4A     -1.378021     5A     -0.975892     6A     -0.872507
       7A     -0.659107     8A     -0.654926     9A     -0.644890
      10A     -0.558212    11A     -0.528201    12A     -0.475549
      13A     -0.414925

  @DF-RHF Final Energy:  -154.12372836891944

   => Energetics <=

    Nuclear Repulsion Energy =             84.5915099094356577
    One-Electron Energy =                -376.9599158636576703
    Two-Electron Energy =                 138.2446775853025258
    DFT Exchange-Correlation Energy =       0.0000000000000000
    Empirical Dispersion Energy =           0.0000000000000000
    PCM Polarization Energy =               0.0000000000000000
    EFP Energy =                            0.0000000000000000
    Total Energy =                       -154.1237283689194726
    Molecular point group: c1
  Basis Set: CC-PVTZ
  Basis Set:

  -Total Gradient:
     Atom            X                  Y                   Z
    ------   -----------------  -----------------  -----------------
       1        0.000009196753    -0.000002207621    -0.000004382534
       2       -0.000123032460    -0.001230208806     0.000240835669
       3        0.000292739363     0.001659242684    -0.000716514408
       4       -0.000004334272    -0.000003419218    -0.000042554465
       5        0.000002176029    -0.000023227308    -0.000024705730
       6       -0.000977779651     0.000379073199     0.001709791045
       7        0.000842155164    -0.000792825393    -0.001123394182
       8       -0.000051374070     0.000006635428    -0.000007000975
       9        0.000010253145     0.000006937035    -0.000032074419

  **** Optimization is complete! (in 4 steps) ****
    Final optimized geometry and variables:
    Molecular point group: c1

    Geometry (in Angstrom), charge = 0, multiplicity = 1:

    H            1.261966568609     0.107991057873     1.620743054642
    C            0.286204793938     0.139831340378     1.157610376127
    O            0.459023826611    -0.074759359037    -0.204379076931
    H           -0.337922323315    -0.628774699074     1.607371630194
    H           -0.162000982162     1.110156047852     1.360118549780
    C           -0.705859530248    -0.070660042032    -0.970822811038
    H           -0.739815095103     0.811947661373    -1.601265425942
    H           -1.599456883867    -0.094472513421    -0.355542285145
    H           -0.711055466316    -0.943973074392    -1.611828796149

  Mulliken Charges: (a.u.)
   Center  Symbol    Alpha    Beta     Spin     Total
       1     H     0.44977  0.44977  0.00000  0.10045
       2     C     3.02085  3.02085  0.00000 -0.04169
       3     O     4.17248  4.17248  0.00000 -0.34496
       4     H     0.47284  0.47284  0.00000  0.05433
       5     H     0.47329  0.47329  0.00000  0.05341
       6     C     3.01671  3.01671  0.00000 -0.03341
       7     H     0.46236  0.46236  0.00000  0.07528
       8     H     0.47457  0.47457  0.00000  0.05087
       9     H     0.45714  0.45714  0.00000  0.08573

   Total alpha = 13.00000, Total beta = 13.00000, Total charge = -0.00000
