  ==> Input File <==

--------------------------------------------------------------------------
set {
	reference rhf
	basis 6-31G*
}

set_num_threads( 1 )
memory 2 gb

molecule MOL {
0 1

H	 2.675422	 1.701134	 0.621261
O	 3.411778	 1.387409	 0.116852
C	 3.575608	 0.007732	 0.325915
C	 2.506315	 -0.835347	 -0.360055
H	 4.549386	 -0.237570	 -0.078138
H	 3.602457	 -0.215617	 1.391829
C	 1.090976	 -0.599394	 0.172872
H	 2.534259	 -0.626792	 -1.426399
H	 2.769663	 -1.884326	 -0.234921
C	 0.048968	 -1.498943	 -0.497836
H	 0.821777	 0.442345	 0.022282
H	 1.075142	 -0.775163	 1.248602
C	 -1.372835	 -1.363565	 0.059380
H	 0.037028	 -1.297038	 -1.567387
H	 0.364239	 -2.534522	 -0.388837
C	 -2.037799	 -0.007733	 -0.193645
H	 -1.989992	 -2.140889	 -0.386379
H	 -1.360175	 -1.565062	 1.129462
C	 -3.489788	 0.042957	 0.286558
H	 -2.004885	 0.214982	 -1.259208
H	 -1.476978	 0.782158	 0.300172
C	 -4.216917	 1.317354	 -0.141063
H	 -4.025645	 -0.823308	 -0.095450
H	 -3.513059	 -0.038752	 1.371301
H	 -4.239342	 1.411634	 -1.223113
H	 -5.243387	 1.322503	 0.212445
H	 -3.726170	 2.201406	 0.256408

	symmetry c1
}
set optking {
	frozen_dihedral = ("
		14 10 7 4,
		14 10 13 16,
		10 7 4 8,
		8 4 3 2,
		10 13 16 20,
		4 3 2 1
	")
}

ee = energy('scf')
oeprop('DIPOLE', 'QUADRUPOLE', 'MULLIKEN_CHARGES')
f=open( 'psi4out.xyz', 'w' )
f.write( "27  " )
f.write( str(ee) + "\n" )
f.write( MOL.save_string_xyz() )
f.close()
--------------------------------------------------------------------------

    Molecular point group: c1

    Geometry (in Angstrom), charge = 0, multiplicity = 1:

       Center              X                  Y                   Z               Mass
    ------------   -----------------  -----------------  -----------------  -----------------
           H          2.686152541792     1.832892157486     0.639798181031     1.007825032070
           O          3.422508541792     1.519167157486     0.135389181031    15.994914619560
           C          3.586338541792     0.139490157486     0.344452181031    12.000000000000
           C          2.517045541792    -0.703588842514    -0.341517818969    12.000000000000
           H          4.560116541792    -0.105811842514    -0.059600818969     1.007825032070
           H          3.613187541792    -0.083858842514     1.410366181031     1.007825032070
           C          1.101706541792    -0.467635842514     0.191409181031    12.000000000000
           H          2.544989541792    -0.495033842514    -1.407861818969     1.007825032070
           H          2.780393541792    -1.752567842514    -0.216383818969     1.007825032070
           C          0.059698541792    -1.367184842514    -0.479298818969    12.000000000000
           H          0.832507541792     0.574103157486     0.040819181031     1.007825032070
           H          1.085872541792    -0.643404842514     1.267139181031     1.007825032070
           C         -1.362104458208    -1.231806842514     0.077917181031    12.000000000000
           H          0.047758541792    -1.165279842514    -1.548849818969     1.007825032070
           H          0.374969541792    -2.402763842514    -0.370299818969     1.007825032070
           C         -2.027068458208     0.124025157486    -0.175107818969    12.000000000000
           H         -1.979261458208    -2.009130842514    -0.367841818969     1.007825032070
           H         -1.349444458208    -1.433303842514     1.147999181031     1.007825032070
           C         -3.479057458208     0.174715157486     0.305095181031    12.000000000000
           H         -1.994154458208     0.346740157486    -1.240670818969     1.007825032070
           H         -1.466247458208     0.913916157486     0.318709181031     1.007825032070
           C         -4.206186458208     1.449112157486    -0.122525818969    12.000000000000
           H         -4.014914458208    -0.691549842514    -0.076912818969     1.007825032070
           H         -3.502328458208     0.093006157486     1.389838181031     1.007825032070
           H         -4.228611458208     1.543392157486    -1.204575818969     1.007825032070
           H         -5.232656458208     1.454261157486     0.230982181031     1.007825032070
           H         -3.715439458208     2.333164157486     0.274945181031     1.007825032070

  Charge       = 0
  Multiplicity = 1
  Basis Set: 6-31G*
  Basis Set:

    Orbital Energies (a.u.)
    -----------------------

    Doubly Occupied:

       1A    -20.552308     2A    -11.267066     3A    -11.219832
       4A    -11.217322     5A    -11.216063     6A    -11.215746
       7A    -11.215231     8A    -11.214316     9A    -11.209402
      10A     -1.359053    11A     -1.095268    12A     -1.061585
      13A     -1.011552    14A     -0.948503    15A     -0.888142
      16A     -0.820013    17A     -0.801577    18A     -0.778287
      19A     -0.693707    20A     -0.651833    21A     -0.638834
      22A     -0.614627    23A     -0.599164    24A     -0.583268
      25A     -0.580251    26A     -0.553255    27A     -0.541225
      28A     -0.531026    29A     -0.506392    30A     -0.493214
      31A     -0.484831    32A     -0.475016    33A     -0.468766
      34A     -0.460893    35A     -0.452357    36A     -0.441814
      37A     -0.422889

  @DF-RHF Final Energy:  -388.28147335898626

   => Energetics <=

    Nuclear Repulsion Energy =            459.6087370876576301
    One-Electron Energy =               -1437.2111601214651273
    Two-Electron Energy =                 589.3209496748230549
    DFT Exchange-Correlation Energy =       0.0000000000000000
    Empirical Dispersion Energy =           0.0000000000000000
    PCM Polarization Energy =               0.0000000000000000
    EFP Energy =                            0.0000000000000000
    Total Energy =                       -388.2814733589844991

  Mulliken Charges: (a.u.)
   Center  Symbol    Alpha    Beta     Spin     Total
       1     H     0.27991  0.27991  0.00000  0.44018
       2     O     4.37094  4.37094  0.00000 -0.74188
       3     C     2.99736  2.99736  0.00000  0.00528
       4     C     3.16095  3.16095  0.00000 -0.32190
       5     H     0.41443  0.41443  0.00000  0.17113
       6     H     0.43205  0.43205  0.00000  0.13590
       7     C     3.16332  3.16332  0.00000 -0.32663
       8     H     0.41495  0.41495  0.00000  0.17009
       9     H     0.42432  0.42432  0.00000  0.15135
      10     C     3.15207  3.15207  0.00000 -0.30413
      11     H     0.42289  0.42289  0.00000  0.15423
      12     H     0.42545  0.42545  0.00000  0.14910
      13     C     3.15360  3.15360  0.00000 -0.30720
      14     H     0.42159  0.42159  0.00000  0.15682
      15     H     0.42150  0.42150  0.00000  0.15701
      16     C     3.15252  3.15252  0.00000 -0.30505
      17     H     0.42115  0.42115  0.00000  0.15770
      18     H     0.42432  0.42432  0.00000  0.15137
      19     C     3.15130  3.15130  0.00000 -0.30261
      20     H     0.42375  0.42375  0.00000  0.15251
      21     H     0.42351  0.42351  0.00000  0.15297
      22     C     3.23918  3.23918  0.00000 -0.47836
      23     H     0.42303  0.42303  0.00000  0.15393
      24     H     0.42303  0.42303  0.00000  0.15394
      25     H     0.42139  0.42139  0.00000  0.15723
      26     H     0.41928  0.41928  0.00000  0.16145
      27     H     0.42221  0.42221  0.00000  0.15557

   Total alpha = 37.00000, Total beta = 37.00000, Total charge = -0.00000
