  ==> Input File <==

--------------------------------------------------------------------------
set {
	reference rhf
	basis 6-31G*
}

set_num_threads( 1 )
memory 2 gb

molecule MOL {
0 1

O	 0.625848	 1.349995	 -0.000749
C	 0.486307	 0.169203	 0.000779
C	 1.608116	 -0.841643	 0.000302
O	 -0.698257	 -0.426125	 0.001050
C	 2.990107	 -0.200498	 -0.000684
H	 1.468623	 -1.481519	 -0.865924
H	 1.469683	 -1.481289	 0.866878
H	 3.129736	 0.423364	 -0.875135
H	 3.757882	 -0.966877	 -0.001197
H	 3.130964	 0.423383	 0.873533
C	 -1.285669	 -0.721708	 1.263974
C	 -2.618549	 -1.389353	 0.999413
H	 -1.402695	 0.197228	 1.822048
H	 -0.619145	 -1.366221	 1.820696
H	 -3.272497	 -0.733204	 0.436405
H	 -3.102835	 -1.632814	 1.939541
H	 -2.484766	 -2.305269	 0.435093

	symmetry c1
}
set optking {
	frozen_dihedral = ("
		2 4 11 13,
		4 2 3 6
	")
}

ee = energy('scf')
oeprop('DIPOLE', 'QUADRUPOLE', 'MULLIKEN_CHARGES')
f=open( 'psi4out.xyz', 'w' )
f.write( "17  " )
f.write( str(ee) + "\n" )
f.write( MOL.save_string_xyz() )
f.close()
--------------------------------------------------------------------------

    Molecular point group: c1

    Geometry (in Angstrom), charge = 0, multiplicity = 1:

       Center              X                  Y                   Z               Mass
    ------------   -----------------  -----------------  -----------------  -----------------
           O          0.477939321374     1.644149733066    -0.330652797899    15.994914619560
           C          0.338398321374     0.463357733066    -0.329124797899    12.000000000000
           C          1.460207321374    -0.547488266934    -0.329601797899    12.000000000000
           O         -0.846165678626    -0.131970266934    -0.328853797899    15.994914619560
           C          2.842198321374     0.093656733066    -0.330587797899    12.000000000000
           H          1.320714321374    -1.187364266934    -1.195827797899     1.007825032070
           H          1.321774321374    -1.187134266934     0.536974202101     1.007825032070
           H          2.981827321374     0.717518733066    -1.205038797899     1.007825032070
           H          3.609973321374    -0.672722266934    -0.331100797899     1.007825032070
           H          2.983055321374     0.717537733066     0.543629202101     1.007825032070
           C         -1.433577678626    -0.427553266934     0.934070202101    12.000000000000
           C         -2.766457678626    -1.095198266934     0.669509202101    12.000000000000
           H         -1.550603678626     0.491382733066     1.492144202101     1.007825032070
           H         -0.767053678626    -1.072066266934     1.490792202101     1.007825032070
           H         -3.420405678626    -0.439049266934     0.106501202101     1.007825032070
           H         -3.250743678626    -1.338659266934     1.609637202101     1.007825032070
           H         -2.632674678626    -2.011114266934     0.105189202101     1.007825032070

  Charge       = 0
  Multiplicity = 1
  Basis Set: 6-31G*
  Basis Set:

    Orbital Energies (a.u.)
    -----------------------

    Doubly Occupied:

       1A    -20.584188     2A    -20.553691     3A    -11.372348
       4A    -11.299255     5A    -11.238723     6A    -11.227541
       7A    -11.216296     8A     -1.462108     9A     -1.366183
      10A     -1.065906    11A     -1.039607    12A     -0.904650
      13A     -0.868443    14A     -0.773444    15A     -0.699931
      16A     -0.686400    17A     -0.658527    18A     -0.635509
      19A     -0.604051    20A     -0.564759    21A     -0.556518
      22A     -0.532450    23A     -0.526828    24A     -0.519481
      25A     -0.506239    26A     -0.484563    27A     -0.452767
      28A     -0.433271

  @DF-RHF Final Energy:  -344.89100107813528

   => Energetics <=

    Nuclear Repulsion Energy =            315.5964598793702294
    One-Electron Energy =               -1095.3075005917432918
    Two-Electron Energy =                 434.8200396342389240
    DFT Exchange-Correlation Energy =       0.0000000000000000
    Empirical Dispersion Energy =           0.0000000000000000
    PCM Polarization Energy =               0.0000000000000000
    EFP Energy =                            0.0000000000000000
    Total Energy =                       -344.8910010781340816

  Mulliken Charges: (a.u.)
   Center  Symbol    Alpha    Beta     Spin     Total
       1     O     4.25941  4.25941  0.00000 -0.51882
       2     C     2.61433  2.61433  0.00000  0.77133
       3     C     3.20973  3.20973  0.00000 -0.41945
       4     O     4.31614  4.31614  0.00000 -0.63228
       5     C     3.23937  3.23937  0.00000 -0.47873
       6     H     0.39892  0.39892  0.00000  0.20215
       7     H     0.40794  0.40794  0.00000  0.18413
       8     H     0.40862  0.40862  0.00000  0.18276
       9     H     0.41910  0.41910  0.00000  0.16180
      10     H     0.41130  0.41130  0.00000  0.17741
      11     C     3.00419  3.00419  0.00000 -0.00838
      12     C     3.24688  3.24688  0.00000 -0.49375
      13     H     0.40886  0.40886  0.00000  0.18229
      14     H     0.42247  0.42247  0.00000  0.15507
      15     H     0.40538  0.40538  0.00000  0.18924
      16     H     0.41701  0.41701  0.00000  0.16597
      17     H     0.41036  0.41036  0.00000  0.17927

   Total alpha = 28.00000, Total beta = 28.00000, Total charge =  0.00000
