  ==> Input File <==

--------------------------------------------------------------------------
set {
	reference rhf
	basis 6-31G*
}

set_num_threads( 4 )
memory 2 gb

molecule MOL {
0 1

H	 3.083879	 -1.346558	 0.395444
O	 2.172668	 -1.603300	 0.415122
C	 1.365383	 -0.540424	 0.207814
C	 1.860358	 0.740366	 -0.001662
C	 -0.000652	 -0.762636	 0.208979
H	 2.923783	 0.911136	 -0.002183
C	 0.989896	 1.797112	 -0.209638
H	 -0.384298	 -1.751448	 0.370661
C	 -0.865228	 0.300799	 0.000000
H	 1.384723	 2.783807	 -0.370644
C	 -0.376775	 1.584170	 -0.210105
C	 -2.333960	 0.069074	 0.000000
H	 -1.054717	 2.403541	 -0.371447
O	 -2.847347	 -1.003763	 0.000000
H	 -2.943845	 0.977528	 0.000000

	symmetry c1
}
set optking {
	frozen_dihedral = ("
		11 9 12 14
	")
}

ee = optimize('scf')
oeprop('DIPOLE', 'QUADRUPOLE', 'MULLIKEN_CHARGES')
f=open( 'psi4out.xyz', 'w' )
f.write( "15  " )
f.write( str(ee) + "\n" )
f.write( MOL.save_string_xyz() )
f.close()
--------------------------------------------------------------------------

    Molecular point group: c1
  Charge       = 0
  Multiplicity = 1
  Basis Set: 6-31G*
  Basis Set:
  @DF-RHF Final Energy:  -418.28583341172259
    Total Energy =                       -418.2858334117221375
    Molecular point group: c1
  Basis Set: 6-31G*
  Basis Set:
  Basis Set: 6-31G*
  Basis Set:
  @DF-RHF Final Energy:  -418.28536785507333
    Total Energy =                       -418.2853678550736731
  Basis Set: 6-31G*
  Basis Set:
  Basis Set: 6-31G*
  Basis Set:
  @DF-RHF Final Energy:  -418.28587053362963
    Total Energy =                       -418.2858705336300318
  Basis Set: 6-31G*
  Basis Set:
  Basis Set: 6-31G*
  Basis Set:
  @DF-RHF Final Energy:  -418.28588840847164
    Total Energy =                       -418.2858884084714646
  Basis Set: 6-31G*
  Basis Set:
  Charge       = 0
  Multiplicity = 1
  Basis Set: 6-31G*
  Basis Set:

    Orbital Energies (a.u.)
    -----------------------

    Doubly Occupied:

       1A    -20.601712     2A    -20.564585     3A    -11.332489
       4A    -11.312855     5A    -11.253253     6A    -11.251925
       7A    -11.249848     8A    -11.246117     9A    -11.239505
      10A     -1.421441    11A     -1.405083    12A     -1.169579
      13A     -1.048697    14A     -1.027108    15A     -0.900076
      16A     -0.845762    17A     -0.813467    18A     -0.735945
      19A     -0.702162    20A     -0.685613    21A     -0.639756
      22A     -0.635864    23A     -0.611358    24A     -0.601571
      25A     -0.574674    26A     -0.549941    27A     -0.542758
      28A     -0.513239    29A     -0.486353    30A     -0.423552
      31A     -0.353527    32A     -0.325772

  @DF-RHF Final Energy:  -418.28588854653378

   => Energetics <=

    Nuclear Repulsion Energy =            403.1599476038624061
    One-Electron Energy =               -1368.7605026538249149
    Two-Electron Energy =                 547.3146665034282705
    DFT Exchange-Correlation Energy =       0.0000000000000000
    Empirical Dispersion Energy =           0.0000000000000000
    PCM Polarization Energy =               0.0000000000000000
    EFP Energy =                            0.0000000000000000
    Total Energy =                       -418.2858885465342382
    Molecular point group: c1
  Basis Set: 6-31G*
  Basis Set:

  -Total Gradient:
     Atom            X                  Y                   Z
    ------   -----------------  -----------------  -----------------
       1       -0.000000243733     0.000003002611     0.000014791691
       2       -0.000002540970     0.000000474611    -0.000002186696
       3        0.000010108294    -0.000003102874    -0.000044710239
       4       -0.000000259998     0.000001762156     0.000059220774
       5       -0.000009011570     0.000000445378    -0.000014317190
       6       -0.000000603265    -0.000000320243    -0.000006037941
       7       -0.000006898329    -0.000007901859    -0.000046263847
       8       -0.000000239959     0.000002120941     0.000010767494
       9       -0.000080719371     0.000372908857     0.001294391809
      10        0.000000583585     0.000001863148     0.000008039232
      11        0.000063139463    -0.000263110349    -0.001449294481
      12       -0.000009551448    -0.000088341153     0.001995919697
      13       -0.000000427987    -0.000000219248     0.000004230869
      14        0.000032242202    -0.000022656991    -0.001828283412
      15        0.000004423086     0.000003075016     0.000003732241

  **** Optimization is complete! (in 5 steps) ****
    Final optimized geometry and variables:
    Molecular point group: c1

    Geometry (in Angstrom), charge = 0, multiplicity = 1:

    H            3.084528877857    -1.353098383828     0.330340728039
    O            2.173097547367    -1.608340587583     0.357714789740
    C            1.365835076043    -0.545076532907     0.152143777971
    C            1.860978061295     0.734918414309    -0.061867568101
    C           -0.000293152096    -0.766578194611     0.157712480087
    H            2.924569476632     0.904678230644    -0.068322177474
    C            0.990298169673     1.791904154481    -0.267663891038
    H           -0.383549719262    -1.756385872135     0.314195932650
    C           -0.865194304637     0.298681870419    -0.040212904901
    H            1.385165002330     2.777393890314    -0.435444816029
    C           -0.376657132866     1.581130142668    -0.255719518960
    C           -2.333495019788     0.064037376387    -0.057738430240
    H           -1.054687881634     2.401418523076    -0.412006056448
    O           -2.844041869308    -1.010199751831    -0.054621203864
    H           -2.945546083484     0.970252050982    -0.093711249395

  Mulliken Charges: (a.u.)
   Center  Symbol    Alpha    Beta     Spin     Total
       1     H     0.27063  0.27063  0.00000  0.45873
       2     O     4.37597  4.37597  0.00000 -0.75195
       3     C     2.79461  2.79461  0.00000  0.41078
       4     C     3.13455  3.13455  0.00000 -0.26911
       5     C     3.11358  3.11358  0.00000 -0.22716
       6     H     0.39901  0.39901  0.00000  0.20199
       7     C     3.09479  3.09479  0.00000 -0.18959
       8     H     0.37060  0.37060  0.00000  0.25881
       9     C     3.04494  3.04494  0.00000 -0.08989
      10     H     0.39302  0.39302  0.00000  0.21397
      11     C     3.11549  3.11549  0.00000 -0.23098
      12     C     2.83351  2.83351  0.00000  0.33298
      13     H     0.39334  0.39334  0.00000  0.21332
      14     O     4.24400  4.24400  0.00000 -0.48800
      15     H     0.42195  0.42195  0.00000  0.15610

   Total alpha = 32.00000, Total beta = 32.00000, Total charge = -0.00000
