  ==> Input File <==

--------------------------------------------------------------------------
set {
	reference rhf
	basis cc-pvtz
}

set_num_threads( 4 )
memory 2 gb

molecule MOL {
0 1

H	 2.342730	 0.877684	 -1.045694
C	 2.360424	 0.000000	 -0.411793
C	 1.173749	 0.000000	 0.526870
H	 3.286567	 0.000000	 0.151574
H	 2.342730	 -0.877684	 -1.045694
O	 -0.000000	 0.000000	 -0.223739
H	 1.203779	 0.876757	 1.172538
H	 1.203779	 -0.876757	 1.172538
C	 -1.173749	 0.000000	 0.526870
C	 -2.351035	 0.222578	 -0.397112
H	 -1.133728	 0.783932	 1.282078
H	 -1.280760	 -0.948214	 1.052161
H	 -2.256304	 1.171199	 -0.910548
H	 -3.277018	 0.226367	 0.166505
H	 -2.403491	 -0.562778	 -1.140709

	symmetry c1
}
set optking {
	frozen_dihedral = ("
		11 9 6 3
	")
}

ee = optimize('scf')
oeprop('DIPOLE', 'QUADRUPOLE', 'MULLIKEN_CHARGES')
f=open( 'psi4out.xyz', 'w' )
f.write( "15  " )
f.write( str(ee) + "\n" )
f.write( MOL.save_string_xyz() )
f.close()
--------------------------------------------------------------------------

    Molecular point group: c1
  Charge       = 0
  Multiplicity = 1
  Basis Set: CC-PVTZ
  Basis Set:
  @DF-RHF Final Energy:  -232.23345984333096
    Total Energy =                       -232.2334598433308770
    Molecular point group: c1
  Basis Set: CC-PVTZ
  Basis Set:
  Basis Set: CC-PVTZ
  Basis Set:
  @DF-RHF Final Energy:  -232.23347095931948
    Total Energy =                       -232.2334709593195043
  Basis Set: CC-PVTZ
  Basis Set:
  Charge       = 0
  Multiplicity = 1
  Basis Set: CC-PVTZ
  Basis Set:

    Orbital Energies (a.u.)
    -----------------------

    Doubly Occupied:

       1A    -20.545406     2A    -11.266239     3A    -11.266154
       4A    -11.207407     5A    -11.207274     6A     -1.381428
       7A     -1.045126     8A     -0.983484     9A     -0.846987
      10A     -0.826815    11A     -0.679660    12A     -0.669314
      13A     -0.608586    14A     -0.598569    15A     -0.549865
      16A     -0.531741    17A     -0.523111    18A     -0.494075
      19A     -0.487342    20A     -0.466944    21A     -0.413697

  @DF-RHF Final Energy:  -232.23347290049765

   => Energetics <=

    Nuclear Repulsion Energy =            191.3036347197228224
    One-Electron Energy =                -693.8757681554073997
    Two-Electron Energy =                 270.3386605351870458
    DFT Exchange-Correlation Energy =       0.0000000000000000
    Empirical Dispersion Energy =           0.0000000000000000
    PCM Polarization Energy =               0.0000000000000000
    EFP Energy =                            0.0000000000000000
    Total Energy =                       -232.2334729004975316
    Molecular point group: c1
  Basis Set: CC-PVTZ
  Basis Set:

  -Total Gradient:
     Atom            X                  Y                   Z
    ------   -----------------  -----------------  -----------------
       1       -0.000001863054     0.000002446991    -0.000000797496
       2       -0.000026750745    -0.000011157805    -0.000014523906
       3        0.000028640415     0.001045425305     0.000050184367
       4       -0.000004001041    -0.000005884482     0.000008509588
       5        0.000006209705    -0.000003729704    -0.000008154983
       6        0.000162426976    -0.001624709287     0.000170762021
       7       -0.000008758246    -0.000006834941    -0.000005545326
       8       -0.000000380035    -0.000007273508    -0.000004054896
       9       -0.000680409201     0.001431855020    -0.000973725636
      10       -0.000013239393    -0.000004306608    -0.000042602888
      11        0.000519832076    -0.000859104547     0.000773270660
      12        0.000002612565     0.000023150639     0.000034783815
      13        0.000007291124     0.000023726634    -0.000014591496
      14        0.000013460179    -0.000008902495     0.000016607514
      15       -0.000005071325     0.000005298789     0.000009878661

  **** Optimization is complete! (in 3 steps) ****
    Final optimized geometry and variables:
    Molecular point group: c1

    Geometry (in Angstrom), charge = 0, multiplicity = 1:

    H            2.345085270496     0.821751800247    -1.052669228212
    C            2.359073029304    -0.053117408456    -0.414647195355
    C            1.172581926174    -0.043148824634     0.524219324355
    H            3.285328373265    -0.054550150272     0.148757400406
    H            2.337607948346    -0.933655909820    -1.044553890004
    O           -0.001055440806    -0.036604520366    -0.226216332582
    H            1.207677534753     0.834928965651     1.167550850515
    H            1.198386659536    -0.918636977151     1.172270712519
    C           -1.176121959839    -0.043568338461     0.522645383066
    C           -2.354847618360     0.174159222142    -0.400232548735
    H           -1.138660947369     0.732995048079     1.285202081357
    H           -1.277156184582    -0.994410089504     1.045115070438
    H           -2.273130762917     1.129962115841    -0.902677842730
    H           -3.281671554881     0.157153935207     0.161962023835
    H           -2.394876394990    -0.603296171044    -1.152945034465

  Mulliken Charges: (a.u.)
   Center  Symbol    Alpha    Beta     Spin     Total
       1     H     0.45160  0.45160  0.00000  0.09680
       2     C     3.13496  3.13496  0.00000 -0.26992
       3     C     2.96698  2.96698  0.00000  0.06604
       4     H     0.45890  0.45890  0.00000  0.08220
       5     H     0.45154  0.45154  0.00000  0.09692
       6     O     4.17894  4.17894  0.00000 -0.35787
       7     H     0.47267  0.47267  0.00000  0.05465
       8     H     0.47403  0.47403  0.00000  0.05195
       9     C     2.96731  2.96731  0.00000  0.06537
      10     C     3.13474  3.13474  0.00000 -0.26947
      11     H     0.47456  0.47456  0.00000  0.05088
      12     H     0.47171  0.47171  0.00000  0.05658
      13     H     0.45206  0.45206  0.00000  0.09588
      14     H     0.45887  0.45887  0.00000  0.08227
      15     H     0.45114  0.45114  0.00000  0.09772

   Total alpha = 21.00000, Total beta = 21.00000, Total charge = -0.00000
