                              Psi4 1.0.54 Driver

  ==> Input File <==

--------------------------------------------------------------------------
set {
	reference rhf
	basis cc-pvtz
}

set_num_threads( 4 )
memory 2 gb

molecule MOL {
0 1

H	 -4.351584	 -0.784438	 0.000000
O	 -3.969833	 0.074689	 -0.000000
C	 -2.624601	 0.009949	 -0.000000
C	 -1.925462	 1.205516	 -0.000000
C	 -1.936939	 -1.188386	 -0.000000
H	 -2.469179	 2.129222	 -0.000000
C	 -0.548279	 1.197621	 -0.000000
H	 -2.472358	 -2.119994	 -0.000000
C	 -0.553942	 -1.194533	 -0.000000
H	 -0.009251	 2.123481	 -0.000000
C	 0.134754	 -0.003663	 -0.000000
H	 -0.024929	 -2.126117	 -0.000000
Br	 2.033134	 -0.009127	 0.000000

	symmetry c1
}
ee,wfn = energy('scf', return_wfn=True)
oeprop( wfn, 'DIPOLE', 'QUADRUPOLE', 'MULLIKEN_CHARGES')
oeprop( wfn, 'GRID_ESP')
f=open( 'psi4out.xyz', 'w' )
f.write( "13  " )
f.write( str(ee) + "\n" )
f.write( MOL.save_string_xyz() )
f.close()
--------------------------------------------------------------------------

    Molecular point group: c1

    Geometry (in Angstrom), charge = 0, multiplicity = 1:

       Center              X                  Y                   Z               Mass
    ------------   -----------------  -----------------  -----------------  -----------------
           H         -4.340537331161    -0.784487268557     0.000000000000     1.007825032070
           O         -3.958786331161     0.074639731443     0.000000000000    15.994914619560
           C         -2.613554331161     0.009899731443     0.000000000000    12.000000000000
           C         -1.914415331161     1.205466731443     0.000000000000    12.000000000000
           C         -1.925892331161    -1.188435268557     0.000000000000    12.000000000000
           H         -2.458132331161     2.129172731443     0.000000000000     1.007825032070
           C         -0.537232331161     1.197571731443     0.000000000000    12.000000000000
           H         -2.461311331161    -2.120043268557     0.000000000000     1.007825032070
           C         -0.542895331161    -1.194582268557     0.000000000000    12.000000000000
           H          0.001795668839     2.123431731443     0.000000000000     1.007825032070
           C          0.145800668839    -0.003712268557     0.000000000000    12.000000000000
           H         -0.013882331161    -2.126166268557     0.000000000000     1.007825032070
          BR          2.044180668839    -0.009176268557     0.000000000000    78.918337087000

  Charge       = 0
  Multiplicity = 1
  Basis Set: CC-PVTZ
  Basis Set:

    Orbital Energies (a.u.)
    -----------------------

    Doubly Occupied:

       1A   -490.018401     2A    -65.158717     3A    -58.513944
       4A    -58.512575     5A    -58.512572     6A    -20.597114
       7A    -11.312223     8A    -11.287625     9A    -11.254064
      10A    -11.252321    11A    -11.242827    12A    -11.237437
      13A     -9.832499    14A     -7.444119    15A     -7.437370
      16A     -7.437296    17A     -3.187808    18A     -3.184251
      19A     -3.184158    20A     -3.175501    21A     -3.175497
      22A     -1.428635    23A     -1.179883    24A     -1.066709
      25A     -1.042271    26A     -0.970529    27A     -0.870172
      28A     -0.828211    29A     -0.758470    30A     -0.690154
      31A     -0.653969    32A     -0.626037    33A     -0.610298
      34A     -0.609197    35A     -0.582399    36A     -0.521876
      37A     -0.514702    38A     -0.501406    39A     -0.427682
      40A     -0.413558    41A     -0.360485    42A     -0.317141

  @DF-RHF Final Energy: -2877.54704382010505

   => Energetics <=

    Nuclear Repulsion Energy =            525.5149888053607583
    One-Electron Energy =               -5042.2608219816702331
    Two-Electron Energy =                1639.1987893562040881
    DFT Exchange-Correlation Energy =       0.0000000000000000
    Empirical Dispersion Energy =           0.0000000000000000
    PCM Polarization Energy =               0.0000000000000000
    EFP Energy =                            0.0000000000000000
    Total Energy =                      -2877.5470438201050456

  Mulliken Charges: (a.u.)
   Center  Symbol    Alpha    Beta     Spin     Total
       1     H     0.38657  0.38657  0.00000  0.22687
       2     O     4.17045  4.17045  0.00000 -0.34089
       3     C     2.85786  2.85786  0.00000  0.28428
       4     C     3.09362  3.09362  0.00000 -0.18724
       5     C     3.11916  3.11916  0.00000 -0.23833
       6     H     0.41602  0.41602  0.00000  0.16796
       7     C     3.07669  3.07669  0.00000 -0.15338
       8     H     0.43093  0.43093  0.00000  0.13814
       9     C     3.08432  3.08432  0.00000 -0.16863
      10     H     0.41066  0.41066  0.00000  0.17868
      11     C     2.97615  2.97615  0.00000  0.04770
      12     H     0.41056  0.41056  0.00000  0.17887
      13    BR    17.56701 17.56701  0.00000 -0.13403

   Total alpha = 42.00000, Total beta = 42.00000, Total charge = -0.00000

*** Psi4 exiting successfully. Buy a developer a beer!
