  ==> Input File <==

--------------------------------------------------------------------------
set {
	reference rhf
	basis 6-31G*
}

set_num_threads( 1 )
memory 2 gb

molecule MOL {
0 1

H	 -0.478193	 3.728812	 6.213226
C	 -1.093737	 2.851813	 6.038581
C	 -1.291900	 2.604868	 4.543614
H	 -0.605016	 2.005192	 6.511578
H	 -2.044118	 3.009184	 6.541382
C	 -2.162092	 1.378015	 4.261811
H	 -0.323808	 2.478238	 4.069944
H	 -1.751001	 3.482901	 4.091976
C	 -2.393186	 1.115914	 2.773468
H	 -1.708296	 0.500054	 4.707789
H	 -3.130021	 1.511685	 4.739607
C	 -1.165491	 0.614703	 2.027280
H	 -3.162934	 0.355733	 2.649438
H	 -2.775620	 2.005007	 2.277047
C	 -1.181045	 0.701995	 0.511084
O	 -0.228192	 0.151510	 2.604626
C	 -2.285934	 -0.139295	 -0.145128
H	 -0.207309	 0.376692	 0.165062
H	 -1.305229	 1.745044	 0.225930
C	 -3.651768	 0.085446	 0.506485
H	 -2.346596	 0.110469	 -1.202272
H	 -2.034737	 -1.195320	 -0.088721
C	 -4.759797	 -0.746382	 -0.137905
H	 -3.908762	 1.140117	 0.445781
H	 -3.588286	 -0.154158	 1.565709
H	 -4.868882	 -0.505166	 -1.191300
H	 -4.548009	 -1.809175	 -0.062213
H	 -5.715422	 -0.564821	 0.343442

	symmetry c1
}
set optking {
	frozen_dihedral = ("
		10 6 3 2,
		16 12 15 17
	")
}

ee = energy('scf')
oeprop('DIPOLE', 'QUADRUPOLE', 'MULLIKEN_CHARGES')
f=open( 'psi4out.xyz', 'w' )
f.write( "28  " )
f.write( str(ee) + "\n" )
f.write( MOL.save_string_xyz() )
f.close()
--------------------------------------------------------------------------

    Molecular point group: c1

    Geometry (in Angstrom), charge = 0, multiplicity = 1:

       Center              X                  Y                   Z               Mass
    ------------   -----------------  -----------------  -----------------  -----------------
           H          1.550288583119     2.867724171420     3.901743502811     1.007825032070
           C          0.934744583119     1.990725171420     3.727098502811    12.000000000000
           C          0.736581583119     1.743780171420     2.232131502811    12.000000000000
           H          1.423465583119     1.144104171420     4.200095502811     1.007825032070
           H         -0.015636416881     2.148096171420     4.229899502811     1.007825032070
           C         -0.133610416881     0.516927171420     1.950328502811    12.000000000000
           H          1.704673583119     1.617150171420     1.758461502811     1.007825032070
           H          0.277480583119     2.621813171420     1.780493502811     1.007825032070
           C         -0.364704416881     0.254826171420     0.461985502811    12.000000000000
           H          0.320185583119    -0.361033828580     2.396306502811     1.007825032070
           H         -1.101539416881     0.650597171420     2.428124502811     1.007825032070
           C          0.862990583119    -0.246384828580    -0.284202497189    12.000000000000
           H         -1.134452416881    -0.505354828580     0.337955502811     1.007825032070
           H         -0.747138416881     1.143919171420    -0.034435497189     1.007825032070
           C          0.847436583119    -0.159092828580    -1.800398497189    12.000000000000
           O          1.800289583119    -0.709577828580     0.293143502811    15.994914619560
           C         -0.257452416881    -1.000382828580    -2.456610497189    12.000000000000
           H          1.821172583119    -0.484395828580    -2.146420497189     1.007825032070
           H          0.723252583119     0.883956171420    -2.085552497189     1.007825032070
           C         -1.623286416881    -0.775641828580    -1.804997497189    12.000000000000
           H         -0.318114416881    -0.750618828580    -3.513754497189     1.007825032070
           H         -0.006255416881    -2.056407828580    -2.400203497189     1.007825032070
           C         -2.731315416881    -1.607469828580    -2.449387497189    12.000000000000
           H         -1.880280416881     0.279029171420    -1.865701497189     1.007825032070
           H         -1.559804416881    -1.015245828580    -0.745773497189     1.007825032070
           H         -2.840400416881    -1.366253828580    -3.502782497189     1.007825032070
           H         -2.519527416881    -2.670262828580    -2.373695497189     1.007825032070
           H         -3.686940416881    -1.425908828580    -1.968040497189     1.007825032070

  Charge       = 0
  Multiplicity = 1
  Basis Set: 6-31G*
  Basis Set:

    Orbital Energies (a.u.)
    -----------------------

    Doubly Occupied:

       1A    -20.549600     2A    -11.322624     3A    -11.232573
       4A    -11.229270     5A    -11.224438     6A    -11.222050
       7A    -11.215826     8A    -11.214256     9A    -11.211063
      10A    -11.204837    11A     -1.394369    12A     -1.103984
      13A     -1.074080    14A     -1.016762    15A     -0.996712
      16A     -0.905495    17A     -0.886125    18A     -0.814593
      19A     -0.791276    20A     -0.727006    21A     -0.681921
      22A     -0.655257    23A     -0.631598    24A     -0.614729
      25A     -0.604883    26A     -0.588405    27A     -0.581708
      28A     -0.571385    29A     -0.555662    30A     -0.530335
      31A     -0.524923    32A     -0.517912    33A     -0.499982
      34A     -0.488407    35A     -0.478091    36A     -0.472850
      37A     -0.463692    38A     -0.461817    39A     -0.429773
      40A     -0.394914

  @DF-RHF Final Energy:  -426.13192397908790

   => Energetics <=

    Nuclear Repulsion Energy =            550.9304214792699668
    One-Electron Energy =               -1669.9542837446301746
    Two-Electron Energy =                 692.8919382862738985
    DFT Exchange-Correlation Energy =       0.0000000000000000
    Empirical Dispersion Energy =           0.0000000000000000
    PCM Polarization Energy =               0.0000000000000000
    EFP Energy =                            0.0000000000000000
    Total Energy =                       -426.1319239790861957

  Mulliken Charges: (a.u.)
   Center  Symbol    Alpha    Beta     Spin     Total
       1     H     0.41970  0.41970  0.00000  0.16061
       2     C     3.24000  3.24000  0.00000 -0.48000
       3     C     3.15663  3.15663  0.00000 -0.31326
       4     H     0.41860  0.41860  0.00000  0.16280
       5     H     0.42392  0.42392  0.00000  0.15216
       6     C     3.14441  3.14441  0.00000 -0.28883
       7     H     0.41109  0.41109  0.00000  0.17782
       8     H     0.42824  0.42824  0.00000  0.14353
       9     C     3.22181  3.22181  0.00000 -0.44362
      10     H     0.40783  0.40783  0.00000  0.18434
      11     H     0.42323  0.42323  0.00000  0.15355
      12     C     2.73277  2.73277  0.00000  0.53447
      13     H     0.39384  0.39384  0.00000  0.21233
      14     H     0.41053  0.41053  0.00000  0.17894
      15     C     3.20273  3.20273  0.00000 -0.40547
      16     O     4.26520  4.26520  0.00000 -0.53039
      17     C     3.15879  3.15879  0.00000 -0.31758
      18     H     0.39824  0.39824  0.00000  0.20352
      19     H     0.41226  0.41226  0.00000  0.17548
      20     C     3.15630  3.15630  0.00000 -0.31260
      21     H     0.41371  0.41371  0.00000  0.17258
      22     H     0.41314  0.41314  0.00000  0.17372
      23     C     3.23621  3.23621  0.00000 -0.47242
      24     H     0.42126  0.42126  0.00000  0.15747
      25     H     0.42939  0.42939  0.00000  0.14121
      26     H     0.42120  0.42120  0.00000  0.15760
      27     H     0.42030  0.42030  0.00000  0.15941
      28     H     0.41868  0.41868  0.00000  0.16263

   Total alpha = 40.00000, Total beta = 40.00000, Total charge = -0.00000
