  ==> Input File <==

--------------------------------------------------------------------------
set {
	reference rhf
	basis 6-31G*
}

set_num_threads( 4 )
memory 2 gb

molecule MOL {
0 1

O	 -1.876614	 2.004708	 -0.026051
C	 -1.893193	 0.849943	 -0.327178
C	 -0.679838	 0.193543	 -0.962169
C	 -3.101107	 -0.021609	 -0.065036
C	 0.379448	 -0.143569	 0.099626
H	 -0.264142	 0.893944	 -1.678367
H	 -0.968492	 -0.706493	 -1.497556
C	 1.631333	 -0.777471	 -0.511575
H	 0.632316	 0.769439	 0.626749
H	 -0.043870	 -0.824852	 0.836106
C	 2.915987	 -0.544314	 0.291766
H	 1.766672	 -0.399098	 -1.523130
H	 1.471257	 -1.849544	 -0.605828
C	 3.373361	 0.914346	 0.347591
H	 3.708709	 -1.142521	 -0.150311
H	 2.780642	 -0.921148	 1.303579
H	 3.506512	 1.320010	 -0.651625
H	 4.322697	 0.999599	 0.867103
H	 2.660624	 1.545032	 0.868198
H	 -3.536992	 -0.335541	 -1.009872
H	 -3.837366	 0.527734	 0.504989
H	 -2.816215	 -0.922363	 0.470952

	symmetry c1
}
set optking {
	frozen_dihedral = ("
		3 5 8 12
	")
}

ee = optimize('scf')
oeprop('DIPOLE', 'QUADRUPOLE', 'MULLIKEN_CHARGES')
f=open( 'psi4out.xyz', 'w' )
f.write( "22  " )
f.write( str(ee) + "\n" )
f.write( MOL.save_string_xyz() )
f.close()
--------------------------------------------------------------------------

    Molecular point group: c1
  Charge       = 0
  Multiplicity = 1
  Basis Set: 6-31G*
  Basis Set:
  @DF-RHF Final Energy:  -348.09553975208223
    Total Energy =                       -348.0955397520825727
    Molecular point group: c1
  Basis Set: 6-31G*
  Basis Set:
  Basis Set: 6-31G*
  Basis Set:
  @DF-RHF Final Energy:  -348.09568760003049
    Total Energy =                       -348.0956876000307716
  Basis Set: 6-31G*
  Basis Set:
  Basis Set: 6-31G*
  Basis Set:
  @DF-RHF Final Energy:  -348.09510818718832
    Total Energy =                       -348.0951081871879751
  Basis Set: 6-31G*
  Basis Set:
  Basis Set: 6-31G*
  Basis Set:
  @DF-RHF Final Energy:  -348.09589730520383
    Total Energy =                       -348.0958973052038914
  Basis Set: 6-31G*
  Basis Set:
  @DF-RHF Final Energy:  -348.09572636906671
    Total Energy =                       -348.0957263690667673
  @DF-RHF Final Energy:  -348.09592673867905
    Total Energy =                       -348.0959267386791680
  @DF-RHF Final Energy:  -348.09562425993562
    Total Energy =                       -348.0956242599357324
  @DF-RHF Final Energy:  -348.09596554273656
    Total Energy =                       -348.0959655427363373
  Basis Set: 6-31G*
  Basis Set:
  @DF-RHF Final Energy:  -348.09596993441198
    Total Energy =                       -348.0959699344120963
  Basis Set: 6-31G*
  Basis Set:
  Basis Set: 6-31G*
  Basis Set:
  @DF-RHF Final Energy:  -348.09597284642621
    Total Energy =                       -348.0959728464259797
  Basis Set: 6-31G*
  Basis Set:
  Basis Set: 6-31G*
  Basis Set:
  @DF-RHF Final Energy:  -348.09597625996037
    Total Energy =                       -348.0959762599604801
  Basis Set: 6-31G*
  Basis Set:
  Charge       = 0
  Multiplicity = 1
  Basis Set: 6-31G*
  Basis Set:

    Orbital Energies (a.u.)
    -----------------------

    Doubly Occupied:

       1A    -20.547442     2A    -11.324335     3A    -11.229727
       4A    -11.229144     5A    -11.228145     6A    -11.222316
       7A    -11.220605     8A    -11.210570     9A     -1.393098
      10A     -1.094716    11A     -1.044117    12A     -0.999119
      13A     -0.937921    14A     -0.856112    15A     -0.788489
      16A     -0.733192    17A     -0.659675    18A     -0.646177
      19A     -0.626096    20A     -0.619382    21A     -0.598330
      22A     -0.575517    23A     -0.567189    24A     -0.545443
      25A     -0.532027    26A     -0.512639    27A     -0.503566
      28A     -0.487344    29A     -0.469830    30A     -0.462681
      31A     -0.459964    32A     -0.396051

  @DF-RHF Final Energy:  -348.09597640553687

   => Energetics <=

    Nuclear Repulsion Energy =            373.3985709395136041
    One-Electron Energy =               -1211.5471759413435393
    Two-Electron Energy =                 490.0526285962928910
    DFT Exchange-Correlation Energy =       0.0000000000000000
    Empirical Dispersion Energy =           0.0000000000000000
    PCM Polarization Energy =               0.0000000000000000
    EFP Energy =                            0.0000000000000000
    Total Energy =                       -348.0959764055371011
    Molecular point group: c1
  Basis Set: 6-31G*
  Basis Set:

  -Total Gradient:
     Atom            X                  Y                   Z
    ------   -----------------  -----------------  -----------------
       1        0.000013603872    -0.000000338032     0.000010653919
       2       -0.000020093993    -0.000010582412     0.000012609280
       3        0.001131952293     0.002527863721    -0.000268553568
       4       -0.000018465574     0.000025085637    -0.000032420270
       5       -0.002072142950    -0.004202327622     0.000040310565
       6       -0.000001015088     0.000001326021    -0.000010357418
       7        0.000006162588     0.000002992959     0.000001358358
       8        0.003083950402     0.004567742027     0.001665029749
       9       -0.000007277213    -0.000002113589    -0.000004587529
      10       -0.000003737072     0.000000549646     0.000003804566
      11        0.000000665737    -0.000006221450     0.000001085883
      12       -0.002126746451    -0.002895196983    -0.001433622243
      13       -0.000000323794     0.000002396181    -0.000002066822
      14       -0.000002233445     0.000002866852    -0.000000788675
      15        0.000000856368    -0.000000032315     0.000001479921
      16       -0.000001164732    -0.000002358866    -0.000000577350
      17       -0.000000103048     0.000000250352    -0.000000198312
      18       -0.000000899652    -0.000000206442    -0.000001026650
      19       -0.000000456745     0.000001570386     0.000000115993
      20        0.000003901218    -0.000010588974     0.000005937861
      21        0.000003086751    -0.000001306781     0.000003039252
      22        0.000010480530    -0.000001370320     0.000008773490

  **** Optimization is complete! (in 12 steps) ****
    Final optimized geometry and variables:
    Molecular point group: c1

    Geometry (in Angstrom), charge = 0, multiplicity = 1:

    O           -2.049043444476     1.665294607100     0.150636953506
    C           -2.016591480171     0.518123211268    -0.177087528874
    C           -0.777379277549    -0.070987608707    -0.827139679659
    C           -3.188438948953    -0.408676312885     0.059103499474
    C            0.280193792593    -0.425620981540     0.230566092176
    H           -0.371348353327     0.674035215432    -1.501830180389
    H           -1.034474570434    -0.951828985495    -1.409737574137
    C            1.542271612501    -1.053599635992    -0.381092375944
    H            0.526922183444     0.487475326484     0.761133019349
    H           -0.137359813426    -1.105199885479     0.969974181932
    C            2.813483188747    -0.867297259221     0.454149934260
    H            1.695831734955    -0.668983398744    -1.387384285195
    H            1.363524742378    -2.118865685804    -0.512393368055
    C            3.373897492215     0.555897142035     0.433798454805
    H            3.576132610795    -1.546670265515     0.082384893219
    H            2.615299225140    -1.167508478556     1.481167203698
    H            3.620709244068     0.860276887233    -0.579472082597
    H            4.280076445739     0.621609153136     1.027914227917
    H            2.670283953833     1.278777838836     0.833025960152
    H           -3.615372215076    -0.706939465042    -0.894819312988
    H           -3.943392349372     0.092395920751     0.648794306541
    H           -2.867364057080    -1.315321914143     0.563592657183

  Mulliken Charges: (a.u.)
   Center  Symbol    Alpha    Beta     Spin     Total
       1     O     4.26240  4.26240  0.00000 -0.52479
       2     C     2.73728  2.73728  0.00000  0.52543
       3     C     3.20085  3.20085  0.00000 -0.40170
       4     C     3.28939  3.28939  0.00000 -0.57877
       5     C     3.16459  3.16459  0.00000 -0.32918
       6     H     0.40062  0.40062  0.00000  0.19877
       7     H     0.41696  0.41696  0.00000  0.16608
       8     C     3.15465  3.15465  0.00000 -0.30930
       9     H     0.40488  0.40488  0.00000  0.19024
      10     H     0.41895  0.41895  0.00000  0.16211
      11     C     3.15419  3.15419  0.00000 -0.30837
      12     H     0.42084  0.42084  0.00000  0.15832
      13     H     0.42048  0.42048  0.00000  0.15905
      14     C     3.24143  3.24143  0.00000 -0.48287
      15     H     0.41973  0.41973  0.00000  0.16055
      16     H     0.42196  0.42196  0.00000  0.15608
      17     H     0.42129  0.42129  0.00000  0.15742
      18     H     0.41820  0.41820  0.00000  0.16361
      19     H     0.41757  0.41757  0.00000  0.16486
      20     H     0.40675  0.40675  0.00000  0.18650
      21     H     0.39710  0.39710  0.00000  0.20579
      22     H     0.40990  0.40990  0.00000  0.18020

   Total alpha = 32.00000, Total beta = 32.00000, Total charge = -0.00000
