                              Psi4 1.0.54 Driver

  ==> Input File <==

--------------------------------------------------------------------------
set {
	reference rhf
	basis cc-pvtz
}

set_num_threads( 4 )
memory 2 gb

molecule MOL {
0 1

H	 -3.258660	 -0.290394	 1.471450
C	 -3.307964	 -0.275695	 0.374072
C	 -2.653809	 0.914422	 -0.273689
O	 -3.855140	 -1.148880	 -0.205112
C	 -1.711681	 1.662088	 0.674502
H	 -2.140136	 0.581696	 -1.166307
H	 -3.456754	 1.581708	 -0.579159
C	 -0.468263	 0.863096	 1.058825
H	 -1.411414	 2.589362	 0.198748
H	 -2.255477	 1.945953	 1.572222
C	 0.466000	 1.625040	 1.994975
H	 0.070010	 0.588342	 0.155565
H	 -0.762215	 -0.071804	 1.528912
C	 1.714564	 0.828054	 2.368001
H	 0.749175	 2.561069	 1.523800
H	 -0.072891	 1.889966	 2.902008
C	 2.641740	 1.518628	 3.369677
H	 2.274174	 0.594716	 1.465131
H	 1.405168	 -0.125654	 2.786356
C	 3.313983	 2.786564	 2.848608
H	 3.412304	 0.813254	 3.664754
H	 2.083850	 1.751560	 4.272898
H	 3.874398	 2.585291	 1.941184
H	 2.594984	 3.566096	 2.627127
H	 4.006740	 3.183012	 3.582012

	symmetry c1
}
set optking {
	frozen_dihedral = ("
		6 3 2 4
	")
}

ee,wfn = optimize('scf', return_wfn=True)
oeprop( wfn, 'DIPOLE', 'QUADRUPOLE', 'MULLIKEN_CHARGES')
f=open( 'psi4out.xyz', 'w' )
f.write( "25  " )
f.write( str(ee) + "\n" )
f.write( MOL.save_string_xyz() )
f.close()
--------------------------------------------------------------------------

    Molecular point group: c1
  Charge       = 0
  Multiplicity = 1
  Basis Set: CC-PVTZ
  Basis Set:
  @DF-RHF Final Energy:  -387.25889730570725
    Total Energy =                       -387.2588973057072508
    Molecular point group: c1
  Basis Set: CC-PVTZ
  Basis Set:
  Basis Set: CC-PVTZ
  Basis Set:
  @DF-RHF Final Energy:  -387.25701602385425
    Total Energy =                       -387.2570160238544759
  Basis Set: CC-PVTZ
  Basis Set:
  Basis Set: CC-PVTZ
  Basis Set:
  @DF-RHF Final Energy:  -387.25906848541865
    Total Energy =                       -387.2590684854184246
  Basis Set: CC-PVTZ
  Basis Set:
  Basis Set: CC-PVTZ
  Basis Set:
  @DF-RHF Final Energy:  -387.25912054241235
    Total Energy =                       -387.2591205424121199
  Basis Set: CC-PVTZ
  Basis Set:
  Basis Set: CC-PVTZ
  Basis Set:
  @DF-RHF Final Energy:  -387.25920081662792
    Total Energy =                       -387.2592008166280948
  Basis Set: CC-PVTZ
  Basis Set:
  Basis Set: CC-PVTZ
  Basis Set:
  @DF-RHF Final Energy:  -387.25920436207667
    Total Energy =                       -387.2592043620768436
  Basis Set: CC-PVTZ
  Basis Set:
  Basis Set: CC-PVTZ
  Basis Set:
  @DF-RHF Final Energy:  -387.25920648700043
    Total Energy =                       -387.2592064870004833
  Basis Set: CC-PVTZ
  Basis Set:
  Charge       = 0
  Multiplicity = 1
  Basis Set: CC-PVTZ
  Basis Set:

    Orbital Energies (a.u.)
    -----------------------

    Doubly Occupied:

       1A    -20.550552     2A    -11.321812     3A    -11.233780
       4A    -11.231043     5A    -11.224463     6A    -11.219448
       7A    -11.217739     8A    -11.216882     9A    -11.210014
      10A     -1.406413    11A     -1.106682    12A     -1.071931
      13A     -1.015128    14A     -0.943650    15A     -0.876157
      16A     -0.823282    17A     -0.790823    18A     -0.783965
      19A     -0.666590    20A     -0.659181    21A     -0.635879
      22A     -0.631816    23A     -0.610686    24A     -0.597846
      25A     -0.571937    26A     -0.552074    27A     -0.541733
      28A     -0.527464    29A     -0.506874    30A     -0.501115
      31A     -0.490758    32A     -0.480944    33A     -0.466906
      34A     -0.461105    35A     -0.444404    36A     -0.411389

  @DF-RHF Final Energy:  -387.25920713855334

   => Energetics <=

    Nuclear Repulsion Energy =            437.5195575089216504
    One-Electron Energy =               -1391.5525968640388328
    Two-Electron Energy =                 566.7738322165635054
    DFT Exchange-Correlation Energy =       0.0000000000000000
    Empirical Dispersion Energy =           0.0000000000000000
    PCM Polarization Energy =               0.0000000000000000
    EFP Energy =                            0.0000000000000000
    Total Energy =                       -387.2592071385536201
    Molecular point group: c1
  Basis Set: CC-PVTZ
  Basis Set:

  -Total Gradient:
     Atom            X                  Y                   Z
    ------   -----------------  -----------------  -----------------
       1       -0.000016525880    -0.000022328012     0.000091661369
       2        0.002138817588    -0.001277771079    -0.000009964296
       3       -0.002019640642     0.000782144910    -0.000952671568
       4       -0.001311033498     0.000829019759     0.000087309781
       5        0.000017734425     0.000000429176    -0.000028921837
       6        0.001204199487    -0.000306280332     0.000813273612
       7       -0.000007370486     0.000000454191    -0.000007462538
       8       -0.000006291217     0.000002004338     0.000014315286
       9        0.000006846701     0.000005300875     0.000007373801
      10       -0.000007500211    -0.000010591374    -0.000010295076
      11        0.000007604480     0.000000203013    -0.000003262784
      12       -0.000003410103     0.000000267384     0.000002628307
      13       -0.000003447398    -0.000004586155     0.000004107779
      14        0.000002408680     0.000002301874    -0.000003509997
      15       -0.000000670206     0.000002530416     0.000001732412
      16       -0.000001893490    -0.000004081034    -0.000003373135
      17       -0.000000487294     0.000000789496    -0.000002429977
      18        0.000002443325    -0.000000093663     0.000001396335
      19       -0.000000927981     0.000000817916    -0.000000092726
      20        0.000001994259     0.000001242394     0.000000473895
      21       -0.000001387419    -0.000000264862    -0.000000777345
      22       -0.000000895103    -0.000000175069    -0.000001597564
      23       -0.000000115657    -0.000000123289     0.000000403472
      24        0.000000813244    -0.000000930289     0.000000821158
      25       -0.000001265610    -0.000000280589    -0.000001138367

  **** Optimization is complete! (in 8 steps) ****
    Final optimized geometry and variables:
    Molecular point group: c1

    Geometry (in Angstrom), charge = 0, multiplicity = 1:

    H           -2.958475795599    -1.198266803031     0.059998432397
    C           -2.935323386168    -1.148179215403    -1.036572189881
    C           -2.212229210567     0.038907452724    -1.628874040471
    O           -3.492093224227    -1.970798933339    -1.676804452738
    C           -1.261859721177     0.735631117900    -0.658049037850
    H           -1.687542642967    -0.298497789433    -2.514956787667
    H           -2.984799501353     0.726855155877    -1.960634898599
    C           -0.028071665604    -0.095310568848    -0.310813454803
    H           -0.946624824277     1.677795419146    -1.093410154078
    H           -1.799195142772     0.989904241053     0.252573645992
    C            0.910653245524     0.601909793567     0.670103664957
    H            0.511896208813    -0.324941148128    -1.225951506361
    H           -0.332877095039    -1.052266093421     0.106567797967
    C            2.150817280541    -0.226551219731     0.999919913520
    H            1.203401048344     1.560675313641     0.253888621147
    H            0.371209950800     0.819417342586     1.589203013236
    C            3.080091699954     0.396272862911     2.043166081696
    H            2.711972016141    -0.411702223030     0.086860961956
    H            1.831787372996    -1.200350312063     1.361180134960
    C            3.764492485373     1.686806907393     1.599145496816
    H            3.843710211700    -0.331683282676     2.298772772538
    H            2.520829384490     0.580612386755     2.956663006832
    H            4.325775072298     1.534426715657     0.682782314483
    H            3.052825955461     2.484252796110     1.422342068435
    H            4.458483964962     2.033295095169     2.356250792554

  Mulliken Charges: (a.u.)
   Center  Symbol    Alpha    Beta     Spin     Total
       1     H     0.46116  0.46116  0.00000  0.07768
       2     C     2.91090  2.91090  0.00000  0.17820
       3     C     3.09193  3.09193  0.00000 -0.18385
       4     O     4.16564  4.16564  0.00000 -0.33128
       5     C     3.11512  3.11512  0.00000 -0.23024
       6     H     0.44029  0.44029  0.00000  0.11941
       7     H     0.43510  0.43510  0.00000  0.12980
       8     C     3.09175  3.09175  0.00000 -0.18350
       9     H     0.44307  0.44307  0.00000  0.11385
      10     H     0.45016  0.45016  0.00000  0.09969
      11     C     3.09264  3.09264  0.00000 -0.18528
      12     H     0.44987  0.44987  0.00000  0.10025
      13     H     0.45057  0.45057  0.00000  0.09886
      14     C     3.09564  3.09564  0.00000 -0.19129
      15     H     0.45106  0.45106  0.00000  0.09788
      16     H     0.45376  0.45376  0.00000  0.09248
      17     C     3.09069  3.09069  0.00000 -0.18137
      18     H     0.45305  0.45305  0.00000  0.09389
      19     H     0.44840  0.44840  0.00000  0.10320
      20     C     3.15267  3.15267  0.00000 -0.30535
      21     H     0.44759  0.44759  0.00000  0.10483
      22     H     0.45451  0.45451  0.00000  0.09097
      23     H     0.45452  0.45452  0.00000  0.09097
      24     H     0.45421  0.45421  0.00000  0.09157
      25     H     0.44569  0.44569  0.00000  0.10861

   Total alpha = 36.00000, Total beta = 36.00000, Total charge = -0.00000

*** Psi4 exiting successfully. Buy a developer a beer!
