  ==> Input File <==

--------------------------------------------------------------------------
set {
	reference rhf
	basis 6-31G*
}

set_num_threads( 4 )
memory 2 gb

molecule MOL {
0 1

H	 -2.365627	 -1.312883	 -0.379134
C	 -1.358347	 -1.274295	 0.019669
C	 -0.681945	 0.000119	 -0.470601
H	 -0.826096	 -2.155117	 -0.321105
H	 -1.409554	 -1.292283	 1.100109
C	 -1.357790	 1.274691	 0.020220
N	 0.739525	 -0.000142	 0.006128
H	 -0.594190	 0.000341	 -1.545128
H	 -2.364980	 1.313977	 -0.378631
H	 -0.825080	 2.155361	 -0.320114
H	 -1.409060	 1.292170	 1.100671
O	 0.929993	 0.183192	 1.168321
O	 1.591208	 -0.184365	 -0.810021

	symmetry c1
}
set optking {
	frozen_dihedral = ("
		12 7 3 8
	")
}

ee = optimize('scf')
oeprop('DIPOLE', 'QUADRUPOLE', 'MULLIKEN_CHARGES')
f=open( 'psi4out.xyz', 'w' )
f.write( "13  " )
f.write( str(ee) + "\n" )
f.write( MOL.save_string_xyz() )
f.close()
--------------------------------------------------------------------------

    Molecular point group: c1
  Charge       = 0
  Multiplicity = 1
  Basis Set: 6-31G*
  Basis Set:
  @DF-RHF Final Energy:  -321.73908069314069
    Total Energy =                       -321.7390806931407496
    Molecular point group: c1
  Basis Set: 6-31G*
  Basis Set:
  Basis Set: 6-31G*
  Basis Set:
  @DF-RHF Final Energy:  -321.73660873720206
    Total Energy =                       -321.7366087372021184
  Basis Set: 6-31G*
  Basis Set:
  Basis Set: 6-31G*
  Basis Set:
  @DF-RHF Final Energy:  -321.73911901230389
    Total Energy =                       -321.7391190123039451
  Basis Set: 6-31G*
  Basis Set:
  Basis Set: 6-31G*
  Basis Set:
  @DF-RHF Final Energy:  -321.73915930933737
    Total Energy =                       -321.7391593093373672
  Basis Set: 6-31G*
  Basis Set:
  Charge       = 0
  Multiplicity = 1
  Basis Set: 6-31G*
  Basis Set:

    Orbital Energies (a.u.)
    -----------------------

    Doubly Occupied:

       1A    -20.600949     2A    -20.598069     3A    -15.842818
       4A    -11.305895     5A    -11.247669     6A    -11.244499
       7A     -1.628590     8A     -1.413970     9A     -1.143974
      10A     -0.974616    11A     -0.957905    12A     -0.814010
      13A     -0.749927    14A     -0.728027    15A     -0.722044
      16A     -0.650271    17A     -0.594801    18A     -0.588655
      19A     -0.571587    20A     -0.530142    21A     -0.523069
      22A     -0.482379    23A     -0.468827    24A     -0.447119

  @DF-RHF Final Energy:  -321.73915972783510

   => Energetics <=

    Nuclear Repulsion Energy =            256.7782522305870430
    One-Electron Energy =                -947.3751967374130345
    Two-Electron Energy =                 368.8577847789908333
    DFT Exchange-Correlation Energy =       0.0000000000000000
    Empirical Dispersion Energy =           0.0000000000000000
    PCM Polarization Energy =               0.0000000000000000
    EFP Energy =                            0.0000000000000000
    Total Energy =                       -321.7391597278352151
    Molecular point group: c1
  Basis Set: 6-31G*
  Basis Set:

  -Total Gradient:
     Atom            X                  Y                   Z
    ------   -----------------  -----------------  -----------------
       1       -0.000026861822    -0.000035914466     0.000008150282
       2       -0.000065048790     0.000012320479    -0.000039138880
       3        0.000018153387    -0.000345190247     0.000010372865
       4        0.000005018871    -0.000004034214     0.000004336704
       5        0.000000425063     0.000018324213    -0.000025082521
       6       -0.000015257133     0.000012370308    -0.000008092287
       7       -0.000217307651    -0.000312568980     0.000219962000
       8       -0.000025734984     0.000365174049     0.000019854574
       9        0.000004272573     0.000001421396     0.000000629856
      10        0.000001502693     0.000000783469    -0.000003374455
      11       -0.000002233869    -0.000005117097     0.000003604414
      12        0.000161862502     0.000300048097    -0.000274448105
      13        0.000161209153    -0.000007617007     0.000083225555

  **** Optimization is complete! (in 5 steps) ****
    Final optimized geometry and variables:
    Molecular point group: c1

    Geometry (in Angstrom), charge = 0, multiplicity = 1:

    H           -2.362067701810    -1.306804991491    -0.368504277346
    C           -1.351345261572    -1.264653938938     0.020662449799
    C           -0.682429433107     0.015715056261    -0.469183862232
    H           -0.816598211035    -2.140649596118    -0.327885717937
    H           -1.393581051373    -1.285196187081     1.102148715263
    C           -1.365707625424     1.284716536854     0.020681513957
    N            0.739831087591     0.000145723456     0.005626394584
    H           -0.595503598535     0.014094394139    -1.543821498785
    H           -2.368901076934     1.320603855905    -0.388984127017
    H           -0.834180926902     2.169397031079    -0.310765980236
    H           -1.428059428674     1.300357333425     1.100068201234
    O            0.934252107074     0.182554705878     1.169020192772
    O            1.585889323425    -0.214048223036    -0.806479368983

  Mulliken Charges: (a.u.)
   Center  Symbol    Alpha    Beta     Spin     Total
       1     H     0.40690  0.40690  0.00000  0.18619
       2     C     3.25049  3.25049  0.00000 -0.50098
       3     C     3.02366  3.02366  0.00000 -0.04732
       4     H     0.40100  0.40100  0.00000  0.19800
       5     H     0.39799  0.39799  0.00000  0.20401
       6     C     3.24881  3.24881  0.00000 -0.49762
       7     N     3.21595  3.21595  0.00000  0.56810
       8     H     0.38542  0.38542  0.00000  0.22917
       9     H     0.40945  0.40945  0.00000  0.18110
      10     H     0.40397  0.40397  0.00000  0.19206
      11     H     0.39629  0.39629  0.00000  0.20742
      12     O     4.23153  4.23153  0.00000 -0.46306
      13     O     4.22853  4.22853  0.00000 -0.45705

   Total alpha = 24.00000, Total beta = 24.00000, Total charge = -0.00000
