  ==> Input File <==

--------------------------------------------------------------------------
set {
	reference rhf
	basis 6-31G*
}

set_num_threads( 4 )
memory 2 gb

molecule MOL {
0 1

H	 3.119448	 -1.054280	 2.085504
O	 2.462742	 -1.232324	 1.419326
C	 1.698241	 -0.147971	 1.292308
C	 0.624473	 -0.343591	 0.253101
O	 1.878342	 0.830986	 1.940554
C	 -0.265902	 0.883932	 0.072916
H	 1.123046	 -0.625095	 -0.668611
H	 0.041532	 -1.211019	 0.552268
C	 -1.728698	 0.646073	 0.462102
H	 -0.209144	 1.219470	 -0.958188
H	 0.135059	 1.692851	 0.673903
C	 -2.482460	 -0.343073	 -0.431425
H	 -2.245265	 1.602650	 0.432430
H	 -1.779332	 0.308348	 1.496285
C	 -3.960546	 -0.461025	 -0.060175
H	 -2.395034	 -0.026811	 -1.468912
H	 -2.024850	 -1.327147	 -0.371646
H	 -4.472726	 -1.168004	 -0.705284
H	 -4.465146	 0.496508	 -0.151489
H	 -4.081218	 -0.800940	 0.964585

	symmetry c1
}
set optking {
	frozen_dihedral = ("
		7 4 6 10
	")
}

ee = optimize('scf')
oeprop('DIPOLE', 'QUADRUPOLE', 'MULLIKEN_CHARGES')
f=open( 'psi4out.xyz', 'w' )
f.write( "20  " )
f.write( str(ee) + "\n" )
f.write( MOL.save_string_xyz() )
f.close()
--------------------------------------------------------------------------

    Molecular point group: c1
  Charge       = 0
  Multiplicity = 1
  Basis Set: 6-31G*
  Basis Set:
  @DF-RHF Final Energy:  -383.94409538638217
    Total Energy =                       -383.9440953863825712
    Molecular point group: c1
  Basis Set: 6-31G*
  Basis Set:
  Basis Set: 6-31G*
  Basis Set:
  @DF-RHF Final Energy:  -383.94433006613082
    Total Energy =                       -383.9443300661305898
  Basis Set: 6-31G*
  Basis Set:
  Basis Set: 6-31G*
  Basis Set:
  @DF-RHF Final Energy:  -383.94453061384246
    Total Energy =                       -383.9445306138426304
  Basis Set: 6-31G*
  Basis Set:
  Basis Set: 6-31G*
  Basis Set:
  @DF-RHF Final Energy:  -383.94456260267714
    Total Energy =                       -383.9445626026770810
  Basis Set: 6-31G*
  Basis Set:
  @DF-RHF Final Energy:  -383.94457340332281
    Total Energy =                       -383.9445734033229769
  Basis Set: 6-31G*
  Basis Set:
  @DF-RHF Final Energy:  -383.94456971635782
    Total Energy =                       -383.9445697163575915
  Basis Set: 6-31G*
  Basis Set:
  Basis Set: 6-31G*
  Basis Set:
  @DF-RHF Final Energy:  -383.94457842613178
    Total Energy =                       -383.9445784261316703
  Basis Set: 6-31G*
  Basis Set:
  Basis Set: 6-31G*
  Basis Set:
  @DF-RHF Final Energy:  -383.94458144503437
    Total Energy =                       -383.9445814450339185
  Basis Set: 6-31G*
  Basis Set:
  Charge       = 0
  Multiplicity = 1
  Basis Set: 6-31G*
  Basis Set:

    Orbital Energies (a.u.)
    -----------------------

    Doubly Occupied:

       1A    -20.612902     2A    -20.552518     3A    -11.382068
       4A    -11.240390     5A    -11.221008     6A    -11.219595
       7A    -11.218627     8A    -11.211605     9A     -1.475328
      10A     -1.366210    11A     -1.093876    12A     -1.039323
      13A     -0.960765    14A     -0.869131    15A     -0.815587
      16A     -0.776104    17A     -0.701070    18A     -0.691371
      19A     -0.661925    20A     -0.635412    21A     -0.600135
      22A     -0.592895    23A     -0.573514    24A     -0.555548
      25A     -0.541279    26A     -0.507388    27A     -0.499461
      28A     -0.480099    29A     -0.466684    30A     -0.465145
      31A     -0.455483    32A     -0.446329

  @DF-RHF Final Energy:  -383.94458196921005

   => Energetics <=

    Nuclear Repulsion Energy =            377.4033724717111227
    One-Electron Energy =               -1270.8383629866839328
    Two-Electron Energy =                 509.4904085457625911
    DFT Exchange-Correlation Energy =       0.0000000000000000
    Empirical Dispersion Energy =           0.0000000000000000
    PCM Polarization Energy =               0.0000000000000000
    EFP Energy =                            0.0000000000000000
    Total Energy =                       -383.9445819692102191
    Molecular point group: c1
  Basis Set: 6-31G*
  Basis Set:

  -Total Gradient:
     Atom            X                  Y                   Z
    ------   -----------------  -----------------  -----------------
       1        0.000058559872    -0.000047652169     0.000028224956
       2        0.000034660615     0.000088935144     0.000062150335
       3       -0.000094824208     0.000007632722    -0.000055816700
       4        0.000391684724     0.000370012383     0.000091341882
       5        0.000061035147    -0.000076624868    -0.000002121692
       6       -0.000421472470    -0.000321734691    -0.000100017188
       7       -0.000272007901    -0.000213172566    -0.000057449053
       8       -0.000022529746    -0.000015751794    -0.000013615449
       9       -0.000010353514     0.000030759001    -0.000019843547
      10        0.000268718505     0.000197030893     0.000069946979
      11       -0.000001568702     0.000001608949    -0.000019645829
      12        0.000003857283     0.000009105281     0.000009105146
      13       -0.000003915391     0.000000390963     0.000027249171
      14        0.000007595305    -0.000014318926    -0.000009565366
      15       -0.000003447855    -0.000002664631    -0.000011373661
      16        0.000000065125    -0.000000809435     0.000003019768
      17        0.000004434511    -0.000011529891     0.000001730036
      18       -0.000007890927    -0.000004909191     0.000001915883
      19        0.000001466641    -0.000000177568    -0.000003199589
      20        0.000005932983     0.000003870395    -0.000002036081

  **** Optimization is complete! (in 9 steps) ****
    Final optimized geometry and variables:
    Molecular point group: c1

    Geometry (in Angstrom), charge = 0, multiplicity = 1:

    H            3.304671973571    -1.023425367041     1.465173339069
    O            2.639460453285    -1.202453368940     0.807803860528
    C            1.893329191473    -0.107295045783     0.664810543917
    C            0.808194277050    -0.317703008910    -0.363464475300
    O            2.097922383162     0.878977514883     1.294323964296
    C           -0.089496963052     0.909871960228    -0.597003062682
    H            1.301272206333    -0.643242798415    -1.273678117215
    H            0.237907502689    -1.178306686324    -0.027358547245
    C           -1.555523553106     0.698201333287    -0.203062427213
    H           -0.040044571629     1.197865952970    -1.643082637179
    H            0.311061130761     1.741159441258    -0.031647989912
    C           -2.321586022751    -0.264024192765    -1.114567454639
    H           -2.058406259303     1.662380783041    -0.214548081279
    H           -1.603571689581     0.344665305507     0.825718475057
    C           -3.779148940997    -0.445935757551    -0.692000037435
    H           -2.285571762389     0.110465123119    -2.135539253478
    H           -1.832711368615    -1.235485482565    -1.130803234244
    H           -4.300740160882    -1.124739036319    -1.359518323901
    H           -4.310715258912     0.501318642177    -0.701510049649
    H           -3.848048790120    -0.852162020747     0.313156707474

  Mulliken Charges: (a.u.)
   Center  Symbol    Alpha    Beta     Spin     Total
       1     H     0.26759  0.26759  0.00000  0.46483
       2     O     4.34982  4.34982  0.00000 -0.69964
       3     C     2.62948  2.62948  0.00000  0.74105
       4     C     3.21313  3.21313  0.00000 -0.42627
       5     O     4.27841  4.27841  0.00000 -0.55682
       6     C     3.16524  3.16524  0.00000 -0.33047
       7     H     0.39485  0.39485  0.00000  0.21030
       8     H     0.39604  0.39604  0.00000  0.20792
       9     C     3.15578  3.15578  0.00000 -0.31157
      10     H     0.41820  0.41820  0.00000  0.16361
      11     H     0.39176  0.39176  0.00000  0.21648
      12     C     3.15378  3.15378  0.00000 -0.30756
      13     H     0.41863  0.41863  0.00000  0.16274
      14     H     0.42166  0.42166  0.00000  0.15667
      15     C     3.23918  3.23918  0.00000 -0.47836
      16     H     0.42237  0.42237  0.00000  0.15526
      17     H     0.42355  0.42355  0.00000  0.15289
      18     H     0.41871  0.41871  0.00000  0.16257
      19     H     0.42063  0.42063  0.00000  0.15874
      20     H     0.42119  0.42119  0.00000  0.15762

   Total alpha = 32.00000, Total beta = 32.00000, Total charge = -0.00000
