  ==> Input File <==

--------------------------------------------------------------------------
set {
	reference rhf
	basis 6-31G*
}

set_num_threads( 4 )
memory 2 gb

molecule MOL {
0 1

O	 -3.335737	 0.266654	 0.974714
C	 -2.668563	 0.129746	 -0.000350
C	 -3.078942	 0.601355	 -1.371642
O	 -1.481751	 -0.454642	 0.000584
H	 -3.255200	 1.669703	 -1.333844
H	 -2.328259	 0.379051	 -2.115613
H	 -4.014408	 0.124125	 -1.638166
C	 -0.334255	 0.388708	 0.000906
C	 0.891947	 -0.504646	 0.000751
H	 -0.365390	 1.025305	 -0.873475
H	 -0.365484	 1.024911	 0.875569
C	 2.191998	 0.301789	 0.000897
H	 0.855148	 -1.151283	 -0.871571
H	 0.855132	 -1.151660	 0.872805
C	 3.441114	 -0.581407	 0.000108
H	 2.215074	 0.954890	 -0.869742
H	 2.215465	 0.953923	 0.872248
C	 4.739576	 0.224112	 -0.001102
H	 3.419457	 -1.233487	 -0.870178
H	 3.420834	 -1.233096	 0.870717
H	 4.804918	 0.861552	 -0.878265
H	 5.606527	 -0.429058	 -0.001824
H	 4.806469	 0.861674	 0.875853

	symmetry c1
}
set optking {
	frozen_dihedral = ("
		1 2 4 8
	")
}

ee = optimize('scf')
oeprop('DIPOLE', 'QUADRUPOLE', 'MULLIKEN_CHARGES')
f=open( 'psi4out.xyz', 'w' )
f.write( "23  " )
f.write( str(ee) + "\n" )
f.write( MOL.save_string_xyz() )
f.close()
--------------------------------------------------------------------------

    Molecular point group: c1
  Charge       = 0
  Multiplicity = 1
  Basis Set: 6-31G*
  Basis Set:
  @DF-RHF Final Energy:  -422.95717182669051
    Total Energy =                       -422.9571718266909102
    Molecular point group: c1
  Basis Set: 6-31G*
  Basis Set:
  Basis Set: 6-31G*
  Basis Set:
  @DF-RHF Final Energy:  -422.95756964090958
    Total Energy =                       -422.9575696409101511
  Basis Set: 6-31G*
  Basis Set:
  Basis Set: 6-31G*
  Basis Set:
  @DF-RHF Final Energy:  -422.95857621359733
    Total Energy =                       -422.9585762135970981
  Basis Set: 6-31G*
  Basis Set:
  Basis Set: 6-31G*
  Basis Set:
  @DF-RHF Final Energy:  -422.95880170739036
    Total Energy =                       -422.9588017073904211
  Basis Set: 6-31G*
  Basis Set:
  Basis Set: 6-31G*
  Basis Set:
  @DF-RHF Final Energy:  -422.95881289024970
    Total Energy =                       -422.9588128902498738
  Basis Set: 6-31G*
  Basis Set:
  Basis Set: 6-31G*
  Basis Set:
  @DF-RHF Final Energy:  -422.95882113259796
    Total Energy =                       -422.9588211325977909
  Basis Set: 6-31G*
  Basis Set:
  Charge       = 0
  Multiplicity = 1
  Basis Set: 6-31G*
  Basis Set:

    Orbital Energies (a.u.)
    -----------------------

    Doubly Occupied:

       1A    -20.583350     2A    -20.552936     3A    -11.376928
       4A    -11.293701     5A    -11.237110     6A    -11.227519
       7A    -11.226894     8A    -11.223780     9A    -11.214901
      10A     -1.457294    11A     -1.366229    12A     -1.095338
      13A     -1.035555    14A     -1.008751    15A     -0.936006
      16A     -0.843436    17A     -0.805780    18A     -0.775593
      19A     -0.697987    20A     -0.687052    21A     -0.654213
      22A     -0.648371    23A     -0.619482    24A     -0.592143
      25A     -0.582609    26A     -0.578010    27A     -0.560861
      28A     -0.548702    29A     -0.516408    30A     -0.501948
      31A     -0.486733    32A     -0.479415    33A     -0.473993
      34A     -0.472570    35A     -0.453412    36A     -0.432935

  @DF-RHF Final Energy:  -422.95882194159640

   => Energetics <=

    Nuclear Repulsion Energy =            448.8817474727063654
    One-Electron Energy =               -1465.1852515416369442
    Two-Electron Energy =                 593.3446821273345222
    DFT Exchange-Correlation Energy =       0.0000000000000000
    Empirical Dispersion Energy =           0.0000000000000000
    PCM Polarization Energy =               0.0000000000000000
    EFP Energy =                            0.0000000000000000
    Total Energy =                       -422.9588219415960566
    Molecular point group: c1
  Basis Set: 6-31G*
  Basis Set:

  -Total Gradient:
     Atom            X                  Y                   Z
    ------   -----------------  -----------------  -----------------
       1        0.000056715645     0.000132453485     0.000022003959
       2       -0.000121877630    -0.000184521888     0.000077523016
       3       -0.000038525960    -0.000114944058    -0.000018252943
       4        0.000105834505     0.000109090172    -0.000231636975
       5        0.000031954103     0.000033145620    -0.000013754801
       6        0.000008760191     0.000003995761     0.000012830051
       7       -0.000001521638     0.000049175294     0.000022762925
       8       -0.000046283864    -0.000029387345     0.000118626227
       9        0.000021611413     0.000006928486    -0.000022197450
      10        0.000010932261     0.000014467561     0.000004668256
      11       -0.000030963776    -0.000004287579    -0.000009990768
      12       -0.000002802948    -0.000007077728     0.000016815496
      13       -0.000001697709    -0.000007322200     0.000000753354
      14        0.000007887762    -0.000001615768     0.000005311332
      15        0.000002254002    -0.000000365533     0.000011355986
      16       -0.000002051094     0.000003008068     0.000007766825
      17        0.000001317734    -0.000002399571     0.000006782311
      18       -0.000001125226     0.000000125417    -0.000016154273
      19       -0.000003618997    -0.000005563010     0.000003915289
      20        0.000003494489     0.000005169296     0.000004892593
      21        0.000001912747     0.000004929204     0.000000401538
      22       -0.000000412498    -0.000000344088    -0.000004824612
      23       -0.000001793508    -0.000004659597     0.000000402660

  **** Optimization is complete! (in 7 steps) ****
    Final optimized geometry and variables:
    Molecular point group: c1

    Geometry (in Angstrom), charge = 0, multiplicity = 1:

    O           -3.331840441643     0.230890831668     1.019553338040
    C           -2.698204895957     0.102021371877     0.030688987524
    C           -3.189788994659     0.557444286313    -1.325122418647
    O           -1.495634772949    -0.509342156537     0.035055918427
    H           -3.393818347200     1.621477179597    -1.295667628104
    H           -2.481487704387     0.340943213675    -2.112198249068
    H           -4.125367218823     0.053514510039    -1.537067759234
    C           -0.350210465363     0.328814005730     0.034100460922
    C            0.880469870998    -0.558003191295     0.038640993899
    H           -0.360405480173     0.967461716603    -0.845727881344
    H           -0.376281842730     0.962709361005     0.913995767509
    C            2.179992964201     0.248717368099     0.052357209927
    H            0.846795590026    -1.200702521584    -0.836414816225
    H            0.830986597775    -1.206175201469     0.908086205200
    C            3.428342152145    -0.635709072190     0.059157839137
    H            2.212255178439     0.905003452954    -0.815997666834
    H            2.196884298818     0.897111394226     0.926640043398
    C            4.727316248413     0.168830169055     0.070563122187
    H            3.412885181449    -1.285451965081    -0.812942826146
    H            3.399949074477    -1.289347336642     0.927814469142
    H            4.800526792695     0.808748810367    -0.804263551468
    H            5.593455247743    -0.485256875550     0.074837895194
    H            4.787954010713     0.803572631560     0.949995260692

  Mulliken Charges: (a.u.)
   Center  Symbol    Alpha    Beta     Spin     Total
       1     O     4.24740  4.24740  0.00000 -0.49480
       2     C     2.62682  2.62682  0.00000  0.74635
       3     C     3.29345  3.29345  0.00000 -0.58689
       4     O     4.32161  4.32161  0.00000 -0.64321
       5     H     0.39787  0.39787  0.00000  0.20426
       6     H     0.40551  0.40551  0.00000  0.18898
       7     H     0.39304  0.39304  0.00000  0.21392
       8     C     2.99663  2.99663  0.00000  0.00673
       9     C     3.16280  3.16280  0.00000 -0.32559
      10     H     0.42452  0.42452  0.00000  0.15095
      11     H     0.41291  0.41291  0.00000  0.17418
      12     C     3.16106  3.16106  0.00000 -0.32211
      13     H     0.41328  0.41328  0.00000  0.17344
      14     H     0.40802  0.40802  0.00000  0.18395
      15     C     3.15170  3.15170  0.00000 -0.30340
      16     H     0.42275  0.42275  0.00000  0.15449
      17     H     0.42038  0.42038  0.00000  0.15924
      18     C     3.24000  3.24000  0.00000 -0.47999
      19     H     0.42109  0.42109  0.00000  0.15783
      20     H     0.41979  0.41979  0.00000  0.16042
      21     H     0.42144  0.42144  0.00000  0.15713
      22     H     0.41731  0.41731  0.00000  0.16537
      23     H     0.42062  0.42062  0.00000  0.15876

   Total alpha = 36.00000, Total beta = 36.00000, Total charge = -0.00000
