  ==> Input File <==

--------------------------------------------------------------------------
set {
	reference rhf
	basis 6-31G*
}

set_num_threads( 1 )
memory 2 gb

molecule MOL {
0 1

O	 3.139681	 0.769770	 -0.943548
C	 2.655070	 -0.049185	 -0.231139
C	 1.205183	 -0.106779	 0.185153
O	 3.347903	 -1.046386	 0.304773
C	 0.362969	 1.015480	 -0.417612
H	 0.833407	 -1.087862	 -0.091342
H	 1.179482	 -0.074918	 1.271441
C	 -1.087142	 1.033067	 0.077730
H	 0.380858	 0.935344	 -1.500375
H	 0.830968	 1.964683	 -0.180099
C	 -1.930001	 -0.171696	 -0.350341
H	 -1.559868	 1.938222	 -0.296366
H	 -1.098354	 1.114014	 1.163700
C	 -3.395095	 -0.053964	 0.074674
H	 -1.877185	 -0.278701	 -1.432736
H	 -1.515653	 -1.086344	 0.067637
C	 -4.245800	 -1.254715	 -0.343216
H	 -3.821380	 0.852891	 -0.350918
H	 -3.448034	 0.063841	 1.155886
C	 -5.708339	 -1.127534	 0.081641
H	 -4.193213	 -1.374487	 -1.423277
H	 -3.823778	 -2.161617	 0.084811
H	 -6.285215	 -1.993325	 -0.228565
H	 -6.169412	 -0.247944	 -0.358732
H	 -5.796977	 -1.040527	 1.160921
C	 4.728119	 -1.109107	 -0.004993
H	 4.882018	 -1.033965	 -1.071845
H	 5.068212	 -2.067527	 0.355250
H	 5.265056	 -0.311663	 0.488280

	symmetry c1
}
set optking {
	frozen_dihedral = ("
		21 17 14 11,
		17 14 11 15,
		15 11 8 5,
		6 3 5 9,
		11 8 5 9,
		1 2 4 26,
		6 3 2 1
	")
}

ee = energy('scf')
oeprop('DIPOLE', 'QUADRUPOLE', 'MULLIKEN_CHARGES')
f=open( 'psi4out.xyz', 'w' )
f.write( "29  " )
f.write( str(ee) + "\n" )
f.write( MOL.save_string_xyz() )
f.close()
--------------------------------------------------------------------------

    Molecular point group: c1

    Geometry (in Angstrom), charge = 0, multiplicity = 1:

       Center              X                  Y                   Z               Mass
    ------------   -----------------  -----------------  -----------------  -----------------
           O          3.180954710931     0.973738128632    -0.800944428860    15.994914619560
           C          2.696343710931     0.154783128632    -0.088535428860    12.000000000000
           C          1.246456710931     0.097189128632     0.327756571140    12.000000000000
           O          3.389176710931    -0.842417871368     0.447376571140    15.994914619560
           C          0.404242710931     1.219448128632    -0.275008428860    12.000000000000
           H          0.874680710931    -0.883893871368     0.051261571140     1.007825032070
           H          1.220755710931     0.129050128632     1.414044571140     1.007825032070
           C         -1.045868289069     1.237035128632     0.220333571140    12.000000000000
           H          0.422131710931     1.139312128632    -1.357771428860     1.007825032070
           H          0.872241710931     2.168651128632    -0.037495428860     1.007825032070
           C         -1.888727289069     0.032272128632    -0.207737428860    12.000000000000
           H         -1.518594289069     2.142190128632    -0.153762428860     1.007825032070
           H         -1.057080289069     1.317982128632     1.306303571140     1.007825032070
           C         -3.353821289069     0.150004128632     0.217277571140    12.000000000000
           H         -1.835911289069    -0.074732871368    -1.290132428860     1.007825032070
           H         -1.474379289069    -0.882375871368     0.210240571140     1.007825032070
           C         -4.204526289069    -1.050746871368    -0.200612428860    12.000000000000
           H         -3.780106289069     1.056859128632    -0.208314428860     1.007825032070
           H         -3.406760289069     0.267809128632     1.298489571140     1.007825032070
           C         -5.667065289069    -0.923565871368     0.224244571140    12.000000000000
           H         -4.151939289069    -1.170518871368    -1.280673428860     1.007825032070
           H         -3.782504289069    -1.957648871368     0.227414571140     1.007825032070
           H         -6.243941289069    -1.789356871368    -0.085961428860     1.007825032070
           H         -6.128138289069    -0.043975871368    -0.216128428860     1.007825032070
           H         -5.755703289069    -0.836558871368     1.303524571140     1.007825032070
           C          4.769392710931    -0.905138871368     0.137610571140    12.000000000000
           H          4.923291710931    -0.829996871368    -0.929241428860     1.007825032070
           H          5.109485710931    -1.863558871368     0.497853571140     1.007825032070
           H          5.306329710931    -0.107694871368     0.630883571140     1.007825032070

  Charge       = 0
  Multiplicity = 1
  Basis Set: 6-31G*
  Basis Set:

    Orbital Energies (a.u.)
    -----------------------

    Doubly Occupied:

       1A    -20.603366     2A    -20.545120     3A    -11.372088
       4A    -11.280325     5A    -11.234777     6A    -11.219106
       7A    -11.217648     8A    -11.216010     9A    -11.215863
      10A    -11.214464    11A    -11.209077    12A     -1.469091
      13A     -1.362518    14A     -1.098089    15A     -1.066827
      16A     -1.019507    17A     -0.977185    18A     -0.928541
      19A     -0.861593    20A     -0.799267    21A     -0.790497
      22A     -0.763774    23A     -0.700962    24A     -0.682224
      25A     -0.672205    26A     -0.650866    27A     -0.628797
      28A     -0.604611    29A     -0.595175    30A     -0.580698
      31A     -0.566935    32A     -0.549452    33A     -0.532511
      34A     -0.529238    35A     -0.516443    36A     -0.511704
      37A     -0.496364    38A     -0.477837    39A     -0.470193
      40A     -0.462442    41A     -0.458898    42A     -0.455472
      43A     -0.441332    44A     -0.435312

  @DF-RHF Final Energy:  -501.04391186059115

   => Energetics <=

    Nuclear Repulsion Energy =            610.2010342265025429
    One-Electron Energy =               -1891.5211410857864394
    Two-Electron Energy =                 780.2761949986942227
    DFT Exchange-Correlation Energy =       0.0000000000000000
    Empirical Dispersion Energy =           0.0000000000000000
    PCM Polarization Energy =               0.0000000000000000
    EFP Energy =                            0.0000000000000000
    Total Energy =                       -501.0439118605896738

  Mulliken Charges: (a.u.)
   Center  Symbol    Alpha    Beta     Spin     Total
       1     O     4.28601  4.28601  0.00000 -0.57202
       2     C     2.60483  2.60483  0.00000  0.79033
       3     C     3.20978  3.20978  0.00000 -0.41957
       4     O     4.30744  4.30744  0.00000 -0.61489
       5     C     3.15378  3.15378  0.00000 -0.30756
       6     H     0.39881  0.39881  0.00000  0.20238
       7     H     0.40119  0.40119  0.00000  0.19761
       8     C     3.15663  3.15663  0.00000 -0.31326
       9     H     0.41309  0.41309  0.00000  0.17381
      10     H     0.40873  0.40873  0.00000  0.18255
      11     C     3.15507  3.15507  0.00000 -0.31014
      12     H     0.41822  0.41822  0.00000  0.16355
      13     H     0.42386  0.42386  0.00000  0.15228
      14     C     3.15029  3.15029  0.00000 -0.30059
      15     H     0.42261  0.42261  0.00000  0.15478
      16     H     0.42361  0.42361  0.00000  0.15278
      17     C     3.15146  3.15146  0.00000 -0.30292
      18     H     0.42332  0.42332  0.00000  0.15336
      19     H     0.42397  0.42397  0.00000  0.15206
      20     C     3.23935  3.23935  0.00000 -0.47871
      21     H     0.42280  0.42280  0.00000  0.15440
      22     H     0.42343  0.42343  0.00000  0.15314
      23     H     0.41923  0.41923  0.00000  0.16154
      24     H     0.42154  0.42154  0.00000  0.15692
      25     H     0.42183  0.42183  0.00000  0.15635
      26     C     3.09300  3.09300  0.00000 -0.18600
      27     H     0.40605  0.40605  0.00000  0.18790
      28     H     0.40879  0.40879  0.00000  0.18242
      29     H     0.41126  0.41126  0.00000  0.17748

   Total alpha = 44.00000, Total beta = 44.00000, Total charge =  0.00000
