  ==> Input File <==

--------------------------------------------------------------------------
set {
	reference rhf
	basis 6-31G*
}

set_num_threads( 4 )
memory 2 gb

molecule MOL {
0 1

O	 0.749854	 1.307668	 -0.000040
C	 0.576249	 0.131685	 -0.000108
C	 -0.766779	 -0.556801	 -0.000461
O	 1.568443	 -0.749345	 -0.000005
C	 -1.945214	 0.412366	 0.000161
H	 -0.796911	 -1.211249	 -0.867467
H	 -0.796854	 -1.212390	 0.865687
C	 -1.584424	 1.753704	 0.636724
H	 -2.777982	 -0.036955	 0.530453
H	 -2.283259	 0.565489	 -1.019081
H	 -1.272078	 1.630177	 1.669988
H	 -2.434897	 2.427513	 0.627809
H	 -0.772677	 2.239804	 0.102639
C	 2.886820	 -0.232538	 0.000322
H	 3.059106	 0.369571	 -0.880203
H	 3.540187	 -1.091012	 0.000050
H	 3.059019	 0.368956	 0.881266

	symmetry c1
}
set optking {
	frozen_dihedral = ("
		9 5 3 6
	")
}

ee = optimize('scf')
oeprop('DIPOLE', 'QUADRUPOLE', 'MULLIKEN_CHARGES')
f=open( 'psi4out.xyz', 'w' )
f.write( "17  " )
f.write( str(ee) + "\n" )
f.write( MOL.save_string_xyz() )
f.close()
--------------------------------------------------------------------------

    Molecular point group: c1
  Charge       = 0
  Multiplicity = 1
  Basis Set: 6-31G*
  Basis Set:
  @DF-RHF Final Energy:  -344.87851423900577
    Total Energy =                       -344.8785142390056535
    Molecular point group: c1
  Basis Set: 6-31G*
  Basis Set:
  Basis Set: 6-31G*
  Basis Set:
  @DF-RHF Final Energy:  -344.89398900898846
    Total Energy =                       -344.8939890089885125
  Basis Set: 6-31G*
  Basis Set:
  Basis Set: 6-31G*
  Basis Set:
  @DF-RHF Final Energy:  -344.89663713077323
    Total Energy =                       -344.8966371307735699
  Basis Set: 6-31G*
  Basis Set:
  Basis Set: 6-31G*
  Basis Set:
  @DF-RHF Final Energy:  -344.89244837056623
    Total Energy =                       -344.8924483705662283
  Basis Set: 6-31G*
  Basis Set:
  @DF-RHF Final Energy:  -344.89816464222565
    Total Energy =                       -344.8981646422256517
  @DF-RHF Final Energy:  -344.89899018838759
    Total Energy =                       -344.8989901883876428
  @DF-RHF Final Energy:  -344.89990921299523
    Total Energy =                       -344.8999092129954533
  @DF-RHF Final Energy:  -344.90023587785709
    Total Energy =                       -344.9002358778569715
  @DF-RHF Final Energy:  -344.90041037491881
    Total Energy =                       -344.9004103749184651
  @DF-RHF Final Energy:  -344.90046630533169
    Total Energy =                       -344.9004663053318609
  @DF-RHF Final Energy:  -344.90052067184382
    Total Energy =                       -344.9005206718436511
  @DF-RHF Final Energy:  -344.90054427580452
    Total Energy =                       -344.9005442758046343
  @DF-RHF Final Energy:  -344.90056146122134
    Total Energy =                       -344.9005614612215709
  @DF-RHF Final Energy:  -344.90060562686779
    Total Energy =                       -344.9006056268677867
  @DF-RHF Final Energy:  -344.90064983075439
    Total Energy =                       -344.9006498307546735
  @DF-RHF Final Energy:  -344.90068777668870
    Total Energy =                       -344.9006877766889829
  @DF-RHF Final Energy:  -344.90070772958404
    Total Energy =                       -344.9007077295840986
  @DF-RHF Final Energy:  -344.90069357263877
    Total Energy =                       -344.9006935726389429
  Basis Set: 6-31G*
  Basis Set:
  @DF-RHF Final Energy:  -344.90070972202085
    Total Energy =                       -344.9007097220206219
  Basis Set: 6-31G*
  Basis Set:
  Basis Set: 6-31G*
  Basis Set:
  @DF-RHF Final Energy:  -344.90071123678933
    Total Energy =                       -344.9007112367891636
  Basis Set: 6-31G*
  Basis Set:
  Basis Set: 6-31G*
  Basis Set:
  @DF-RHF Final Energy:  -344.90070948186741
    Total Energy =                       -344.9007094818674659
  Basis Set: 6-31G*
  Basis Set:
  Charge       = 0
  Multiplicity = 1
  Basis Set: 6-31G*
  Basis Set:

    Orbital Energies (a.u.)
    -----------------------

    Doubly Occupied:

       1A    -20.605955     2A    -20.541736     3A    -11.370993
       4A    -11.280874     5A    -11.234326     6A    -11.231955
       7A    -11.214240     8A     -1.469405     9A     -1.361059
      10A     -1.080092    11A     -0.997005    12A     -0.943201
      13A     -0.833839    14A     -0.768156    15A     -0.692467
      16A     -0.679586    17A     -0.671816    18A     -0.632060
      19A     -0.608928    20A     -0.576470    21A     -0.557184
      22A     -0.539011    23A     -0.526057    24A     -0.497329
      25A     -0.484149    26A     -0.483051    27A     -0.454040
      28A     -0.432031

  @DF-RHF Final Energy:  -344.90071151701051

   => Energetics <=

    Nuclear Repulsion Energy =            322.2707495597634875
    One-Electron Energy =               -1108.8088906254033645
    Two-Electron Energy =                 441.6374295486295409
    DFT Exchange-Correlation Energy =       0.0000000000000000
    Empirical Dispersion Energy =           0.0000000000000000
    PCM Polarization Energy =               0.0000000000000000
    EFP Energy =                            0.0000000000000000
    Total Energy =                       -344.9007115170102793
    Molecular point group: c1
  Basis Set: 6-31G*
  Basis Set:

  -Total Gradient:
     Atom            X                  Y                   Z
    ------   -----------------  -----------------  -----------------
       1        0.000005584595    -0.000016655073     0.000025964704
       2       -0.000063196986     0.000099983704    -0.000098150439
       3       -0.003759652638    -0.004990390627     0.004463053739
       4        0.000016409209    -0.000035353789     0.000020863244
       5       -0.002704962577     0.000045089697    -0.006838708963
       6        0.003452123969     0.004099236600    -0.002629614530
       7        0.000099907568     0.000009327982     0.000005276073
       8        0.000067927224    -0.000050562914     0.000006685296
       9        0.002883957488     0.000739387233     0.005008757188
      10       -0.000020538277     0.000065541167     0.000013901977
      11       -0.000003235863     0.000002272985     0.000001298872
      12        0.000003116344     0.000005535547    -0.000003665671
      13        0.000001045955     0.000012165784     0.000005606016
      14        0.000020819173     0.000018385053     0.000025957178
      15       -0.000011170220    -0.000004344844    -0.000002255017
      16        0.000006555242     0.000001721770    -0.000003814434
      17        0.000005309786    -0.000001340276    -0.000001155232

  **** Optimization is complete! (in 22 steps) ****
    Final optimized geometry and variables:
    Molecular point group: c1

    Geometry (in Angstrom), charge = 0, multiplicity = 1:

    O            0.634967658372     0.367569080390    -1.386506018403
    C            0.294138734194    -0.313356516256    -0.471804929306
    C           -1.107696413153    -0.848037762806    -0.288039088156
    O            1.111858044432    -0.674887572212     0.506462517928
    C           -2.111426587121     0.258289928591     0.115808445445
    H           -1.379826250002    -1.239772418905    -1.261192427541
    H           -1.094266584997    -1.648177226178     0.438785437351
    C           -1.534516192177     1.338866797501     1.036254945788
    H           -2.923092218929    -0.219856054517     0.654762749782
    H           -2.522129723962     0.721063918567    -0.773219047699
    H           -1.100518657597     0.903981581948     1.931707877543
    H           -2.317416287814     2.023432658653     1.346085397787
    H           -0.768185600256     1.922423941529     0.537856769311
    C            2.447103526752    -0.208065773318     0.432127546546
    H            2.922504527083    -0.561703212970    -0.471244416328
    H            2.947992254434    -0.607167544712     1.300277492483
    H            2.472812505392     0.871996551607     0.447751595515

  Mulliken Charges: (a.u.)
   Center  Symbol    Alpha    Beta     Spin     Total
       1     O     4.28701  4.28701  0.00000 -0.57402
       2     C     2.61573  2.61573  0.00000  0.76854
       3     C     3.19979  3.19979  0.00000 -0.39958
       4     O     4.30257  4.30257  0.00000 -0.60513
       5     C     3.15409  3.15409  0.00000 -0.30819
       6     H     0.39890  0.39890  0.00000  0.20220
       7     H     0.40150  0.40150  0.00000  0.19700
       8     C     3.25544  3.25544  0.00000 -0.51088
       9     H     0.41517  0.41517  0.00000  0.16966
      10     H     0.40898  0.40898  0.00000  0.18205
      11     H     0.41609  0.41609  0.00000  0.16782
      12     H     0.41529  0.41529  0.00000  0.16941
      13     H     0.41035  0.41035  0.00000  0.17930
      14     C     3.09334  3.09334  0.00000 -0.18667
      15     H     0.40821  0.40821  0.00000  0.18357
      16     H     0.40856  0.40856  0.00000  0.18288
      17     H     0.40898  0.40898  0.00000  0.18204

   Total alpha = 28.00000, Total beta = 28.00000, Total charge = -0.00000
