                              Psi4 1.0.54 Driver

  ==> Input File <==

--------------------------------------------------------------------------
set {
	reference rhf
	basis cc-pvtz
}

set_num_threads( 4 )
memory 2 gb

molecule MOL {
0 1

H	 -2.607882	 0.668574	 0.347673
O	 -2.313989	 -0.142475	 -0.025864
C	 -0.943808	 -0.065018	 -0.330000
H	 -0.812293	 -0.225641	 -1.398673
C	 -0.231030	 -1.182113	 0.407592
C	 -0.353797	 1.300461	 0.050970
H	 -0.312800	 -0.992012	 1.473041
H	 -0.738841	 -2.119564	 0.220514
C	 1.246176	 -1.268044	 -0.015480
H	 -0.539537	 2.008579	 -0.751815
H	 -0.889989	 1.662858	 0.920677
C	 1.153605	 1.231851	 0.356834
H	 1.823096	 -1.684665	 0.802361
H	 1.352335	 -1.958223	 -0.845114
C	 1.826409	 0.100723	 -0.416008
H	 1.622968	 2.181508	 0.128734
H	 1.301983	 1.066493	 1.419367
H	 2.897299	 0.112407	 -0.249665
H	 1.683458	 0.265621	 -1.480024

	symmetry c1
}
set optking {
	frozen_dihedral = ("
		1 2 3 4
	")
}

ee,wfn = optimize('scf', return_wfn=True)
oeprop( wfn, 'DIPOLE', 'QUADRUPOLE', 'MULLIKEN_CHARGES')
f=open( 'psi4out.xyz', 'w' )
f.write( "19  " )
f.write( str(ee) + "\n" )
f.write( MOL.save_string_xyz() )
f.close()
--------------------------------------------------------------------------

    Molecular point group: c1
  Charge       = 0
  Multiplicity = 1
  Basis Set: CC-PVTZ
  Basis Set:
  @DF-RHF Final Energy:  -309.16108798704050
    Total Energy =                       -309.1610879870402755
    Molecular point group: c1
  Basis Set: CC-PVTZ
  Basis Set:
  Basis Set: CC-PVTZ
  Basis Set:
  @DF-RHF Final Energy:  -309.16150067577331
    Total Energy =                       -309.1615006757730271
  Basis Set: CC-PVTZ
  Basis Set:
  Basis Set: CC-PVTZ
  Basis Set:
  @DF-RHF Final Energy:  -309.16160312179056
    Total Energy =                       -309.1616031217902218
  Basis Set: CC-PVTZ
  Basis Set:
  Charge       = 0
  Multiplicity = 1
  Basis Set: CC-PVTZ
  Basis Set:

    Orbital Energies (a.u.)
    -----------------------

    Doubly Occupied:

       1A    -20.540873     2A    -11.267207     3A    -11.220031
       4A    -11.218715     5A    -11.215318     6A    -11.213799
       7A    -11.206272     8A     -1.361404     9A     -1.111994
      10A     -1.005856    11A     -0.990275    12A     -0.847251
      13A     -0.841850    14A     -0.746234    15A     -0.677247
      16A     -0.669814    17A     -0.622020    18A     -0.605243
      19A     -0.582424    20A     -0.553938    21A     -0.529755
      22A     -0.521731    23A     -0.502853    24A     -0.487387
      25A     -0.470205    26A     -0.450610    27A     -0.428449
      28A     -0.412627

  @DF-RHF Final Energy:  -309.16160482587276

   => Energetics <=

    Nuclear Repulsion Energy =            331.9457579381609662
    One-Electron Energy =               -1077.6119558962179781
    Two-Electron Energy =                 436.5045931321844819
    DFT Exchange-Correlation Energy =       0.0000000000000000
    Empirical Dispersion Energy =           0.0000000000000000
    PCM Polarization Energy =               0.0000000000000000
    EFP Energy =                            0.0000000000000000
    Total Energy =                       -309.1616048258724732
    Molecular point group: c1
  Basis Set: CC-PVTZ
  Basis Set:

  -Total Gradient:
     Atom            X                  Y                   Z
    ------   -----------------  -----------------  -----------------
       1        0.000066333239    -0.000116206357     0.000240706928
       2       -0.000134310170     0.000050217727    -0.000298960973
       3       -0.000078581674     0.000263733497     0.000097250165
       4        0.000051079670    -0.000230685112     0.000101450788
       5       -0.000003166934    -0.000060826760    -0.000076358184
       6        0.000051498716     0.000007116056    -0.000048100739
       7       -0.000013825297     0.000019117000    -0.000041724258
       8       -0.000037504174    -0.000010005208     0.000018565956
       9       -0.000011890171     0.000029408663     0.000001562163
      10       -0.000001214144     0.000012864280     0.000004569201
      11       -0.000000562085    -0.000005958021    -0.000012304705
      12       -0.000010592882     0.000032370948    -0.000015336008
      13        0.000023415042     0.000005688422    -0.000001277222
      14        0.000009590270     0.000008007732     0.000013364498
      15        0.000050520364    -0.000014634101     0.000010132336
      16        0.000020221547     0.000008729396     0.000021033436
      17        0.000011967320    -0.000002571014    -0.000004087660
      18       -0.000003677935    -0.000001399044    -0.000012157965
      19        0.000010699290     0.000005031898     0.000001672242

  **** Optimization is complete! (in 4 steps) ****
    Final optimized geometry and variables:
    Molecular point group: c1

    Geometry (in Angstrom), charge = 0, multiplicity = 1:

    H           -2.637356416339     0.682300963851     0.304539050429
    O           -2.329920928338    -0.126052255426    -0.058868377437
    C           -0.946375557356    -0.065245773829    -0.311053406997
    H           -0.815512484478    -0.229304212307    -1.376815158047
    C           -0.226900774144    -1.180632134936     0.427951609807
    C           -0.349429140720     1.298376605654     0.055855845861
    H           -0.290181817284    -0.984032316045     1.494311566337
    H           -0.743118314647    -2.116508629163     0.255918701163
    C            1.242968816144    -1.277282096159    -0.018882424965
    H           -0.559144222827     2.005923509662    -0.739446711139
    H           -0.852229443305     1.668681421772     0.945918644479
    C            1.164744260601     1.227308266797     0.328436499866
    H            1.834163033034    -1.685862083965     0.792861495653
    H            1.332900677065    -1.976614711243    -0.842603303168
    C            1.818696759953     0.085759041164    -0.445540547370
    H            1.630172138549     2.173473529399     0.079342831809
    H            1.336359724235     1.073206196655     1.389051969864
    H            2.892343101092     0.097966298087    -0.298547738791
    H            1.656595260396     0.240129424457    -1.508032709888

  Mulliken Charges: (a.u.)
   Center  Symbol    Alpha    Beta     Spin     Total
       1     H     0.39228  0.39228  0.00000  0.21544
       2     O     4.20881  4.20881  0.00000 -0.41763
       3     C     2.92411  2.92411  0.00000  0.15178
       4     H     0.45457  0.45457  0.00000  0.09085
       5     C     3.09490  3.09490  0.00000 -0.18980
       6     C     3.12339  3.12339  0.00000 -0.24678
       7     H     0.45926  0.45926  0.00000  0.08149
       8     H     0.44130  0.44130  0.00000  0.11740
       9     C     3.11398  3.11398  0.00000 -0.22796
      10     H     0.44341  0.44341  0.00000  0.11318
      11     H     0.45722  0.45722  0.00000  0.08557
      12     C     3.10008  3.10008  0.00000 -0.20016
      13     H     0.44725  0.44725  0.00000  0.10550
      14     H     0.44684  0.44684  0.00000  0.10632
      15     C     3.10261  3.10261  0.00000 -0.20521
      16     H     0.44170  0.44170  0.00000  0.11659
      17     H     0.45262  0.45262  0.00000  0.09476
      18     H     0.44264  0.44264  0.00000  0.11471
      19     H     0.45302  0.45302  0.00000  0.09395

   Total alpha = 28.00000, Total beta = 28.00000, Total charge = -0.00000

*** Psi4 exiting successfully. Buy a developer a beer!
