                              Psi4 1.0.54 Driver

  ==> Input File <==

--------------------------------------------------------------------------
set {
	reference rhf
	basis cc-pvtz
}

set_num_threads( 4 )
memory 2 gb

molecule MOL {
0 1

H	 1.170833	 0.611776	 1.844674
O	 1.360308	 0.096639	 1.081008
C	 0.706474	 0.636793	 -0.025501
C	 -0.793473	 0.591216	 0.050087
H	 1.037643	 0.067037	 -0.885737
H	 1.018625	 1.665403	 -0.196444
C	 -1.534243	 -0.493009	 -0.013340
H	 -1.266611	 1.552628	 0.164437
H	 -1.101195	 -1.466332	 -0.144046
H	 -2.604242	 -0.437780	 0.050785

	symmetry c1
}
set optking {
	frozen_dihedral = ("
		5 3 4 7
	")
}

ee,wfn = optimize('scf', return_wfn=True)
oeprop( wfn, 'DIPOLE', 'QUADRUPOLE', 'MULLIKEN_CHARGES')
f=open( 'psi4out.xyz', 'w' )
f.write( "10  " )
f.write( str(ee) + "\n" )
f.write( MOL.save_string_xyz() )
f.close()
--------------------------------------------------------------------------

    Molecular point group: c1
  Charge       = 0
  Multiplicity = 1
  Basis Set: CC-PVTZ
  Basis Set:
  @DF-RHF Final Energy:  -191.99304039682082
    Total Energy =                       -191.9930403968208452
    Molecular point group: c1
  Basis Set: CC-PVTZ
  Basis Set:
  Basis Set: CC-PVTZ
  Basis Set:
  @DF-RHF Final Energy:  -191.99362890719433
    Total Energy =                       -191.9936289071941928
  Basis Set: CC-PVTZ
  Basis Set:
  Basis Set: CC-PVTZ
  Basis Set:
  @DF-RHF Final Energy:  -191.99373859602520
    Total Energy =                       -191.9937385960251106
  Basis Set: CC-PVTZ
  Basis Set:
  Basis Set: CC-PVTZ
  Basis Set:
  @DF-RHF Final Energy:  -191.99375703083075
    Total Energy =                       -191.9937570308308068
  Basis Set: CC-PVTZ
  Basis Set:
  Basis Set: CC-PVTZ
  Basis Set:
  @DF-RHF Final Energy:  -191.99377307543591
    Total Energy =                       -191.9937730754358540
  Basis Set: CC-PVTZ
  Basis Set:
  Basis Set: CC-PVTZ
  Basis Set:
  @DF-RHF Final Energy:  -191.99377595689882
    Total Energy =                       -191.9937759568989293
  Basis Set: CC-PVTZ
  Basis Set:
  Charge       = 0
  Multiplicity = 1
  Basis Set: CC-PVTZ
  Basis Set:

    Orbital Energies (a.u.)
    -----------------------

    Doubly Occupied:

       1A    -20.548846     2A    -11.274334     3A    -11.229383
       4A    -11.224687     5A     -1.366728     6A     -1.064188
       7A     -0.924867     8A     -0.780477     9A     -0.680832
      10A     -0.664337    11A     -0.609282    12A     -0.579245
      13A     -0.555864    14A     -0.477991    15A     -0.447844
      16A     -0.376348

  @DF-RHF Final Energy:  -191.99377609793379

   => Energetics <=

    Nuclear Repulsion Energy =            118.3949872219246373
    One-Electron Energy =                -495.1670158778534869
    Two-Electron Energy =                 184.7782525579951880
    DFT Exchange-Correlation Energy =       0.0000000000000000
    Empirical Dispersion Energy =           0.0000000000000000
    PCM Polarization Energy =               0.0000000000000000
    EFP Energy =                            0.0000000000000000
    Total Energy =                       -191.9937760979336758
    Molecular point group: c1
  Basis Set: CC-PVTZ
  Basis Set:

  -Total Gradient:
     Atom            X                  Y                   Z
    ------   -----------------  -----------------  -----------------
       1       -0.000003904424     0.000004453050    -0.000009532664
       2        0.000018993631    -0.000006413302     0.000010593871
       3        0.000000581341    -0.000265876616     0.000284497226
       4       -0.000039781621     0.000073594929    -0.000397928140
       5       -0.000003683475     0.000213433126    -0.000148737794
       6        0.000006255390    -0.000009256325     0.000013953562
       7        0.000013110972    -0.000012927693     0.000256667595
       8        0.000002949899     0.000002328845    -0.000001570375
       9        0.000004068785     0.000001832648    -0.000003499908
      10        0.000001409505    -0.000001168662    -0.000004443371

  **** Optimization is complete! (in 7 steps) ****
    Final optimized geometry and variables:
    Molecular point group: c1

    Geometry (in Angstrom), charge = 0, multiplicity = 1:

    H            0.997083410194     0.259031853834     1.542476835188
    O            1.344410994351    -0.122012223714     0.756273598429
    C            0.700739889620     0.424944594860    -0.364371923220
    C           -0.808763790681     0.398181022435    -0.266265680797
    H            1.028628661856    -0.164537406697    -1.209072726084
    H            1.035203818956     1.444093316935    -0.531871096829
    C           -1.523992586326    -0.704890203235    -0.296903600851
    H           -1.307744133509     1.344779789989    -0.146333888078
    H           -1.064484350354    -1.670137332306    -0.412648800501
    H           -2.593324778220    -0.684616508876    -0.201086921568

  Mulliken Charges: (a.u.)
   Center  Symbol    Alpha    Beta     Spin     Total
       1     H     0.39582  0.39582  0.00000  0.20837
       2     O     4.19795  4.19795  0.00000 -0.39590
       3     C     2.95190  2.95190  0.00000  0.09620
       4     C     3.10218  3.10218  0.00000 -0.20437
       5     H     0.45543  0.45543  0.00000  0.08914
       6     H     0.46837  0.46837  0.00000  0.06325
       7     C     3.16005  3.16005  0.00000 -0.32010
       8     H     0.41592  0.41592  0.00000  0.16816
       9     H     0.42628  0.42628  0.00000  0.14744
      10     H     0.42610  0.42610  0.00000  0.14781

   Total alpha = 16.00000, Total beta = 16.00000, Total charge = -0.00000

*** Psi4 exiting successfully. Buy a developer a beer!
