  ==> Input File <==

--------------------------------------------------------------------------
set {
	reference rhf
	basis 6-31G*
}

set_num_threads( 1 )
memory 2 gb

molecule MOL {
0 1

O	 1.214711	 1.306902	 -0.000018
C	 1.122059	 0.121804	 -0.000188
C	 -0.170150	 -0.657997	 -0.000612
O	 2.172624	 -0.688929	 0.000216
C	 -1.412532	 0.227344	 -0.000452
H	 -0.153702	 -1.313099	 -0.867402
H	 -0.153924	 -1.313811	 0.865644
C	 -1.395424	 1.253366	 -1.134627
H	 -1.489707	 0.736413	 0.955266
H	 -2.297180	 -0.396565	 -0.081920
C	 -2.637214	 2.143813	 -1.142667
H	 -0.506668	 1.875307	 -1.048728
H	 -1.315377	 0.738092	 -2.089696
H	 -2.726772	 2.699081	 -0.213522
H	 -2.599957	 2.862022	 -1.955726
H	 -3.541187	 1.553811	 -1.262548
C	 3.452279	 -0.082609	 0.000533
H	 3.583069	 0.529321	 -0.880332
H	 4.163299	 -0.894027	 0.001117
H	 3.582335	 0.529955	 0.881077

	symmetry c1
}
set optking {
	frozen_dihedral = ("
		9 5 8 12,
		1 2 3 6,
		1 2 4 17
	")
}

ee = energy('scf')
oeprop('DIPOLE', 'QUADRUPOLE', 'MULLIKEN_CHARGES')
f=open( 'psi4out.xyz', 'w' )
f.write( "20  " )
f.write( str(ee) + "\n" )
f.write( MOL.save_string_xyz() )
f.close()
--------------------------------------------------------------------------

    Molecular point group: c1

    Geometry (in Angstrom), charge = 0, multiplicity = 1:

       Center              X                  Y                   Z               Mass
    ------------   -----------------  -----------------  -----------------  -----------------
           O          0.885590478824     0.845001795274     0.284899933995    15.994914619560
           C          0.792938478824    -0.340096204726     0.284729933995    12.000000000000
           C         -0.499270521176    -1.119897204726     0.284305933995    12.000000000000
           O          1.843503478824    -1.150829204726     0.285133933995    15.994914619560
           C         -1.741652521176    -0.234556204726     0.284465933995    12.000000000000
           H         -0.482822521176    -1.774999204726    -0.582484066005     1.007825032070
           H         -0.483044521176    -1.775711204726     1.150561933995     1.007825032070
           C         -1.724544521176     0.791465795274    -0.849709066005    12.000000000000
           H         -1.818827521176     0.274512795274     1.240183933995     1.007825032070
           H         -2.626300521176    -0.858465204726     0.202997933995     1.007825032070
           C         -2.966334521176     1.681912795274    -0.857749066005    12.000000000000
           H         -0.835788521176     1.413406795274    -0.763810066005     1.007825032070
           H         -1.644497521176     0.276191795274    -1.804778066005     1.007825032070
           H         -3.055892521176     2.237180795274     0.071395933995     1.007825032070
           H         -2.929077521176     2.400121795274    -1.670808066005     1.007825032070
           H         -3.870307521176     1.091910795274    -0.977630066005     1.007825032070
           C          3.123158478824    -0.544509204726     0.285450933995    12.000000000000
           H          3.253948478824     0.067420795274    -0.595414066005     1.007825032070
           H          3.834178478824    -1.355927204726     0.286034933995     1.007825032070
           H          3.253214478824     0.068054795274     1.165994933995     1.007825032070

  Charge       = 0
  Multiplicity = 1
  Basis Set: 6-31G*
  Basis Set:

    Orbital Energies (a.u.)
    -----------------------

    Doubly Occupied:

       1A    -20.605947     2A    -20.547518     3A    -11.375241
       4A    -11.282439     5A    -11.236400     6A    -11.219112
       7A    -11.202148     8A    -11.201194     9A     -1.472284
      10A     -1.366866    11A     -1.085427    12A     -1.019227
      13A     -0.967887    14A     -0.881668    15A     -0.801738
      16A     -0.769713    17A     -0.700783    18A     -0.682514
      19A     -0.674350    20A     -0.632163    21A     -0.605423
      22A     -0.582959    23A     -0.575172    24A     -0.543016
      25A     -0.534619    26A     -0.518533    27A     -0.507145
      28A     -0.481662    29A     -0.467894    30A     -0.460260
      31A     -0.455542    32A     -0.423723

  @DF-RHF Final Energy:  -383.93550143425057

   => Energetics <=

    Nuclear Repulsion Energy =            392.7779728890731121
    One-Electron Energy =               -1301.6659540345210644
    Two-Electron Energy =                 524.9524797111964745
    DFT Exchange-Correlation Energy =       0.0000000000000000
    Empirical Dispersion Energy =           0.0000000000000000
    PCM Polarization Energy =               0.0000000000000000
    EFP Energy =                            0.0000000000000000
    Total Energy =                       -383.9355014342514778

  Mulliken Charges: (a.u.)
   Center  Symbol    Alpha    Beta     Spin     Total
       1     O     4.28659  4.28659  0.00000 -0.57317
       2     C     2.60399  2.60399  0.00000  0.79202
       3     C     3.21025  3.21025  0.00000 -0.42050
       4     O     4.30695  4.30695  0.00000 -0.61389
       5     C     3.15227  3.15227  0.00000 -0.30454
       6     H     0.39992  0.39992  0.00000  0.20017
       7     H     0.39785  0.39785  0.00000  0.20430
       8     C     3.16778  3.16778  0.00000 -0.33557
       9     H     0.41535  0.41535  0.00000  0.16930
      10     H     0.41821  0.41821  0.00000  0.16358
      11     C     3.23875  3.23875  0.00000 -0.47751
      12     H     0.38657  0.38657  0.00000  0.22685
      13     H     0.42966  0.42966  0.00000  0.14069
      14     H     0.42148  0.42148  0.00000  0.15704
      15     H     0.41974  0.41974  0.00000  0.16053
      16     H     0.42618  0.42618  0.00000  0.14763
      17     C     3.09260  3.09260  0.00000 -0.18520
      18     H     0.40905  0.40905  0.00000  0.18190
      19     H     0.40799  0.40799  0.00000  0.18402
      20     H     0.40883  0.40883  0.00000  0.18235

   Total alpha = 32.00000, Total beta = 32.00000, Total charge = -0.00000
