  ==> Input File <==

--------------------------------------------------------------------------
set {
	reference rhf
	basis 6-31G*
}

set_num_threads( 1 )
memory 2 gb

molecule MOL {
0 1

H	 -3.420663	 1.227371	 -1.044276
O	 -3.452007	 0.283848	 -0.965577
C	 -3.181085	 -0.079926	 0.364119
C	 -1.765924	 0.277073	 0.805136
H	 -3.327791	 -1.152017	 0.410903
H	 -3.905698	 0.375695	 1.036898
C	 -0.677594	 -0.417312	 -0.014550
H	 -1.637766	 1.358238	 0.744969
H	 -1.659588	 0.017670	 1.857098
C	 0.738335	 -0.034840	 0.421385
H	 -0.814977	 -0.178223	 -1.064632
H	 -0.802730	 -1.495410	 0.071702
C	 1.393079	 0.983200	 -0.516159
H	 0.701811	 0.361745	 1.433218
H	 1.357576	 -0.929888	 0.466468
C	 2.845651	 1.331449	 -0.171321
H	 0.798859	 1.895596	 -0.527624
H	 1.364100	 0.590740	 -1.530532
C	 3.025045	 2.065135	 1.159065
H	 3.249314	 1.951692	 -0.967967
H	 3.441893	 0.421142	 -0.164941
H	 2.429970	 2.974131	 1.186445
H	 4.063180	 2.346514	 1.307182
H	 2.731247	 1.451767	 2.004420

	symmetry c1
}
set optking {
	frozen_dihedral = ("
		20 16 13 17,
		17 13 10 7,
		11 7 4 3,
		1 2 3 5,
		7 4 3 2
	")
}

ee = energy('scf')
oeprop('DIPOLE', 'QUADRUPOLE', 'MULLIKEN_CHARGES')
f=open( 'psi4out.xyz', 'w' )
f.write( "24  " )
f.write( str(ee) + "\n" )
f.write( MOL.save_string_xyz() )
f.close()
--------------------------------------------------------------------------

    Molecular point group: c1

    Geometry (in Angstrom), charge = 0, multiplicity = 1:

       Center              X                  Y                   Z               Mass
    ------------   -----------------  -----------------  -----------------  -----------------
           H         -3.230515188896     0.664660508536    -1.168181756917     1.007825032070
           O         -3.261859188896    -0.278862491464    -1.089482756917    15.994914619560
           C         -2.990937188896    -0.642636491464     0.240213243083    12.000000000000
           C         -1.575776188896    -0.285637491464     0.681230243083    12.000000000000
           H         -3.137643188896    -1.714727491464     0.286997243083     1.007825032070
           H         -3.715550188896    -0.187015491464     0.912992243083     1.007825032070
           C         -0.487446188896    -0.980022491464    -0.138455756917    12.000000000000
           H         -1.447618188896     0.795527508536     0.621063243083     1.007825032070
           H         -1.469440188896    -0.545040491464     1.733192243083     1.007825032070
           C          0.928482811104    -0.597550491464     0.297479243083    12.000000000000
           H         -0.624829188896    -0.740933491464    -1.188537756917     1.007825032070
           H         -0.612582188896    -2.058120491464    -0.052203756917     1.007825032070
           C          1.583226811104     0.420489508536    -0.640064756917    12.000000000000
           H          0.891958811104    -0.200965491464     1.309312243083     1.007825032070
           H          1.547723811104    -1.492598491464     0.342562243083     1.007825032070
           C          3.035798811104     0.768738508536    -0.295226756917    12.000000000000
           H          0.989006811104     1.332885508536    -0.651529756917     1.007825032070
           H          1.554247811104     0.028029508536    -1.654437756917     1.007825032070
           C          3.215192811104     1.502424508536     1.035159243083    12.000000000000
           H          3.439461811104     1.388981508536    -1.091872756917     1.007825032070
           H          3.632040811104    -0.141568491464    -0.288846756917     1.007825032070
           H          2.620117811104     2.411420508536     1.062539243083     1.007825032070
           H          4.253327811104     1.783803508536     1.183276243083     1.007825032070
           H          2.921394811104     0.889056508536     1.880514243083     1.007825032070

  Charge       = 0
  Multiplicity = 1
  Basis Set: 6-31G*
  Basis Set:

    Orbital Energies (a.u.)
    -----------------------

    Doubly Occupied:

       1A    -20.553418     2A    -11.267310     3A    -11.217611
       4A    -11.214334     5A    -11.212780     6A    -11.211011
       7A    -11.209768     8A    -11.207981     9A     -1.359983
      10A     -1.089441    11A     -1.047796    12A     -0.985272
      13A     -0.915316    14A     -0.851288    15A     -0.803833
      16A     -0.775002    17A     -0.680100    18A     -0.641557
      19A     -0.633118    20A     -0.614924    21A     -0.601366
      22A     -0.586729    23A     -0.561778    24A     -0.537242
      25A     -0.519151    26A     -0.510774    27A     -0.495430
      28A     -0.479243    29A     -0.466833    30A     -0.459424
      31A     -0.453284    32A     -0.444975    33A     -0.419169

  @DF-RHF Final Energy:  -349.24287915435917

   => Energetics <=

    Nuclear Repulsion Energy =            388.5122502843288999
    One-Electron Energy =               -1243.4557580642945140
    Two-Electron Energy =                 505.7006286256059866
    DFT Exchange-Correlation Energy =       0.0000000000000000
    Empirical Dispersion Energy =           0.0000000000000000
    PCM Polarization Energy =               0.0000000000000000
    EFP Energy =                            0.0000000000000000
    Total Energy =                       -349.2428791543595707

  Mulliken Charges: (a.u.)
   Center  Symbol    Alpha    Beta     Spin     Total
       1     H     0.28340  0.28340  0.00000  0.43321
       2     O     4.36829  4.36829  0.00000 -0.73659
       3     C     2.99643  2.99643  0.00000  0.00714
       4     C     3.17061  3.17061  0.00000 -0.34122
       5     H     0.41631  0.41631  0.00000  0.16738
       6     H     0.42840  0.42840  0.00000  0.14320
       7     C     3.15509  3.15509  0.00000 -0.31018
       8     H     0.42793  0.42793  0.00000  0.14415
       9     H     0.42191  0.42191  0.00000  0.15617
      10     C     3.15705  3.15705  0.00000 -0.31411
      11     H     0.40986  0.40986  0.00000  0.18028
      12     H     0.42115  0.42115  0.00000  0.15770
      13     C     3.15358  3.15358  0.00000 -0.30717
      14     H     0.42107  0.42107  0.00000  0.15786
      15     H     0.42130  0.42130  0.00000  0.15740
      16     C     3.15258  3.15258  0.00000 -0.30517
      17     H     0.42638  0.42638  0.00000  0.14725
      18     H     0.42052  0.42052  0.00000  0.15896
      19     C     3.24098  3.24098  0.00000 -0.48195
      20     H     0.42140  0.42140  0.00000  0.15721
      21     H     0.42312  0.42312  0.00000  0.15377
      22     H     0.42317  0.42317  0.00000  0.15366
      23     H     0.41937  0.41937  0.00000  0.16127
      24     H     0.42012  0.42012  0.00000  0.15977

   Total alpha = 33.00000, Total beta = 33.00000, Total charge =  0.00000
