  ==> Input File <==

--------------------------------------------------------------------------
set {
	reference rhf
	basis cc-pvtz
}

set_num_threads( 4 )
memory 2 gb

molecule MOL {
0 1

H	 -1.835082	 1.385983	 0.000069
C	 -1.300516	 0.441153	 -0.000028
O	 -0.006604	 0.654344	 -0.000106
O	 -1.828920	 -0.612308	 0.000113
C	 0.611373	 0.978016	 -1.242347
C	 2.086584	 1.174861	 -0.986012
H	 0.152191	 1.872669	 -1.638209
H	 0.431602	 0.174042	 -1.941826
H	 2.251350	 1.979952	 -0.281278
H	 2.587588	 1.423137	 -1.914024
H	 2.532164	 0.272790	 -0.586392

	symmetry c1
}
set optking {
	frozen_dihedral = ("
		5 3 2 4
	")
}

ee = optimize('scf')
oeprop('DIPOLE', 'QUADRUPOLE', 'MULLIKEN_CHARGES')
f=open( 'psi4out.xyz', 'w' )
f.write( "11  " )
f.write( str(ee) + "\n" )
f.write( MOL.save_string_xyz() )
f.close()
--------------------------------------------------------------------------

    Molecular point group: c1
  Charge       = 0
  Multiplicity = 1
  Basis Set: CC-PVTZ
  Basis Set:
  @DF-RHF Final Energy:  -266.91204154010563
    Total Energy =                       -266.9120415401052924
    Molecular point group: c1
  Basis Set: CC-PVTZ
  Basis Set:
  Basis Set: CC-PVTZ
  Basis Set:
  @DF-RHF Final Energy:  -266.91307441243328
    Total Energy =                       -266.9130744124332182
  Basis Set: CC-PVTZ
  Basis Set:
  Basis Set: CC-PVTZ
  Basis Set:
  @DF-RHF Final Energy:  -266.91178405885853
    Total Energy =                       -266.9117840588585295
  Basis Set: CC-PVTZ
  Basis Set:
  Basis Set: CC-PVTZ
  Basis Set:
  @DF-RHF Final Energy:  -266.91336078208724
    Total Energy =                       -266.9133607820872385
  Basis Set: CC-PVTZ
  Basis Set:
  Basis Set: CC-PVTZ
  Basis Set:
  @DF-RHF Final Energy:  -266.91338367039907
    Total Energy =                       -266.9133836703990141
  Basis Set: CC-PVTZ
  Basis Set:
  Basis Set: CC-PVTZ
  Basis Set:
  @DF-RHF Final Energy:  -266.91338493149487
    Total Energy =                       -266.9133849314949316
  Basis Set: CC-PVTZ
  Basis Set:
  Charge       = 0
  Multiplicity = 1
  Basis Set: CC-PVTZ
  Basis Set:

    Orbital Energies (a.u.)
    -----------------------

    Doubly Occupied:

       1A    -20.586808     2A    -20.560332     3A    -11.373888
       4A    -11.300950     5A    -11.227889     6A     -1.470712
       7A     -1.383306     8A     -1.050323     9A     -0.887550
      10A     -0.832504    11A     -0.743644    12A     -0.693697
      13A     -0.650753    14A     -0.641047    15A     -0.565368
      16A     -0.543433    17A     -0.537496    18A     -0.507849
      19A     -0.467916    20A     -0.457394

  @DF-RHF Final Energy:  -266.91338671006724

   => Energetics <=

    Nuclear Repulsion Energy =            177.2337500125453289
    One-Electron Energy =                -715.3285608497508292
    Two-Electron Energy =                 271.1814241271380297
    DFT Exchange-Correlation Energy =       0.0000000000000000
    Empirical Dispersion Energy =           0.0000000000000000
    PCM Polarization Energy =               0.0000000000000000
    EFP Energy =                            0.0000000000000000
    Total Energy =                       -266.9133867100674706
    Molecular point group: c1
  Basis Set: CC-PVTZ
  Basis Set:

  -Total Gradient:
     Atom            X                  Y                   Z
    ------   -----------------  -----------------  -----------------
       1       -0.000018188161    -0.000021134936     0.000013671632
       2        0.000036290450    -0.000951504792     0.002948378589
       3       -0.000180883175     0.002359484382    -0.000551368175
       4       -0.000013985217     0.000159755744    -0.002099234652
       5        0.000167454629    -0.001546411059    -0.000295399629
       6        0.000018493415    -0.000000181919    -0.000014065044
       7       -0.000000310511     0.000008700378    -0.000015242775
       8       -0.000006190942    -0.000005677519     0.000014530884
       9       -0.000005600021    -0.000001630751    -0.000001256157
      10        0.000003851495    -0.000001130199    -0.000001002257
      11       -0.000000931963    -0.000000269331     0.000000987586

  **** Optimization is complete! (in 7 steps) ****
    Final optimized geometry and variables:
    Molecular point group: c1

    Geometry (in Angstrom), charge = 0, multiplicity = 1:

    H           -1.764491704112     0.879732109370     0.499096021267
    C           -1.224514339213    -0.065985449819     0.451483712078
    O            0.102952483317     0.085666172196     0.465470998423
    O           -1.767353543170    -1.102251401305     0.405464205384
    C            0.705649583060     0.428338733520    -0.774031745713
    C            2.178688338835     0.659171734114    -0.536797199329
    H            0.234621494861     1.323127260888    -1.171441719609
    H            0.544929548860    -0.381338407310    -1.475393613609
    H            2.329986093522     1.470079483500     0.163876805786
    H            2.666331741341     0.912473207237    -1.470655397580
    H            2.640640427334    -0.233251733240    -0.135779333725

  Mulliken Charges: (a.u.)
   Center  Symbol    Alpha    Beta     Spin     Total
       1     H     0.46753  0.46753  0.00000  0.06495
       2     C     2.83883  2.83883  0.00000  0.32234
       3     O     4.15614  4.15614  0.00000 -0.31228
       4     O     4.16260  4.16260  0.00000 -0.32519
       5     C     2.96840  2.96840  0.00000  0.06320
       6     C     3.13365  3.13365  0.00000 -0.26730
       7     H     0.46649  0.46649  0.00000  0.06702
       8     H     0.45539  0.45539  0.00000  0.08921
       9     H     0.44955  0.44955  0.00000  0.10090
      10     H     0.45580  0.45580  0.00000  0.08840
      11     H     0.44562  0.44562  0.00000  0.10876

   Total alpha = 20.00000, Total beta = 20.00000, Total charge = -0.00000
