  ==> Input File <==

--------------------------------------------------------------------------
set {
	reference rhf
	basis 6-31G*
}

set_num_threads( 1 )
memory 2 gb

molecule MOL {
0 1

O	 3.225979	 0.970355	 -0.599647
C	 2.701189	 0.057885	 -0.047330
C	 1.245376	 -0.013843	 0.345420
O	 3.347903	 -1.046386	 0.304773
C	 0.455112	 1.231400	 -0.050772
H	 0.838542	 -0.913825	 -0.103701
H	 1.208210	 -0.175333	 1.419774
C	 -0.998893	 1.219485	 0.433193
H	 0.482531	 1.345121	 -1.130325
H	 0.957290	 2.103070	 0.354729
C	 -1.358899	 0.060077	 1.366617
H	 -1.644432	 1.174998	 -0.440893
H	 -1.224507	 2.163735	 0.926649
C	 -2.844190	 0.030174	 1.732697
H	 -1.087148	 -0.880522	 0.889916
H	 -0.773095	 0.119531	 2.281095
C	 -3.214541	 -1.121227	 2.669313
H	 -3.437559	 -0.042790	 0.822849
H	 -3.119040	 0.974650	 2.199733
C	 -4.700198	 -1.146204	 3.026943
H	 -2.939642	 -2.065737	 2.204583
H	 -2.625590	 -1.047522	 3.581171
H	 -4.931382	 -1.972903	 3.691569
H	 -5.315572	 -1.254395	 2.138233
H	 -4.999126	 -0.228056	 3.524860
C	 4.728119	 -1.109107	 -0.004993
H	 4.882018	 -1.033965	 -1.071845
H	 5.068212	 -2.067527	 0.355250
H	 5.265056	 -0.311663	 0.488280

	symmetry c1
}
set optking {
	frozen_dihedral = ("
		21 17 14 11,
		17 14 11 15,
		15 11 8 5,
		6 3 5 9,
		2 4 26 27,
		1 2 4 26,
		6 3 2 1
	")
}

ee = energy('scf')
oeprop('DIPOLE', 'QUADRUPOLE', 'MULLIKEN_CHARGES')
f=open( 'psi4out.xyz', 'w' )
f.write( "29  " )
f.write( str(ee) + "\n" )
f.write( MOL.save_string_xyz() )
f.close()
--------------------------------------------------------------------------

    Molecular point group: c1

    Geometry (in Angstrom), charge = 0, multiplicity = 1:

       Center              X                  Y                   Z               Mass
    ------------   -----------------  -----------------  -----------------  -----------------
           O          2.948957936002     1.064313666138    -1.429604107232    15.994914619560
           C          2.424167936002     0.151843666138    -0.877287107232    12.000000000000
           C          0.968354936002     0.080115666138    -0.484537107232    12.000000000000
           O          3.070881936002    -0.952427333862    -0.525184107232    15.994914619560
           C          0.178090936002     1.325358666138    -0.880729107232    12.000000000000
           H          0.561520936002    -0.819866333862    -0.933658107232     1.007825032070
           H          0.931188936002    -0.081374333862     0.589816892768     1.007825032070
           C         -1.275914063998     1.313443666138    -0.396764107232    12.000000000000
           H          0.205509936002     1.439079666138    -1.960282107232     1.007825032070
           H          0.680268936002     2.197028666138    -0.475228107232     1.007825032070
           C         -1.635920063998     0.154035666138     0.536659892768    12.000000000000
           H         -1.921453063998     1.268956666138    -1.270850107232     1.007825032070
           H         -1.501528063998     2.257693666138     0.096691892768     1.007825032070
           C         -3.121211063998     0.124132666138     0.902739892768    12.000000000000
           H         -1.364169063998    -0.786563333862     0.059958892768     1.007825032070
           H         -1.050116063998     0.213489666138     1.451137892768     1.007825032070
           C         -3.491562063998    -1.027268333862     1.839355892768    12.000000000000
           H         -3.714580063998     0.051168666138    -0.007108107232     1.007825032070
           H         -3.396061063998     1.068608666138     1.369775892768     1.007825032070
           C         -4.977219063998    -1.052245333862     2.196985892768    12.000000000000
           H         -3.216663063998    -1.971778333862     1.374625892768     1.007825032070
           H         -2.902611063998    -0.953563333862     2.751213892768     1.007825032070
           H         -5.208403063998    -1.878944333862     2.861611892768     1.007825032070
           H         -5.592593063998    -1.160436333862     1.308275892768     1.007825032070
           H         -5.276147063998    -0.134097333862     2.694902892768     1.007825032070
           C          4.451097936002    -1.015148333862    -0.834950107232    12.000000000000
           H          4.604996936002    -0.940006333862    -1.901802107232     1.007825032070
           H          4.791190936002    -1.973568333862    -0.474707107232     1.007825032070
           H          4.988034936002    -0.217704333862    -0.341677107232     1.007825032070

  Charge       = 0
  Multiplicity = 1
  Basis Set: 6-31G*
  Basis Set:

    Orbital Energies (a.u.)
    -----------------------

    Doubly Occupied:

       1A    -20.602792     2A    -20.544178     3A    -11.370759
       4A    -11.280297     5A    -11.233725     6A    -11.217536
       7A    -11.216891     8A    -11.216170     9A    -11.215952
      10A    -11.214406    11A    -11.209316    12A     -1.468333
      13A     -1.361675    14A     -1.100347    15A     -1.065924
      16A     -1.017869    17A     -0.976306    18A     -0.929225
      19A     -0.866154    20A     -0.798557    21A     -0.792339
      22A     -0.757067    23A     -0.699014    24A     -0.683468
      25A     -0.669947    26A     -0.658515    27A     -0.629774
      28A     -0.604042    29A     -0.589240    30A     -0.578715
      31A     -0.568729    32A     -0.554443    33A     -0.531339
      34A     -0.525581    35A     -0.521141    36A     -0.511538
      37A     -0.502628    38A     -0.480248    39A     -0.467618
      40A     -0.460003    41A     -0.456561    42A     -0.447823
      43A     -0.439725    44A     -0.436096

  @DF-RHF Final Energy:  -501.03357318786038

   => Energetics <=

    Nuclear Repulsion Energy =            616.7198136973906912
    One-Electron Energy =               -1904.5626465202201416
    Two-Electron Energy =                 786.8092596349681571
    DFT Exchange-Correlation Energy =       0.0000000000000000
    Empirical Dispersion Energy =           0.0000000000000000
    PCM Polarization Energy =               0.0000000000000000
    EFP Energy =                            0.0000000000000000
    Total Energy =                       -501.0335731878612933

  Mulliken Charges: (a.u.)
   Center  Symbol    Alpha    Beta     Spin     Total
       1     O     4.28613  4.28613  0.00000 -0.57227
       2     C     2.60274  2.60274  0.00000  0.79452
       3     C     3.21609  3.21609  0.00000 -0.43218
       4     O     4.30748  4.30748  0.00000 -0.61496
       5     C     3.15535  3.15535  0.00000 -0.31071
       6     H     0.39965  0.39965  0.00000  0.20070
       7     H     0.39822  0.39822  0.00000  0.20356
       8     C     3.15682  3.15682  0.00000 -0.31364
       9     H     0.41010  0.41010  0.00000  0.17980
      10     H     0.40875  0.40875  0.00000  0.18249
      11     C     3.16062  3.16062  0.00000 -0.32123
      12     H     0.41999  0.41999  0.00000  0.16002
      13     H     0.41810  0.41810  0.00000  0.16380
      14     C     3.14819  3.14819  0.00000 -0.29638
      15     H     0.42236  0.42236  0.00000  0.15528
      16     H     0.42282  0.42282  0.00000  0.15436
      17     C     3.15148  3.15148  0.00000 -0.30295
      18     H     0.42369  0.42369  0.00000  0.15263
      19     H     0.42364  0.42364  0.00000  0.15273
      20     C     3.23932  3.23932  0.00000 -0.47864
      21     H     0.42334  0.42334  0.00000  0.15332
      22     H     0.42336  0.42336  0.00000  0.15327
      23     H     0.41924  0.41924  0.00000  0.16152
      24     H     0.42167  0.42167  0.00000  0.15665
      25     H     0.42159  0.42159  0.00000  0.15681
      26     C     3.09227  3.09227  0.00000 -0.18454
      27     H     0.40917  0.40917  0.00000  0.18166
      28     H     0.40860  0.40860  0.00000  0.18281
      29     H     0.40922  0.40922  0.00000  0.18157

   Total alpha = 44.00000, Total beta = 44.00000, Total charge =  0.00000
