  ==> Input File <==

--------------------------------------------------------------------------
set {
	reference rhf
	basis 6-31G*
}

set_num_threads( 4 )
memory 2 gb

molecule MOL {
0 1

O	 0.749854	 1.307668	 -0.000040
C	 0.576249	 0.131685	 -0.000108
C	 -0.766779	 -0.556801	 -0.000461
O	 1.568443	 -0.749345	 -0.000005
C	 -1.945214	 0.412366	 0.000161
H	 -0.796911	 -1.211249	 -0.867467
H	 -0.796854	 -1.212390	 0.865687
C	 -2.283726	 0.904716	 -1.406100
H	 -1.714763	 1.255770	 0.642161
H	 -2.809034	 -0.074750	 0.439601
H	 -1.442823	 1.424827	 -1.856455
H	 -3.122896	 1.592248	 -1.383852
H	 -2.550308	 0.079726	 -2.060927
C	 2.886820	 -0.232538	 0.000322
H	 3.059106	 0.369571	 -0.880203
H	 3.540187	 -1.091012	 0.000050
H	 3.059019	 0.368956	 0.881266

	symmetry c1
}
set optking {
	frozen_dihedral = ("
		9 5 3 6
	")
}

ee = optimize('scf')
oeprop('DIPOLE', 'QUADRUPOLE', 'MULLIKEN_CHARGES')
f=open( 'psi4out.xyz', 'w' )
f.write( "17  " )
f.write( str(ee) + "\n" )
f.write( MOL.save_string_xyz() )
f.close()
--------------------------------------------------------------------------

    Molecular point group: c1
  Charge       = 0
  Multiplicity = 1
  Basis Set: 6-31G*
  Basis Set:
  @DF-RHF Final Energy:  -344.90545836641149
    Total Energy =                       -344.9054583664110396
    Molecular point group: c1
  Basis Set: 6-31G*
  Basis Set:
  Basis Set: 6-31G*
  Basis Set:
  @DF-RHF Final Energy:  -344.90568898927131
    Total Energy =                       -344.9056889892716526
  Basis Set: 6-31G*
  Basis Set:
  Basis Set: 6-31G*
  Basis Set:
  @DF-RHF Final Energy:  -344.90545203248229
    Total Energy =                       -344.9054520324823443
  Basis Set: 6-31G*
  Basis Set:
  Basis Set: 6-31G*
  Basis Set:
  @DF-RHF Final Energy:  -344.90573032213473
    Total Energy =                       -344.9057303221346160
  Basis Set: 6-31G*
  Basis Set:
  Basis Set: 6-31G*
  Basis Set:
  @DF-RHF Final Energy:  -344.90573226807783
    Total Energy =                       -344.9057322680778839
  Basis Set: 6-31G*
  Basis Set:
  Basis Set: 6-31G*
  Basis Set:
  @DF-RHF Final Energy:  -344.90573426680794
    Total Energy =                       -344.9057342668081105
  Basis Set: 6-31G*
  Basis Set:
  Charge       = 0
  Multiplicity = 1
  Basis Set: 6-31G*
  Basis Set:

    Orbital Energies (a.u.)
    -----------------------

    Doubly Occupied:

       1A    -20.604737     2A    -20.546793     3A    -11.373385
       4A    -11.281620     5A    -11.236102     6A    -11.221301
       7A    -11.208557     8A     -1.470583     9A     -1.363907
      10A     -1.078804    11A     -0.999841    12A     -0.937977
      13A     -0.828633    14A     -0.766192    15A     -0.701783
      16A     -0.682133    17A     -0.672251    18A     -0.618202
      19A     -0.615821    20A     -0.567353    21A     -0.565973
      22A     -0.533879    23A     -0.523785    24A     -0.487441
      25A     -0.482957    26A     -0.481562    27A     -0.457161
      28A     -0.438139

  @DF-RHF Final Energy:  -344.90573507404252

   => Energetics <=

    Nuclear Repulsion Energy =            317.2558950385520689
    One-Electron Energy =               -1098.8295221045807466
    Two-Electron Energy =                 436.6678919919864938
    DFT Exchange-Correlation Energy =       0.0000000000000000
    Empirical Dispersion Energy =           0.0000000000000000
    PCM Polarization Energy =               0.0000000000000000
    EFP Energy =                            0.0000000000000000
    Total Energy =                       -344.9057350740421271
    Molecular point group: c1
  Basis Set: 6-31G*
  Basis Set:

  -Total Gradient:
     Atom            X                  Y                   Z
    ------   -----------------  -----------------  -----------------
       1       -0.000052577856    -0.000022314113    -0.000007931459
       2        0.000045547778     0.000064156843    -0.000024994025
       3       -0.001722870242    -0.002056435301     0.001305506552
       4       -0.000006342114    -0.000013543229     0.000004284581
       5       -0.000962975281    -0.001149138888     0.002387296999
       6        0.001538920695     0.001843882211    -0.001448525736
       7       -0.000022310960     0.000017339068     0.000003394409
       8        0.000053227614     0.000006931429    -0.000090957720
       9        0.001135347397     0.001297669972    -0.002156743937
      10        0.000022913905     0.000016438126    -0.000014392750
      11       -0.000011180524    -0.000013008156     0.000012359364
      12       -0.000012096193    -0.000008379889     0.000026296403
      13        0.000000460562     0.000011484906    -0.000000885432
      14       -0.000001996125     0.000005727141     0.000011815156
      15       -0.000002086109     0.000000250217    -0.000003187663
      16       -0.000004175857    -0.000001077640    -0.000001876414
      17        0.000002193310     0.000000017308    -0.000001458327

  **** Optimization is complete! (in 7 steps) ****
    Final optimized geometry and variables:
    Molecular point group: c1

    Geometry (in Angstrom), charge = 0, multiplicity = 1:

    O            0.601573363990     1.129029039791     0.250350248176
    C            0.425607926133    -0.046632925968     0.222820016401
    C           -0.917614595293    -0.740997910994     0.235060993054
    O            1.417199990803    -0.926909260696     0.182304755139
    C           -2.102701230075     0.225488355330     0.195078111338
    H           -0.925726497983    -1.411918217912    -0.619083846935
    H           -0.940261179918    -1.368739311630     1.120729454993
    C           -2.412205441533     0.727951670677    -1.215921748426
    H           -1.884503758466     1.078394415163     0.826445462472
    H           -2.976782998161    -0.272460323812     0.603215456523
    H           -1.560445708010     1.250850061134    -1.637141375717
    H           -3.250675538187     1.416983415379    -1.205149273779
    H           -2.668155916851    -0.093882228108    -1.879459967108
    C            2.736052315039    -0.410919891945     0.176613845566
    H            2.895407987043     0.214363609441    -0.690025051449
    H            3.388462324671    -1.269480832849     0.143446977391
    H            2.922036355407     0.166592992230     1.070662051244

  Mulliken Charges: (a.u.)
   Center  Symbol    Alpha    Beta     Spin     Total
       1     O     4.28640  4.28640  0.00000 -0.57280
       2     C     2.60901  2.60901  0.00000  0.78198
       3     C     3.20663  3.20663  0.00000 -0.41327
       4     O     4.30600  4.30600  0.00000 -0.61200
       5     C     3.15637  3.15637  0.00000 -0.31274
       6     H     0.40057  0.40057  0.00000  0.19886
       7     H     0.39783  0.39783  0.00000  0.20433
       8     C     3.24437  3.24437  0.00000 -0.48874
       9     H     0.40370  0.40370  0.00000  0.19260
      10     H     0.41836  0.41836  0.00000  0.16328
      11     H     0.41027  0.41027  0.00000  0.17945
      12     H     0.41752  0.41752  0.00000  0.16496
      13     H     0.42443  0.42443  0.00000  0.15114
      14     C     3.09235  3.09235  0.00000 -0.18470
      15     H     0.40894  0.40894  0.00000  0.18212
      16     H     0.40829  0.40829  0.00000  0.18341
      17     H     0.40894  0.40894  0.00000  0.18211

   Total alpha = 28.00000, Total beta = 28.00000, Total charge = -0.00000
