                              Psi4 1.0.54 Driver

  ==> Input File <==

--------------------------------------------------------------------------
set {
	reference rhf
	basis cc-pvtz
}

set_num_threads( 4 )
memory 2 gb

molecule MOL {
0 1

H	 -0.302101	 3.382832	 -1.176361
C	 0.258934	 3.133998	 -0.265204
C	 -0.523779	 2.378754	 0.774440
O	 1.387720	 3.467527	 -0.156077
C	 -1.216901	 1.136108	 0.207794
H	 0.140850	 2.127606	 1.590851
H	 -1.276637	 3.065339	 1.155375
C	 -0.247837	 0.040196	 -0.230469
H	 -1.887598	 0.742835	 0.963997
H	 -1.844879	 1.425503	 -0.631305
C	 1.181757	 0.280428	 0.247371
H	 -0.259600	 -0.030819	 -1.314870
H	 -0.591284	 -0.923375	 0.136958
C	 2.151032	 -0.811012	 -0.202643
H	 1.515939	 1.247397	 -0.115449
H	 1.191514	 0.341223	 1.333422
C	 3.580021	 -0.656538	 0.320835
H	 2.170545	 -0.847575	 -1.289412
H	 1.766632	 -1.772905	 0.124928
C	 4.327657	 0.562694	 -0.213579
H	 4.138806	 -1.549270	 0.057813
H	 3.561991	 -0.620783	 1.406976
H	 4.355973	 0.557257	 -1.298551
H	 3.867136	 1.491650	 0.100501
H	 5.351524	 0.571613	 0.142204

	symmetry c1
}
set optking {
	frozen_dihedral = ("
		3 5 8 12
	")
}

ee,wfn = optimize('scf', return_wfn=True)
oeprop( wfn, 'DIPOLE', 'QUADRUPOLE', 'MULLIKEN_CHARGES')
f=open( 'psi4out.xyz', 'w' )
f.write( "25  " )
f.write( str(ee) + "\n" )
f.write( MOL.save_string_xyz() )
f.close()
--------------------------------------------------------------------------

    Molecular point group: c1
  Charge       = 0
  Multiplicity = 1
  Basis Set: CC-PVTZ
  Basis Set:
  @DF-RHF Final Energy:  -387.24344198100232
    Total Energy =                       -387.2434419810020927
    Molecular point group: c1
  Basis Set: CC-PVTZ
  Basis Set:
  Basis Set: CC-PVTZ
  Basis Set:
  @DF-RHF Final Energy:  -387.24761754754405
    Total Energy =                       -387.2476175475435411
  Basis Set: CC-PVTZ
  Basis Set:
  Basis Set: CC-PVTZ
  Basis Set:
  @DF-RHF Final Energy:  -387.25033559815415
    Total Energy =                       -387.2503355981538107
  Basis Set: CC-PVTZ
  Basis Set:
  Basis Set: CC-PVTZ
  Basis Set:
  @DF-RHF Final Energy:  -387.25063005432713
    Total Energy =                       -387.2506300543267344
  Basis Set: CC-PVTZ
  Basis Set:
  @DF-RHF Final Energy:  -387.25073292311066
    Total Energy =                       -387.2507329231107178
  @DF-RHF Final Energy:  -387.25091760501982
    Total Energy =                       -387.2509176050198221
  @DF-RHF Final Energy:  -387.25105274049275
    Total Energy =                       -387.2510527404926961
  @DF-RHF Final Energy:  -387.25115453135550
    Total Energy =                       -387.2511545313554961
  @DF-RHF Final Energy:  -387.25128520798739
    Total Energy =                       -387.2512852079875074
  Basis Set: CC-PVTZ
  Basis Set:
  @DF-RHF Final Energy:  -387.25128972295420
    Total Energy =                       -387.2512897229545388
  Basis Set: CC-PVTZ
  Basis Set:
  Basis Set: CC-PVTZ
  Basis Set:
  @DF-RHF Final Energy:  -387.25129430633530
    Total Energy =                       -387.2512943063355806
  Basis Set: CC-PVTZ
  Basis Set:
  Basis Set: CC-PVTZ
  Basis Set:
  @DF-RHF Final Energy:  -387.25129582010112
    Total Energy =                       -387.2512958201008360
  Basis Set: CC-PVTZ
  Basis Set:
  Charge       = 0
  Multiplicity = 1
  Basis Set: CC-PVTZ
  Basis Set:

    Orbital Energies (a.u.)
    -----------------------

    Doubly Occupied:

       1A    -20.552045     2A    -11.321597     3A    -11.234182
       4A    -11.233537     5A    -11.221146     6A    -11.213059
       7A    -11.212005     8A    -11.211396     9A    -11.201728
      10A     -1.407031    11A     -1.100688    12A     -1.066186
      13A     -1.009046    14A     -0.943361    15A     -0.879751
      16A     -0.817543    17A     -0.787438    18A     -0.771681
      19A     -0.668756    20A     -0.660328    21A     -0.633824
      22A     -0.622223    23A     -0.603852    24A     -0.597294
      25A     -0.565568    26A     -0.549032    27A     -0.539083
      28A     -0.526526    29A     -0.511221    30A     -0.500291
      31A     -0.475805    32A     -0.472663    33A     -0.459644
      34A     -0.452646    35A     -0.442930    36A     -0.410900

  @DF-RHF Final Energy:  -387.25129623170176

   => Energetics <=

    Nuclear Repulsion Energy =            456.0273453158856682
    One-Electron Energy =               -1428.8052614586247273
    Two-Electron Energy =                 585.5266199110374146
    DFT Exchange-Correlation Energy =       0.0000000000000000
    Empirical Dispersion Energy =           0.0000000000000000
    PCM Polarization Energy =               0.0000000000000000
    EFP Energy =                            0.0000000000000000
    Total Energy =                       -387.2512962317016445
    Molecular point group: c1
  Basis Set: CC-PVTZ
  Basis Set:

  -Total Gradient:
     Atom            X                  Y                   Z
    ------   -----------------  -----------------  -----------------
       1       -0.000031395152    -0.000049923458    -0.000059849453
       2       -0.000092006629     0.000115943038    -0.000027095360
       3       -0.000086753152    -0.002035548418     0.003860360225
       4        0.000008642875    -0.000082718402     0.000044172188
       5       -0.000620789768     0.001886551137    -0.005743119632
       6        0.000032148349    -0.000024802758     0.000048751842
       7       -0.000096626067     0.000006095395     0.000019838405
       8        0.004604708345     0.004196877214     0.001792266502
       9        0.000004818693     0.000120614146     0.000096796425
      10       -0.000033654459     0.000019452356     0.000003253950
      11        0.000112067549     0.000056870252     0.000022856517
      12       -0.003755419268    -0.004215917325    -0.000078359704
      13       -0.000073376259    -0.000006043207     0.000016042921
      14        0.000016868192     0.000061133594     0.000001451715
      15        0.000035789796    -0.000031322219     0.000005918815
      16        0.000035237124    -0.000023742328    -0.000027158884
      17       -0.000041656905     0.000016550909     0.000053006856
      18       -0.000003849073     0.000026979248    -0.000017346690
      19       -0.000007310754    -0.000023112261     0.000001994486
      20       -0.000004796558     0.000016153000    -0.000013939389
      21       -0.000026666289    -0.000033768488    -0.000009732855
      22        0.000006743568     0.000009645019     0.000022703564
      23        0.000010529335     0.000002185702    -0.000021353924
      24        0.000005755382     0.000007138138     0.000005347731
      25        0.000000991127    -0.000015290274     0.000003193747

  **** Optimization is complete! (in 13 steps) ****
    Final optimized geometry and variables:
    Molecular point group: c1

    Geometry (in Angstrom), charge = 0, multiplicity = 1:

    H           -1.944079009250     2.419521991314    -1.163122215349
    C           -1.340425784762     2.227521100835    -0.265424840388
    C           -1.939733547948     1.237454451718     0.696500333484
    O           -0.314169322975     2.794435701749    -0.111335766382
    C           -2.377244076919    -0.074005213352     0.029238980703
    H           -1.252182648544     1.079185041258     1.513926359244
    H           -2.828352790977     1.718050574825     1.101004997807
    C           -1.266935714156    -1.061892753150    -0.410927654975
    H           -3.020583164979    -0.577131525625     0.741238096127
    H           -3.010833559923     0.158329379137    -0.820500305478
    C            0.129585143199    -0.868188027227     0.177117516328
    H           -1.215490069229    -1.086268515015    -1.495260912077
    H           -1.603961739666    -2.058932691194    -0.143336431053
    C            1.106824887103    -1.936685179926    -0.310549310644
    H            0.509136056536     0.114219979769    -0.071013629136
    H            0.076071771289    -0.912401065014     1.262110366103
    C            2.504935534224    -1.849278159950     0.304019696417
    H            1.188962474469    -1.880175682789    -1.393647359160
    H            0.692865734543    -2.916751826807    -0.088949554812
    C            3.298957021560    -0.606816444129    -0.092387825120
    H            3.064931843800    -2.730462172975     0.005952749930
    H            2.423568508718    -1.895381175196     1.386955305351
    H            3.396419448815    -0.535799432290    -1.171041495592
    H            2.830636825219     0.305001297290     0.257023032799
    H            4.298228382643    -0.641212004826     0.326485091514

  Mulliken Charges: (a.u.)
   Center  Symbol    Alpha    Beta     Spin     Total
       1     H     0.46227  0.46227  0.00000  0.07546
       2     C     2.90572  2.90572  0.00000  0.18857
       3     C     3.09627  3.09627  0.00000 -0.19253
       4     O     4.16787  4.16787  0.00000 -0.33574
       5     C     3.11896  3.11896  0.00000 -0.23791
       6     H     0.44011  0.44011  0.00000  0.11979
       7     H     0.43483  0.43483  0.00000  0.13035
       8     C     3.09926  3.09926  0.00000 -0.19852
       9     H     0.44211  0.44211  0.00000  0.11578
      10     H     0.44438  0.44438  0.00000  0.11124
      11     C     3.10168  3.10168  0.00000 -0.20335
      12     H     0.44774  0.44774  0.00000  0.10452
      13     H     0.44878  0.44878  0.00000  0.10244
      14     C     3.09597  3.09597  0.00000 -0.19194
      15     H     0.43672  0.43672  0.00000  0.12655
      16     H     0.45421  0.45421  0.00000  0.09158
      17     C     3.08951  3.08951  0.00000 -0.17903
      18     H     0.45411  0.45411  0.00000  0.09178
      19     H     0.44983  0.44983  0.00000  0.10035
      20     C     3.15477  3.15477  0.00000 -0.30953
      21     H     0.44906  0.44906  0.00000  0.10189
      22     H     0.45553  0.45553  0.00000  0.08895
      23     H     0.45532  0.45532  0.00000  0.08935
      24     H     0.44817  0.44817  0.00000  0.10366
      25     H     0.44684  0.44684  0.00000  0.10631

   Total alpha = 36.00000, Total beta = 36.00000, Total charge = -0.00000

*** Psi4 exiting successfully. Buy a developer a beer!
