  ==> Input File <==

--------------------------------------------------------------------------
set {
	reference rhf
	basis 6-31G*
}

set_num_threads( 1 )
memory 2 gb

molecule MOL {
0 1

H	 2.830855	 -1.791938	 -1.513774
O	 2.283406	 -1.679770	 -0.742753
C	 1.526647	 -0.598191	 -0.926923
C	 0.624473	 -0.343591	 0.253101
O	 1.589529	 0.055272	 -1.916896
C	 -0.265902	 0.883932	 0.072916
H	 0.045942	 -1.247948	 0.410622
H	 1.260903	 -0.241968	 1.128534
C	 -1.728698	 0.646073	 0.462102
H	 -0.209144	 1.219470	 -0.958188
H	 0.135059	 1.692851	 0.673903
C	 -2.482460	 -0.343073	 -0.431425
H	 -2.245265	 1.602650	 0.432430
H	 -1.779332	 0.308348	 1.496285
C	 -3.960546	 -0.461025	 -0.060175
H	 -2.395034	 -0.026811	 -1.468912
H	 -2.024850	 -1.327147	 -0.371646
H	 -4.472726	 -1.168004	 -0.705284
H	 -4.465146	 0.496508	 -0.151489
H	 -4.081218	 -0.800940	 0.964585

	symmetry c1
}
set optking {
	frozen_dihedral = ("
		16 12 9 6,
		12 9 6 10,
		5 3 4 7,
		1 2 3 5
	")
}

ee = energy('scf')
oeprop('DIPOLE', 'QUADRUPOLE', 'MULLIKEN_CHARGES')
f=open( 'psi4out.xyz', 'w' )
f.write( "20  " )
f.write( str(ee) + "\n" )
f.write( MOL.save_string_xyz() )
f.close()
--------------------------------------------------------------------------

    Molecular point group: c1

    Geometry (in Angstrom), charge = 0, multiplicity = 1:

       Center              X                  Y                   Z               Mass
    ------------   -----------------  -----------------  -----------------  -----------------
           H          3.098133443431    -1.534630705368    -1.081593423996     1.007825032070
           O          2.550684443431    -1.422462705368    -0.310572423996    15.994914619560
           C          1.793925443431    -0.340883705368    -0.494742423996    12.000000000000
           C          0.891751443431    -0.086283705368     0.685281576004    12.000000000000
           O          1.856807443431     0.312579294632    -1.484715423996    15.994914619560
           C          0.001376443431     1.141239294632     0.505096576004    12.000000000000
           H          0.313220443431    -0.990640705368     0.842802576004     1.007825032070
           H          1.528181443431     0.015339294632     1.560714576004     1.007825032070
           C         -1.461419556569     0.903380294632     0.894282576004    12.000000000000
           H          0.058134443431     1.476777294632    -0.526007423996     1.007825032070
           H          0.402337443431     1.950158294632     1.106083576004     1.007825032070
           C         -2.215181556569    -0.085765705368     0.000755576004    12.000000000000
           H         -1.977986556569     1.859957294632     0.864610576004     1.007825032070
           H         -1.512053556569     0.565655294632     1.928465576004     1.007825032070
           C         -3.693267556569    -0.203717705368     0.372005576004    12.000000000000
           H         -2.127755556569     0.230496294632    -1.036731423996     1.007825032070
           H         -1.757571556569    -1.069839705368     0.060534576004     1.007825032070
           H         -4.205447556569    -0.910696705368    -0.273103423996     1.007825032070
           H         -4.197867556569     0.753815294632     0.280691576004     1.007825032070
           H         -3.813939556569    -0.543632705368     1.396765576004     1.007825032070

  Charge       = 0
  Multiplicity = 1
  Basis Set: 6-31G*
  Basis Set:

    Orbital Energies (a.u.)
    -----------------------

    Doubly Occupied:

       1A    -20.612968     2A    -20.552255     3A    -11.381522
       4A    -11.238821     5A    -11.219253     6A    -11.218756
       7A    -11.218248     8A    -11.211071     9A     -1.475085
      10A     -1.366443    11A     -1.095018    12A     -1.039433
      13A     -0.959941    14A     -0.869124    15A     -0.814475
      16A     -0.775282    17A     -0.700482    18A     -0.693464
      19A     -0.661958    20A     -0.633580    21A     -0.604079
      22A     -0.593609    23A     -0.575562    24A     -0.556149
      25A     -0.530638    26A     -0.513441    27A     -0.495004
      28A     -0.479776    29A     -0.468453    30A     -0.464733
      31A     -0.454514    32A     -0.445556

  @DF-RHF Final Energy:  -383.94429188782880

   => Energetics <=

    Nuclear Repulsion Energy =            380.7757746271716428
    One-Electron Energy =               -1277.6026788826943630
    Two-Electron Energy =                 512.8826123676935822
    DFT Exchange-Correlation Energy =       0.0000000000000000
    Empirical Dispersion Energy =           0.0000000000000000
    PCM Polarization Energy =               0.0000000000000000
    EFP Energy =                            0.0000000000000000
    Total Energy =                       -383.9442918878291948

  Mulliken Charges: (a.u.)
   Center  Symbol    Alpha    Beta     Spin     Total
       1     H     0.26776  0.26776  0.00000  0.46448
       2     O     4.35029  4.35029  0.00000 -0.70058
       3     C     2.62770  2.62770  0.00000  0.74459
       4     C     3.21415  3.21415  0.00000 -0.42830
       5     O     4.27814  4.27814  0.00000 -0.55629
       6     C     3.16340  3.16340  0.00000 -0.32680
       7     H     0.39582  0.39582  0.00000  0.20836
       8     H     0.39543  0.39543  0.00000  0.20913
       9     C     3.15653  3.15653  0.00000 -0.31306
      10     H     0.39391  0.39391  0.00000  0.21218
      11     H     0.41593  0.41593  0.00000  0.16814
      12     C     3.15436  3.15436  0.00000 -0.30871
      13     H     0.41928  0.41928  0.00000  0.16144
      14     H     0.42474  0.42474  0.00000  0.15052
      15     C     3.23909  3.23909  0.00000 -0.47817
      16     H     0.41831  0.41831  0.00000  0.16339
      17     H     0.42436  0.42436  0.00000  0.15129
      18     H     0.41824  0.41824  0.00000  0.16351
      19     H     0.42064  0.42064  0.00000  0.15871
      20     H     0.42192  0.42192  0.00000  0.15617

   Total alpha = 32.00000, Total beta = 32.00000, Total charge =  0.00000
