  ==> Input File <==

--------------------------------------------------------------------------
set {
	reference rhf
	basis 6-31G*
}

set_num_threads( 1 )
memory 2 gb

molecule MOL {
0 1

H	 2.591676	 2.013956	 0.335017
O	 3.341076	 1.666752	 -0.126416
C	 3.569581	 0.339145	 0.272707
C	 3.487626	 -0.657221	 -0.878495
H	 4.565413	 0.326573	 0.696777
H	 2.877563	 0.054822	 1.064573
C	 2.101759	 -0.753028	 -1.521193
H	 4.220108	 -0.376075	 -1.630687
H	 3.779789	 -1.635866	 -0.501318
C	 2.038437	 -1.799961	 -2.636872
H	 1.824986	 0.219061	 -1.919696
H	 1.364606	 -1.000308	 -0.757126
C	 0.650296	 -1.996933	 -3.257038
H	 2.747293	 -1.533275	 -3.418696
H	 2.374798	 -2.753786	 -2.235897
C	 0.116079	 -0.792445	 -4.036973
H	 0.693975	 -2.852517	 -3.927772
H	 -0.058523	 -2.263110	 -2.474374
C	 -1.221964	 -1.073116	 -4.724214
H	 0.848678	 -0.496506	 -4.786527
H	 -0.002340	 0.060619	 -3.373226
C	 -1.760602	 0.129608	 -5.498158
H	 -1.108545	 -1.916525	 -5.401919
H	 -1.952649	 -1.378361	 -3.978016
H	 -1.066431	 0.439169	 -6.274382
H	 -2.708134	 -0.101323	 -5.975117
H	 -1.920136	 0.979841	 -4.840880

	symmetry c1
}
set optking {
	frozen_dihedral = ("
		14 10 7 4,
		14 10 13 16,
		10 7 4 8,
		8 4 3 2,
		10 13 16 20,
		20 16 19 22
	")
}

ee = energy('scf')
oeprop('DIPOLE', 'QUADRUPOLE', 'MULLIKEN_CHARGES')
f=open( 'psi4out.xyz', 'w' )
f.write( "27  " )
f.write( str(ee) + "\n" )
f.write( MOL.save_string_xyz() )
f.close()
--------------------------------------------------------------------------

    Molecular point group: c1

    Geometry (in Angstrom), charge = 0, multiplicity = 1:

       Center              X                  Y                   Z               Mass
    ------------   -----------------  -----------------  -----------------  -----------------
           H          1.205153731583     2.512643189241     2.787614573653     1.007825032070
           O          1.954553731583     2.165439189241     2.326181573653    15.994914619560
           C          2.183058731583     0.837832189241     2.725304573653    12.000000000000
           C          2.101103731583    -0.158533810759     1.574102573653    12.000000000000
           H          3.178890731583     0.825260189241     3.149374573653     1.007825032070
           H          1.491040731583     0.553509189241     3.517170573653     1.007825032070
           C          0.715236731583    -0.254340810759     0.931404573653    12.000000000000
           H          2.833585731583     0.122612189241     0.821910573653     1.007825032070
           H          2.393266731583    -1.137178810759     1.951279573653     1.007825032070
           C          0.651914731583    -1.301273810759    -0.184274426347    12.000000000000
           H          0.438463731583     0.717748189241     0.532901573653     1.007825032070
           H         -0.021916268417    -0.501620810759     1.695471573653     1.007825032070
           C         -0.736226268417    -1.498245810759    -0.804440426347    12.000000000000
           H          1.360770731583    -1.034587810759    -0.966098426347     1.007825032070
           H          0.988275731583    -2.255098810759     0.216700573653     1.007825032070
           C         -1.270443268417    -0.293757810759    -1.584375426347    12.000000000000
           H         -0.692547268417    -2.353829810759    -1.475174426347     1.007825032070
           H         -1.445045268417    -1.764422810759    -0.021776426347     1.007825032070
           C         -2.608486268417    -0.574428810759    -2.271616426347    12.000000000000
           H         -0.537844268417     0.002181189241    -2.333929426347     1.007825032070
           H         -1.388862268417     0.559306189241    -0.920628426347     1.007825032070
           C         -3.147124268417     0.628295189241    -3.045560426347    12.000000000000
           H         -2.495067268417    -1.417837810759    -2.949321426347     1.007825032070
           H         -3.339171268417    -0.879673810759    -1.525418426347     1.007825032070
           H         -2.452953268417     0.937856189241    -3.821784426347     1.007825032070
           H         -4.094656268417     0.397364189241    -3.522519426347     1.007825032070
           H         -3.306658268417     1.478528189241    -2.388282426347     1.007825032070

  Charge       = 0
  Multiplicity = 1
  Basis Set: 6-31G*
  Basis Set:

    Orbital Energies (a.u.)
    -----------------------

    Doubly Occupied:

       1A    -20.551733     2A    -11.267401     3A    -11.213120
       4A    -11.212937     5A    -11.212206     6A    -11.211639
       7A    -11.211079     8A    -11.210331     9A    -11.206861
      10A     -1.358990    11A     -1.090584    12A     -1.057847
      13A     -1.008955    14A     -0.945021    15A     -0.882799
      16A     -0.814682    17A     -0.796872    18A     -0.773184
      19A     -0.703812    20A     -0.646405    21A     -0.628264
      22A     -0.622377    23A     -0.589816    24A     -0.580670
      25A     -0.577899    26A     -0.547000    27A     -0.539431
      28A     -0.524173    29A     -0.506339    30A     -0.483409
      31A     -0.481244    32A     -0.474096    33A     -0.463961
      34A     -0.456860    35A     -0.452483    36A     -0.440251
      37A     -0.417301

  @DF-RHF Final Energy:  -388.28000406702955

   => Energetics <=

    Nuclear Repulsion Energy =            458.9341651870469718
    One-Electron Energy =               -1436.1042514289174505
    Two-Electron Energy =                 588.8900821748426324
    DFT Exchange-Correlation Energy =       0.0000000000000000
    Empirical Dispersion Energy =           0.0000000000000000
    PCM Polarization Energy =               0.0000000000000000
    EFP Energy =                            0.0000000000000000
    Total Energy =                       -388.2800040670277895

  Mulliken Charges: (a.u.)
   Center  Symbol    Alpha    Beta     Spin     Total
       1     H     0.27937  0.27937  0.00000  0.44127
       2     O     4.37154  4.37154  0.00000 -0.74308
       3     C     2.99840  2.99840  0.00000  0.00319
       4     C     3.15810  3.15810  0.00000 -0.31620
       5     H     0.42053  0.42053  0.00000  0.15894
       6     H     0.43311  0.43311  0.00000  0.13378
       7     C     3.15889  3.15889  0.00000 -0.31778
       8     H     0.41520  0.41520  0.00000  0.16961
       9     H     0.42494  0.42494  0.00000  0.15013
      10     C     3.15278  3.15278  0.00000 -0.30556
      11     H     0.41183  0.41183  0.00000  0.17633
      12     H     0.42938  0.42938  0.00000  0.14124
      13     C     3.15297  3.15297  0.00000 -0.30594
      14     H     0.42259  0.42259  0.00000  0.15482
      15     H     0.42358  0.42358  0.00000  0.15284
      16     C     3.15249  3.15249  0.00000 -0.30498
      17     H     0.42225  0.42225  0.00000  0.15549
      18     H     0.42500  0.42500  0.00000  0.14999
      19     C     3.15109  3.15109  0.00000 -0.30219
      20     H     0.42386  0.42386  0.00000  0.15229
      21     H     0.42227  0.42227  0.00000  0.15546
      22     C     3.23903  3.23903  0.00000 -0.47805
      23     H     0.42338  0.42338  0.00000  0.15323
      24     H     0.42379  0.42379  0.00000  0.15242
      25     H     0.42158  0.42158  0.00000  0.15684
      26     H     0.41986  0.41986  0.00000  0.16027
      27     H     0.42218  0.42218  0.00000  0.15564

   Total alpha = 37.00000, Total beta = 37.00000, Total charge = -0.00000
