  ==> Input File <==

--------------------------------------------------------------------------
set {
	reference rhf
	basis 6-31G*
}

set_num_threads( 1 )
memory 2 gb

molecule MOL {
0 1

O	 -2.042549	 -1.228399	 -0.269030
C	 -1.653912	 -0.146171	 0.050137
C	 -0.332303	 0.024011	 0.778412
C	 -2.438579	 1.106236	 -0.272369
C	 0.650782	 -1.095374	 0.401062
H	 0.105445	 0.992350	 0.552401
H	 -0.535769	 -0.015530	 1.842818
C	 1.986403	 -0.978941	 1.136990
H	 0.830646	 -1.080731	 -0.672492
H	 0.188977	 -2.052045	 0.626134
C	 2.962694	 -2.095926	 0.770377
H	 2.439009	 -0.015039	 0.914579
H	 1.806351	 -0.993079	 2.209347
H	 3.189260	 -2.086581	 -0.291995
H	 2.550387	 -3.071204	 1.011788
H	 3.899001	 -1.989676	 1.308955
H	 -3.277823	 0.863061	 -0.908988
H	 -1.806773	 1.843019	 -0.759671
H	 -2.802853	 1.554979	 0.648059

	symmetry c1
}
set optking {
	frozen_dihedral = ("
		11 8 5 9,
		9 5 3 2
	")
}

ee = energy('scf')
oeprop('DIPOLE', 'QUADRUPOLE', 'MULLIKEN_CHARGES')
f=open( 'psi4out.xyz', 'w' )
f.write( "19  " )
f.write( str(ee) + "\n" )
f.write( MOL.save_string_xyz() )
f.close()
--------------------------------------------------------------------------

    Molecular point group: c1

    Geometry (in Angstrom), charge = 0, multiplicity = 1:

       Center              X                  Y                   Z               Mass
    ------------   -----------------  -----------------  -----------------  -----------------
           O         -1.923335036775    -0.589167350693    -0.634743637858    15.994914619560
           C         -1.534698036775     0.493060649307    -0.315576637858    12.000000000000
           C         -0.213089036775     0.663242649307     0.412698362142    12.000000000000
           C         -2.319365036775     1.745467649307    -0.638082637858    12.000000000000
           C          0.769995963225    -0.456142350693     0.035348362142    12.000000000000
           H          0.224658963225     1.631581649307     0.186687362142     1.007825032070
           H         -0.416555036775     0.623701649307     1.477104362142     1.007825032070
           C          2.105616963225    -0.339709350693     0.771276362142    12.000000000000
           H          0.949859963225    -0.441499350693    -1.038205637858     1.007825032070
           H          0.308190963225    -1.412813350693     0.260420362142     1.007825032070
           C          3.081907963225    -1.456694350693     0.404663362142    12.000000000000
           H          2.558222963225     0.624192649307     0.548865362142     1.007825032070
           H          1.925564963225    -0.353847350693     1.843633362142     1.007825032070
           H          3.308473963225    -1.447349350693    -0.657708637858     1.007825032070
           H          2.669600963225    -2.431972350693     0.646074362142     1.007825032070
           H          4.018214963225    -1.350444350693     0.943241362142     1.007825032070
           H         -3.158609036775     1.502292649307    -1.274701637858     1.007825032070
           H         -1.687559036775     2.482250649307    -1.125384637858     1.007825032070
           H         -2.683639036775     2.194210649307     0.282345362142     1.007825032070

  Charge       = 0
  Multiplicity = 1
  Basis Set: 6-31G*
  Basis Set:

    Orbital Energies (a.u.)
    -----------------------

    Doubly Occupied:

       1A    -20.549354     2A    -11.326229     3A    -11.230879
       4A    -11.228932     5A    -11.218779     6A    -11.218111
       7A    -11.209929     8A     -1.395558     9A     -1.084472
      10A     -1.028529    11A     -0.983906    12A     -0.885459
      13A     -0.799785    14A     -0.731454    15A     -0.659483
      16A     -0.649163    17A     -0.623903    18A     -0.611391
      19A     -0.580107    20A     -0.572119    21A     -0.553381
      22A     -0.530598    23A     -0.512418    24A     -0.489351
      25A     -0.473794    26A     -0.470158    27A     -0.467510
      28A     -0.399499

  @DF-RHF Final Energy:  -309.06529206219591

   => Energetics <=

    Nuclear Repulsion Energy =            301.4255766409552280
    One-Electron Energy =               -1016.0132190417455149
    Two-Electron Energy =                 405.5223503385951744
    DFT Exchange-Correlation Energy =       0.0000000000000000
    Empirical Dispersion Energy =           0.0000000000000000
    PCM Polarization Energy =               0.0000000000000000
    EFP Energy =                            0.0000000000000000
    Total Energy =                       -309.0652920621951125

  Mulliken Charges: (a.u.)
   Center  Symbol    Alpha    Beta     Spin     Total
       1     O     4.26230  4.26230  0.00000 -0.52461
       2     C     2.73600  2.73600  0.00000  0.52800
       3     C     3.20896  3.20896  0.00000 -0.41793
       4     C     3.28687  3.28687  0.00000 -0.57373
       5     C     3.15136  3.15136  0.00000 -0.30272
       6     H     0.41403  0.41403  0.00000  0.17194
       7     H     0.40369  0.40369  0.00000  0.19262
       8     C     3.15269  3.15269  0.00000 -0.30539
       9     H     0.41907  0.41907  0.00000  0.16186
      10     H     0.40463  0.40463  0.00000  0.19073
      11     C     3.23938  3.23938  0.00000 -0.47877
      12     H     0.42478  0.42478  0.00000  0.15044
      13     H     0.42342  0.42342  0.00000  0.15317
      14     H     0.42086  0.42086  0.00000  0.15828
      15     H     0.41937  0.41937  0.00000  0.16126
      16     H     0.41920  0.41920  0.00000  0.16159
      17     H     0.39679  0.39679  0.00000  0.20643
      18     H     0.40950  0.40950  0.00000  0.18099
      19     H     0.40709  0.40709  0.00000  0.18582

   Total alpha = 28.00000, Total beta = 28.00000, Total charge =  0.00000
