  ==> Input File <==

--------------------------------------------------------------------------
set {
	reference rhf
	basis 6-31G*
}

set_num_threads( 4 )
memory 2 gb

molecule MOL {
0 1

H	 3.729471	 -0.928294	 -0.070608
O	 2.826016	 -1.159218	 0.122261
C	 2.077727	 -0.067559	 -0.035091
C	 0.624473	 -0.343591	 0.253101
O	 2.542965	 0.974826	 -0.363729
C	 -0.265902	 0.883932	 0.072916
H	 0.324016	 -1.163849	 -0.390541
H	 0.565024	 -0.726111	 1.268924
C	 -1.728698	 0.646073	 0.462102
H	 -0.209144	 1.219470	 -0.958188
H	 0.135059	 1.692851	 0.673903
C	 -2.457785	 -0.406703	 -0.377571
H	 -2.259802	 1.590687	 0.370480
H	 -1.784592	 0.369889	 1.514126
C	 -3.937557	 -0.526202	 -0.013604
H	 -2.364737	 -0.151542	 -1.431269
H	 -1.985506	 -1.377919	 -0.254797
H	 -4.432040	 -1.278616	 -0.619964
H	 -4.456083	 0.415881	 -0.166701
H	 -4.063347	 -0.806268	 1.028499

	symmetry c1
}
set optking {
	frozen_dihedral = ("
		12 9 6 10
	")
}

ee = optimize('scf')
oeprop('DIPOLE', 'QUADRUPOLE', 'MULLIKEN_CHARGES')
f=open( 'psi4out.xyz', 'w' )
f.write( "20  " )
f.write( str(ee) + "\n" )
f.write( MOL.save_string_xyz() )
f.close()
--------------------------------------------------------------------------

    Molecular point group: c1
  Charge       = 0
  Multiplicity = 1
  Basis Set: 6-31G*
  Basis Set:
  @DF-RHF Final Energy:  -383.94870656163641
    Total Energy =                       -383.9487065616366976
    Molecular point group: c1
  Basis Set: 6-31G*
  Basis Set:
  Basis Set: 6-31G*
  Basis Set:
  @DF-RHF Final Energy:  -383.94867068407450
    Total Energy =                       -383.9486706840746706
  Basis Set: 6-31G*
  Basis Set:
  Basis Set: 6-31G*
  Basis Set:
  @DF-RHF Final Energy:  -383.94871868885485
    Total Energy =                       -383.9487186888551946
  Basis Set: 6-31G*
  Basis Set:
  Basis Set: 6-31G*
  Basis Set:
  @DF-RHF Final Energy:  -383.94869979058018
    Total Energy =                       -383.9486997905805197
  Basis Set: 6-31G*
  Basis Set:
  Basis Set: 6-31G*
  Basis Set:
  @DF-RHF Final Energy:  -383.94872134398020
    Total Energy =                       -383.9487213439803099
  Basis Set: 6-31G*
  Basis Set:
  Charge       = 0
  Multiplicity = 1
  Basis Set: 6-31G*
  Basis Set:

    Orbital Energies (a.u.)
    -----------------------

    Doubly Occupied:

       1A    -20.612535     2A    -20.551638     3A    -11.381209
       4A    -11.240265     5A    -11.222901     6A    -11.220719
       7A    -11.220129     8A    -11.212437     9A     -1.474610
      10A     -1.365662    11A     -1.096263    12A     -1.040891
      13A     -0.961377    14A     -0.868929    15A     -0.816853
      16A     -0.776002    17A     -0.699592    18A     -0.690026
      19A     -0.664212    20A     -0.636135    21A     -0.602033
      22A     -0.594079    23A     -0.575921    24A     -0.555696
      25A     -0.539955    26A     -0.513696    27A     -0.495635
      28A     -0.479238    29A     -0.470173    30A     -0.467356
      31A     -0.457281    32A     -0.443803

  @DF-RHF Final Energy:  -383.94872167252083

   => Energetics <=

    Nuclear Repulsion Energy =            376.0557477912366267
    One-Electron Energy =               -1268.1144381563995012
    Two-Electron Energy =                 508.1099686926426102
    DFT Exchange-Correlation Energy =       0.0000000000000000
    Empirical Dispersion Energy =           0.0000000000000000
    PCM Polarization Energy =               0.0000000000000000
    EFP Energy =                            0.0000000000000000
    Total Energy =                       -383.9487216725202643
    Molecular point group: c1
  Basis Set: 6-31G*
  Basis Set:

  -Total Gradient:
     Atom            X                  Y                   Z
    ------   -----------------  -----------------  -----------------
       1        0.000000392006     0.000000014351    -0.000000141314
       2       -0.000001268872    -0.000003490201    -0.000005912779
       3        0.000002781710     0.000007088533     0.000024829435
       4       -0.000008245598     0.000000948436    -0.000019128234
       5       -0.000003098586    -0.000000887570    -0.000008985124
       6        0.000115946374    -0.000916792179    -0.000127146836
       7       -0.000001612079    -0.000002784065    -0.000000600358
       8       -0.000001023485     0.000006952983    -0.000003756552
       9       -0.000206757880     0.000620182835    -0.000373756878
      10       -0.000036189500     0.000622744040     0.000200649483
      11        0.000006723342    -0.000000298811     0.000006595356
      12        0.000137021723    -0.000329584059     0.000300032258
      13       -0.000001722789    -0.000012289000    -0.000010387058
      14       -0.000007803201     0.000006650303     0.000011721948
      15        0.000002365773    -0.000003021981     0.000006686295
      16        0.000004111864     0.000002840097     0.000002615954
      17       -0.000001311422     0.000001208487    -0.000001090750
      18        0.000002092354    -0.000003044953     0.000002261079
      19       -0.000001142212    -0.000001811241    -0.000005707159
      20       -0.000001259521     0.000005373996     0.000001221232

  **** Optimization is complete! (in 6 steps) ****
    Final optimized geometry and variables:
    Molecular point group: c1

    Geometry (in Angstrom), charge = 0, multiplicity = 1:

    H            3.732323980485    -0.898619577193    -0.074944332666
    O            2.828866523019    -1.135657171905     0.110323937736
    C            2.075731597788    -0.047034674730    -0.044892691910
    C            0.622081077642    -0.333142670769     0.231439385611
    O            2.537500091459     0.999953594729    -0.363625886239
    C           -0.273488242215     0.890386917945     0.052368462535
    H            0.331118202182    -1.151013250311    -0.419450967273
    H            0.557675097593    -0.722330843131     1.244484255935
    C           -1.734399439603     0.652316390829     0.448186779483
    H           -0.221243264512     1.228498760634    -0.978211542632
    H            0.126426621679     1.701614721938     0.651134971850
    C           -2.471015852339    -0.397479130804    -0.388606543912
    H           -2.263811931564     1.598618408911     0.365390590747
    H           -1.783237136210     0.370558510599     1.499157388071
    C           -3.952462116455    -0.501980281502    -0.026812809088
    H           -2.373903250303    -0.149003698484    -1.443696261589
    H           -2.007680264781    -1.372023023308    -0.259373467083
    H           -4.451638677176    -1.255913031738    -0.627410254571
    H           -4.463220706498     0.442739569070    -0.189379688271
    H           -4.082508094586    -0.771700654348     1.017507078144

  Mulliken Charges: (a.u.)
   Center  Symbol    Alpha    Beta     Spin     Total
       1     H     0.26785  0.26785  0.00000  0.46430
       2     O     4.35159  4.35159  0.00000 -0.70318
       3     C     2.62216  2.62216  0.00000  0.75568
       4     C     3.21313  3.21313  0.00000 -0.42627
       5     O     4.27924  4.27924  0.00000 -0.55848
       6     C     3.15438  3.15438  0.00000 -0.30875
       7     H     0.39664  0.39664  0.00000  0.20672
       8     H     0.39909  0.39909  0.00000  0.20181
       9     C     3.15521  3.15521  0.00000 -0.31043
      10     H     0.41242  0.41242  0.00000  0.17517
      11     H     0.40788  0.40788  0.00000  0.18425
      12     C     3.15526  3.15526  0.00000 -0.31052
      13     H     0.41789  0.41789  0.00000  0.16422
      14     H     0.42361  0.42361  0.00000  0.15278
      15     C     3.23920  3.23920  0.00000 -0.47839
      16     H     0.42169  0.42169  0.00000  0.15662
      17     H     0.42250  0.42250  0.00000  0.15501
      18     H     0.41835  0.41835  0.00000  0.16329
      19     H     0.42062  0.42062  0.00000  0.15876
      20     H     0.42129  0.42129  0.00000  0.15742

   Total alpha = 32.00000, Total beta = 32.00000, Total charge = -0.00000
