                              Psi4 1.0.54 Driver

  ==> Input File <==

--------------------------------------------------------------------------
set {
	reference rhf
	basis cc-pvtz
}

set_num_threads( 4 )
memory 2 gb

molecule MOL {
0 1

H	 -1.930914	 -0.977100	 0.480031
O	 -1.432053	 -0.565244	 -0.200812
C	 -0.727158	 0.534527	 0.310686
C	 0.680222	 0.664433	 -0.252229
H	 -1.306802	 1.408001	 0.044211
H	 -0.690821	 0.490158	 1.397609
C	 1.605391	 -0.489360	 0.123098
H	 0.615089	 0.745647	 -1.332226
H	 1.101414	 1.597893	 0.110950
H	 1.247627	 -1.432485	 -0.275204
H	 2.601435	 -0.332816	 -0.273062
H	 1.691776	 -0.589902	 1.200774

	symmetry c1
}
set optking {
	frozen_dihedral = ("
		1 2 3 4
	")
}

ee,wfn = optimize('scf', return_wfn=True)
oeprop( wfn, 'DIPOLE', 'QUADRUPOLE', 'MULLIKEN_CHARGES')
f=open( 'psi4out.xyz', 'w' )
f.write( "12  " )
f.write( str(ee) + "\n" )
f.write( MOL.save_string_xyz() )
f.close()
--------------------------------------------------------------------------

    Molecular point group: c1
  Charge       = 0
  Multiplicity = 1
  Basis Set: CC-PVTZ
  Basis Set:
  @DF-RHF Final Energy:  -193.18910153721407
    Total Energy =                       -193.1891015372140714
    Molecular point group: c1
  Basis Set: CC-PVTZ
  Basis Set:
  Basis Set: CC-PVTZ
  Basis Set:
  @DF-RHF Final Energy:  -193.18996883652750
    Total Energy =                       -193.1899688365272709
  Basis Set: CC-PVTZ
  Basis Set:
  Basis Set: CC-PVTZ
  Basis Set:
  @DF-RHF Final Energy:  -193.19022770986575
    Total Energy =                       -193.1902277098657237
  Basis Set: CC-PVTZ
  Basis Set:
  Basis Set: CC-PVTZ
  Basis Set:
  @DF-RHF Final Energy:  -193.19023566054057
    Total Energy =                       -193.1902356605405089
  Basis Set: CC-PVTZ
  Basis Set:
  Basis Set: CC-PVTZ
  Basis Set:
  @DF-RHF Final Energy:  -193.19023877332981
    Total Energy =                       -193.1902387733298099
  Basis Set: CC-PVTZ
  Basis Set:
  Charge       = 0
  Multiplicity = 1
  Basis Set: CC-PVTZ
  Basis Set:

    Orbital Energies (a.u.)
    -----------------------

    Doubly Occupied:

       1A    -20.545797     2A    -11.266552     3A    -11.212921
       4A    -11.203635     5A     -1.363477     6A     -1.048566
       7A     -0.921205     8A     -0.800150     9A     -0.708899
      10A     -0.640840    11A     -0.592611    12A     -0.583841
      13A     -0.527270    14A     -0.507341    15A     -0.486383
      16A     -0.467000    17A     -0.433789

  @DF-RHF Final Energy:  -193.19023888697882

   => Energetics <=

    Nuclear Repulsion Energy =            133.2870195460196783
    One-Electron Energy =                -526.3339622301002692
    Two-Electron Energy =                 199.8567037971018010
    DFT Exchange-Correlation Energy =       0.0000000000000000
    Empirical Dispersion Energy =           0.0000000000000000
    PCM Polarization Energy =               0.0000000000000000
    EFP Energy =                            0.0000000000000000
    Total Energy =                       -193.1902388869787899
    Molecular point group: c1
  Basis Set: CC-PVTZ
  Basis Set:

  -Total Gradient:
     Atom            X                  Y                   Z
    ------   -----------------  -----------------  -----------------
       1        0.001045274893    -0.000704499681     0.000224942348
       2       -0.001167234833     0.000717332524    -0.000075106045
       3       -0.000197190351     0.000438104319    -0.000719864466
       4        0.000324802499    -0.000420512060     0.000590215526
       5       -0.000005750888    -0.000019114060    -0.000005665753
       6       -0.000004843696    -0.000003098407     0.000000893370
       7        0.000002961300    -0.000003036335    -0.000003887830
       8        0.000000105447    -0.000002190682    -0.000006372563
       9       -0.000000636470     0.000004003229     0.000000931585
      10        0.000000342499    -0.000007378750    -0.000001296167
      11        0.000004184224    -0.000004573098     0.000000600688
      12       -0.000002014628     0.000004963000    -0.000005390694

  **** Optimization is complete! (in 6 steps) ****
    Final optimized geometry and variables:
    Molecular point group: c1

    Geometry (in Angstrom), charge = 0, multiplicity = 1:

    H           -1.814078000422    -1.018237008430     0.645368962118
    O           -1.382329386897    -0.599788380511    -0.074214111953
    C           -0.696068121066     0.548597825843     0.359633454318
    C            0.642465546777     0.651093626871    -0.348249926852
    H           -1.294715405212     1.428961447212     0.146025592801
    H           -0.538962430611     0.514318029483     1.434835065340
    C            1.605731206664    -0.476604081725     0.003950122188
    H            0.463048665017     0.661071646823    -1.418589071432
    H            1.085822122197     1.610212596009    -0.095341736164
    H            1.182229892064    -1.439294158919    -0.250569658920
    H            2.541399502473    -0.368721840714    -0.532201043806
    H            1.832896435534    -0.478911306765     1.065728563092

  Mulliken Charges: (a.u.)
   Center  Symbol    Alpha    Beta     Spin     Total
       1     H     0.39162  0.39162  0.00000  0.21677
       2     O     4.20541  4.20541  0.00000 -0.41081
       3     C     2.97290  2.97290  0.00000  0.05419
       4     C     3.07810  3.07810  0.00000 -0.15619
       5     H     0.46157  0.46157  0.00000  0.07686
       6     H     0.47351  0.47351  0.00000  0.05298
       7     C     3.15316  3.15316  0.00000 -0.30632
       8     H     0.45231  0.45231  0.00000  0.09539
       9     H     0.45581  0.45581  0.00000  0.08837
      10     H     0.44678  0.44678  0.00000  0.10643
      11     H     0.44942  0.44942  0.00000  0.10117
      12     H     0.45941  0.45941  0.00000  0.08118

   Total alpha = 17.00000, Total beta = 17.00000, Total charge =  0.00000

*** Psi4 exiting successfully. Buy a developer a beer!
