  ==> Input File <==

--------------------------------------------------------------------------
set {
	reference rhf
	basis 6-31G*
}

set_num_threads( 1 )
memory 2 gb

molecule MOL {
0 1

H	 -2.165586	 0.123746	 1.969288
O	 -1.754776	 0.976734	 1.975052
C	 -0.898248	 1.095535	 0.870862
C	 0.375235	 0.293466	 1.072338
H	 -1.384555	 0.784247	 -0.049444
H	 -0.653016	 2.143924	 0.774991
O	 1.171513	 0.459272	 -0.058250
H	 0.134305	 -0.761049	 1.220429
H	 0.887121	 0.639666	 1.968275
C	 2.397842	 -0.198080	 -0.002151
H	 2.508049	 -0.905315	 -0.822092
H	 3.173794	 0.550865	 -0.078850
H	 2.517602	 -0.735921	 0.936026

	symmetry c1
}
set optking {
	frozen_dihedral = ("
		8 4 3 5,
		1 2 3 5,
		10 7 4 8
	")
}

ee = energy('scf')
oeprop('DIPOLE', 'QUADRUPOLE', 'MULLIKEN_CHARGES')
f=open( 'psi4out.xyz', 'w' )
f.write( "13  " )
f.write( str(ee) + "\n" )
f.write( MOL.save_string_xyz() )
f.close()
--------------------------------------------------------------------------

    Molecular point group: c1

    Geometry (in Angstrom), charge = 0, multiplicity = 1:

       Center              X                  Y                   Z               Mass
    ------------   -----------------  -----------------  -----------------  -----------------
           H         -2.405232307266    -0.390562457429     1.181455064948     1.007825032070
           O         -1.994422307266     0.462425542571     1.187219064948    15.994914619560
           C         -1.137894307266     0.581226542571     0.083029064948    12.000000000000
           C          0.135588692734    -0.220842457429     0.284505064948    12.000000000000
           H         -1.624201307266     0.269938542571    -0.837276935052     1.007825032070
           H         -0.892662307266     1.629615542571    -0.012841935052     1.007825032070
           O          0.931866692734    -0.055036457429    -0.846082935052    15.994914619560
           H         -0.105341307266    -1.275357457429     0.432596064948     1.007825032070
           H          0.647474692734     0.125357542571     1.180442064948     1.007825032070
           C          2.158195692734    -0.712388457429    -0.789983935052    12.000000000000
           H          2.268402692734    -1.419623457429    -1.609924935052     1.007825032070
           H          2.934147692734     0.036556542571    -0.866682935052     1.007825032070
           H          2.277955692734    -1.250229457429     0.148193064948     1.007825032070

  Charge       = 0
  Multiplicity = 1
  Basis Set: 6-31G*
  Basis Set:

    Orbital Energies (a.u.)
    -----------------------

    Doubly Occupied:

       1A    -20.559955     2A    -20.559178     3A    -11.271480
       4A    -11.269236     5A    -11.268572     6A     -1.387720
       7A     -1.364934     8A     -1.017916     9A     -0.913009
      10A     -0.842953    11A     -0.709044    12A     -0.671377
      13A     -0.659973    14A     -0.638090    15A     -0.595620
      16A     -0.567717    17A     -0.548698    18A     -0.490057
      19A     -0.482735    20A     -0.438257    21A     -0.416322

  @DF-RHF Final Energy:  -267.94621420862973

   => Energetics <=

    Nuclear Repulsion Energy =            190.2846837103593600
    One-Electron Energy =                -743.1161255007066302
    Two-Electron Energy =                 284.8852275817177429
    DFT Exchange-Correlation Energy =       0.0000000000000000
    Empirical Dispersion Energy =           0.0000000000000000
    PCM Polarization Energy =               0.0000000000000000
    EFP Energy =                            0.0000000000000000
    Total Energy =                       -267.9462142086295557

  Mulliken Charges: (a.u.)
   Center  Symbol    Alpha    Beta     Spin     Total
       1     H     0.28132  0.28132  0.00000  0.43736
       2     O     4.37085  4.37085  0.00000 -0.74170
       3     C     3.00500  3.00500  0.00000 -0.01001
       4     C     2.99847  2.99847  0.00000  0.00306
       5     H     0.42228  0.42228  0.00000  0.15544
       6     H     0.40851  0.40851  0.00000  0.18297
       7     O     4.30939  4.30939  0.00000 -0.61878
       8     H     0.43710  0.43710  0.00000  0.12580
       9     H     0.42288  0.42288  0.00000  0.15424
      10     C     3.07776  3.07776  0.00000 -0.15552
      11     H     0.42014  0.42014  0.00000  0.15971
      12     H     0.41818  0.41818  0.00000  0.16364
      13     H     0.42812  0.42812  0.00000  0.14377

   Total alpha = 21.00000, Total beta = 21.00000, Total charge = -0.00000
