  ==> Input File <==

--------------------------------------------------------------------------
set {
	reference rhf
	basis 6-31G*
}

set_num_threads( 4 )
memory 2 gb

molecule MOL {
0 1

O	 1.214711	 1.306902	 -0.000018
C	 1.122059	 0.121804	 -0.000188
C	 -0.170150	 -0.657997	 -0.000612
O	 2.172624	 -0.688929	 0.000216
C	 -1.412532	 0.227344	 -0.000452
H	 -0.153702	 -1.313099	 -0.867402
H	 -0.153924	 -1.313811	 0.865644
C	 -1.288562	 1.403293	 -0.970577
H	 -1.589271	 0.596687	 1.004960
H	 -2.279976	 -0.372390	 -0.258062
C	 -2.529566	 2.294844	 -0.977711
H	 -0.417465	 2.000423	 -0.708467
H	 -1.108986	 1.027695	 -1.975937
H	 -2.716277	 2.713768	 0.006817
H	 -2.415706	 3.120526	 -1.673096
H	 -3.412607	 1.734247	 -1.270302
C	 3.452279	 -0.082609	 0.000533
H	 3.583069	 0.529321	 -0.880332
H	 4.163299	 -0.894027	 0.001117
H	 3.582335	 0.529955	 0.881077

	symmetry c1
}
set optking {
	frozen_dihedral = ("
		9 5 3 6
	")
}

ee = optimize('scf')
oeprop('DIPOLE', 'QUADRUPOLE', 'MULLIKEN_CHARGES')
f=open( 'psi4out.xyz', 'w' )
f.write( "20  " )
f.write( str(ee) + "\n" )
f.write( MOL.save_string_xyz() )
f.close()
--------------------------------------------------------------------------

    Molecular point group: c1
  Charge       = 0
  Multiplicity = 1
  Basis Set: 6-31G*
  Basis Set:
  @DF-RHF Final Energy:  -383.92822329988547
    Total Energy =                       -383.9282232998856443
    Molecular point group: c1
  Basis Set: 6-31G*
  Basis Set:
  Basis Set: 6-31G*
  Basis Set:
  @DF-RHF Final Energy:  -383.93614860145573
    Total Energy =                       -383.9361486014556704
  Basis Set: 6-31G*
  Basis Set:
  Basis Set: 6-31G*
  Basis Set:
  @DF-RHF Final Energy:  -383.93759012392638
    Total Energy =                       -383.9375901239262703
  Basis Set: 6-31G*
  Basis Set:
  Basis Set: 6-31G*
  Basis Set:
  @DF-RHF Final Energy:  -383.93442969328891
    Total Energy =                       -383.9344296932893030
  Basis Set: 6-31G*
  Basis Set:
  @DF-RHF Final Energy:  -383.93836058849661
    Total Energy =                       -383.9383605884969484
  @DF-RHF Final Energy:  -383.93866703076407
    Total Energy =                       -383.9386670307638951
  @DF-RHF Final Energy:  -383.93872884907228
    Total Energy =                       -383.9387288490722767
  @DF-RHF Final Energy:  -383.93876858755783
    Total Energy =                       -383.9387685875577745
  Basis Set: 6-31G*
  Basis Set:
  @DF-RHF Final Energy:  -383.93885175154981
    Total Energy =                       -383.9388517515496915
  Basis Set: 6-31G*
  Basis Set:
  Basis Set: 6-31G*
  Basis Set:
  @DF-RHF Final Energy:  -383.93888823957269
    Total Energy =                       -383.9388882395727478
  Basis Set: 6-31G*
  Basis Set:
  Basis Set: 6-31G*
  Basis Set:
  @DF-RHF Final Energy:  -383.93888956863549
    Total Energy =                       -383.9388895686354317
  Basis Set: 6-31G*
  Basis Set:
  Charge       = 0
  Multiplicity = 1
  Basis Set: 6-31G*
  Basis Set:

    Orbital Energies (a.u.)
    -----------------------

    Doubly Occupied:

       1A    -20.605444     2A    -20.544571     3A    -11.373365
       4A    -11.281389     5A    -11.235910     6A    -11.222687
       7A    -11.213349     8A    -11.207604     9A     -1.470412
      10A     -1.362875    11A     -1.086020    12A     -1.022068
      13A     -0.969423    14A     -0.885291    15A     -0.807762
      16A     -0.766295    17A     -0.698547    18A     -0.680373
      19A     -0.671584    20A     -0.635443    21A     -0.601716
      22A     -0.588823    23A     -0.581785    24A     -0.538133
      25A     -0.536880    26A     -0.518026    27A     -0.508636
      28A     -0.478704    29A     -0.471145    30A     -0.463546
      31A     -0.455006    32A     -0.433525

  @DF-RHF Final Energy:  -383.93889004288638

   => Energetics <=

    Nuclear Repulsion Energy =            389.5161565191302202
    One-Electron Energy =               -1295.0774145643681550
    Two-Electron Energy =                 521.6223680023514362
    DFT Exchange-Correlation Energy =       0.0000000000000000
    Empirical Dispersion Energy =           0.0000000000000000
    PCM Polarization Energy =               0.0000000000000000
    EFP Energy =                            0.0000000000000000
    Total Energy =                       -383.9388900428865554
    Molecular point group: c1
  Basis Set: 6-31G*
  Basis Set:

  -Total Gradient:
     Atom            X                  Y                   Z
    ------   -----------------  -----------------  -----------------
       1        0.000029945429     0.000043126764    -0.000024038572
       2        0.000003266504    -0.000078899144     0.000037940216
       3        0.002764067385     0.003419234949    -0.003350237456
       4       -0.000016143172     0.000051202136     0.000003528138
       5        0.003115083728     0.004098889243    -0.000675532937
       6       -0.002809736137    -0.003494093336     0.002869536199
       7        0.000000307907     0.000009983429     0.000007841601
       8       -0.000022437501    -0.000007959289    -0.000022786272
       9       -0.003126607799    -0.004052276788     0.001163133160
      10        0.000021314464     0.000006483102    -0.000015250608
      11        0.000006417841     0.000014196821     0.000012221196
      12        0.000012485878    -0.000002003116     0.000000317100
      13        0.000002012501    -0.000000163317    -0.000000973228
      14       -0.000006519500    -0.000004277958     0.000003936037
      15        0.000006415622    -0.000000365254     0.000005160819
      16       -0.000002798055     0.000000640966    -0.000010046256
      17        0.000012005595    -0.000014590105     0.000000871275
      18       -0.000003167783     0.000001008497    -0.000000670159
      19        0.000013656454     0.000007479924    -0.000000838110
      20        0.000000430632     0.000002382479    -0.000004112145

  **** Optimization is complete! (in 12 steps) ****
    Final optimized geometry and variables:
    Molecular point group: c1

    Geometry (in Angstrom), charge = 0, multiplicity = 1:

    O            0.979863869032     0.671171100919     0.905536885243
    C            0.804784161990    -0.392070630286     0.401195254887
    C           -0.530429145309    -1.081932029491     0.272716200237
    O            1.791134274523    -1.140353335280    -0.072369544014
    C           -1.748197650888    -0.153898337485     0.216082953456
    H           -0.518141662487    -1.775342531187    -0.559616452111
    H           -0.610251714246    -1.711968660294     1.157578771995
    C           -1.689814996388     0.940226266501    -0.850875074520
    H           -1.931019972112     0.267888597980     1.199300132607
    H           -2.609359104814    -0.788388187470     0.014788254991
    C           -2.989800343132     1.739757626153    -0.932218015119
    H           -0.866011336434     1.611779461436    -0.641200578759
    H           -1.487244167161     0.484077354037    -1.818787293594
    H           -3.208846263932     2.224981397410     0.014578880227
    H           -2.926381679846     2.512538528500    -1.691832178681
    H           -3.832913265155     1.100610381819    -1.179699013573
    C            3.105117711439    -0.627491036777     0.056309279329
    H            3.199855312789     0.309648785988    -0.472871637770
    H            3.755454157392    -1.370355044022    -0.378494050369
    H            3.353173566671    -0.474750068752     1.096792895814

  Mulliken Charges: (a.u.)
   Center  Symbol    Alpha    Beta     Spin     Total
       1     O     4.28826  4.28826  0.00000 -0.57652
       2     C     2.60383  2.60383  0.00000  0.79235
       3     C     3.21238  3.21238  0.00000 -0.42476
       4     O     4.30544  4.30544  0.00000 -0.61089
       5     C     3.14944  3.14944  0.00000 -0.29889
       6     H     0.40003  0.40003  0.00000  0.19994
       7     H     0.39843  0.39843  0.00000  0.20314
       8     C     3.16143  3.16143  0.00000 -0.32286
       9     H     0.41154  0.41154  0.00000  0.17692
      10     H     0.42012  0.42012  0.00000  0.15976
      11     C     3.24050  3.24050  0.00000 -0.48099
      12     H     0.40323  0.40323  0.00000  0.19355
      13     H     0.42564  0.42564  0.00000  0.14873
      14     H     0.41945  0.41945  0.00000  0.16111
      15     H     0.41834  0.41834  0.00000  0.16333
      16     H     0.42332  0.42332  0.00000  0.15337
      17     C     3.09285  3.09285  0.00000 -0.18569
      18     H     0.40853  0.40853  0.00000  0.18295
      19     H     0.40826  0.40826  0.00000  0.18348
      20     H     0.40901  0.40901  0.00000  0.18199

   Total alpha = 32.00000, Total beta = 32.00000, Total charge = -0.00000
