  ==> Input File <==

--------------------------------------------------------------------------
set {
	reference rhf
	basis 6-31G*
}

set_num_threads( 4 )
memory 2 gb

molecule MOL {
0 1

H	 -2.798360	 -0.862255	 -0.071053
N	 -1.863561	 -0.715187	 0.256814
C	 -1.344686	 0.554728	 -0.219830
H	 -1.300452	 -1.461917	 -0.101532
C	 0.081427	 0.741154	 0.254071
H	 -1.362155	 0.656231	 -1.305829
H	 -1.952773	 1.354456	 0.191809
O	 0.874168	 -0.245412	 -0.342030
H	 0.444037	 1.730782	 -0.023037
H	 0.121165	 0.653424	 1.337565
C	 1.597991	 0.190322	 -1.448279
H	 2.166005	 -0.651237	 -1.820885
H	 0.940285	 0.547766	 -2.238619
H	 2.285701	 0.990726	 -1.183291

	symmetry c1
}
set optking {
	frozen_dihedral = ("
		11 8 5 3
	")
}

ee = optimize('scf')
oeprop('DIPOLE', 'QUADRUPOLE', 'MULLIKEN_CHARGES')
f=open( 'psi4out.xyz', 'w' )
f.write( "14  " )
f.write( str(ee) + "\n" )
f.write( MOL.save_string_xyz() )
f.close()
--------------------------------------------------------------------------

    Molecular point group: c1
  Charge       = 0
  Multiplicity = 1
  Basis Set: 6-31G*
  Basis Set:
  @DF-RHF Final Energy:  -248.12053163530427
    Total Energy =                       -248.1205316353043031
    Molecular point group: c1
  Basis Set: 6-31G*
  Basis Set:
  Basis Set: 6-31G*
  Basis Set:
  @DF-RHF Final Energy:  -248.12134834428886
    Total Energy =                       -248.1213483442886627
  Basis Set: 6-31G*
  Basis Set:
  Basis Set: 6-31G*
  Basis Set:
  @DF-RHF Final Energy:  -248.12152101712729
    Total Energy =                       -248.1215210171269518
  Basis Set: 6-31G*
  Basis Set:
  Basis Set: 6-31G*
  Basis Set:
  @DF-RHF Final Energy:  -248.12152438060212
    Total Energy =                       -248.1215243806020112
  Basis Set: 6-31G*
  Basis Set:
  Charge       = 0
  Multiplicity = 1
  Basis Set: 6-31G*
  Basis Set:

    Orbital Energies (a.u.)
    -----------------------

    Doubly Occupied:

       1A    -20.556198     2A    -15.529098     3A    -11.268409
       4A    -11.266112     5A    -11.241663     6A     -1.378312
       7A     -1.174351     8A     -0.996998     9A     -0.915487
      10A     -0.812356    11A     -0.684142    12A     -0.673951
      13A     -0.641385    14A     -0.618639    15A     -0.600166
      16A     -0.542909    17A     -0.531423    18A     -0.507491
      19A     -0.469943    20A     -0.415632    21A     -0.378219

  @DF-RHF Final Energy:  -248.12152490747101

   => Energetics <=

    Nuclear Repulsion Energy =            195.4726560697394291
    One-Electron Energy =                -724.7825940508171243
    Two-Electron Energy =                 281.1884130736067959
    DFT Exchange-Correlation Energy =       0.0000000000000000
    Empirical Dispersion Energy =           0.0000000000000000
    PCM Polarization Energy =               0.0000000000000000
    EFP Energy =                            0.0000000000000000
    Total Energy =                       -248.1215249074709277
    Molecular point group: c1
  Basis Set: 6-31G*
  Basis Set:

  -Total Gradient:
     Atom            X                  Y                   Z
    ------   -----------------  -----------------  -----------------
       1        0.000003668989     0.000015570117     0.000006365180
       2        0.000001933566     0.000022409809    -0.000008968297
       3       -0.000138846148    -0.000597827748     0.000730935355
       4        0.000003526015     0.000034891443     0.000006890538
       5        0.000567196190     0.000887290073    -0.000723432245
       6       -0.000019577843    -0.000006061125    -0.000003351970
       7       -0.000025800303    -0.000016443262     0.000000867395
       8       -0.001218108000    -0.000659871412    -0.000669355141
       9        0.000002807209    -0.000016291416    -0.000019902829
      10        0.000001427937     0.000013599311     0.000018406589
      11        0.000819955838     0.000311197971     0.000673170939
      12       -0.000000994644     0.000005439216    -0.000001439658
      13       -0.000000663395     0.000001837396    -0.000003165756
      14        0.000003474593     0.000004259627    -0.000007020099

  **** Optimization is complete! (in 5 steps) ****
    Final optimized geometry and variables:
    Molecular point group: c1

    Geometry (in Angstrom), charge = 0, multiplicity = 1:

    H           -2.676380767319    -0.976675299068     0.249144728975
    N           -1.746869272446    -0.809918492706     0.581978485631
    C           -1.248432458392     0.470683169495     0.114723608301
    H           -1.164894406187    -1.545739703638     0.231018355598
    C            0.193681949750     0.649737512678     0.557235868823
    H           -1.307139361018     0.593145534018    -0.969519311947
    H           -1.849058033714     1.260092093038     0.557359471439
    O            1.023391881186    -0.326100076596    -0.020319216958
    H            0.546735594363     1.647686334010     0.308511712803
    H            0.252386536924     0.524094251708     1.631019641403
    C            1.755540425126     0.086733156367    -1.131801986041
    H            2.323324956119    -0.765140143431    -1.480725192448
    H            1.113941563747     0.431315061662    -1.940138485300
    H            2.446540170994     0.886584008376    -0.875137154949

  Mulliken Charges: (a.u.)
   Center  Symbol    Alpha    Beta     Spin     Total
       1     H     0.33277  0.33277  0.00000  0.33447
       2     N     3.92431  3.92431  0.00000 -0.84863
       3     C     3.06678  3.06678  0.00000 -0.13357
       4     H     0.32417  0.32417  0.00000  0.35165
       5     C     2.99836  2.99836  0.00000  0.00328
       6     H     0.43397  0.43397  0.00000  0.13207
       7     H     0.42141  0.42141  0.00000  0.15718
       8     O     4.31004  4.31004  0.00000 -0.62007
       9     H     0.42918  0.42918  0.00000  0.14163
      10     H     0.40807  0.40807  0.00000  0.18386
      11     C     3.08026  3.08026  0.00000 -0.16051
      12     H     0.41220  0.41220  0.00000  0.17561
      13     H     0.43082  0.43082  0.00000  0.13835
      14     H     0.42765  0.42765  0.00000  0.14469

   Total alpha = 21.00000, Total beta = 21.00000, Total charge = -0.00000
