  ==> Input File <==

--------------------------------------------------------------------------
set {
	reference rhf
	basis 6-31G*
}

set_num_threads( 4 )
memory 2 gb

molecule MOL {
0 1

H	 -3.135461	 -1.215070	 0.001379
O	 -2.310168	 -0.871793	 -0.309793
C	 -2.026376	 0.340750	 0.341611
C	 -0.673256	 0.843270	 -0.132153
H	 -2.792215	 1.080697	 0.115987
H	 -2.013526	 0.200402	 1.421792
C	 0.486613	 -0.083066	 0.235839
H	 -0.715586	 0.970948	 -1.210718
H	 -0.508072	 1.829858	 0.297090
C	 1.840406	 0.433480	 -0.254303
H	 0.300215	 -1.068318	 -0.178947
H	 0.519509	 -0.203625	 1.318070
C	 2.158709	 1.840707	 0.249747
H	 2.623569	 -0.249761	 0.067497
H	 1.859206	 0.427732	 -1.342447
H	 2.181531	 1.871306	 1.335303
H	 3.124891	 2.179803	 -0.111433
H	 1.411446	 2.555225	 -0.084280

	symmetry c1
}
set optking {
	frozen_dihedral = ("
		14 10 7 11
	")
}

ee = optimize('scf')
oeprop('DIPOLE', 'QUADRUPOLE', 'MULLIKEN_CHARGES')
f=open( 'psi4out.xyz', 'w' )
f.write( "18  " )
f.write( str(ee) + "\n" )
f.write( MOL.save_string_xyz() )
f.close()
--------------------------------------------------------------------------

    Molecular point group: c1
  Charge       = 0
  Multiplicity = 1
  Basis Set: 6-31G*
  Basis Set:
  @DF-RHF Final Energy:  -271.17704781649996
    Total Energy =                       -271.1770478165000213
    Molecular point group: c1
  Basis Set: 6-31G*
  Basis Set:
  Basis Set: 6-31G*
  Basis Set:
  @DF-RHF Final Energy:  -271.17756169794745
    Total Energy =                       -271.1775616979476240
  Basis Set: 6-31G*
  Basis Set:
  Basis Set: 6-31G*
  Basis Set:
  @DF-RHF Final Energy:  -271.17812099249466
    Total Energy =                       -271.1781209924944278
  Basis Set: 6-31G*
  Basis Set:
  Basis Set: 6-31G*
  Basis Set:
  @DF-RHF Final Energy:  -271.17816830669915
    Total Energy =                       -271.1781683066989217
  Basis Set: 6-31G*
  Basis Set:
  Basis Set: 6-31G*
  Basis Set:
  @DF-RHF Final Energy:  -271.17817099644935
    Total Energy =                       -271.1781709964495235
  Basis Set: 6-31G*
  Basis Set:
  Charge       = 0
  Multiplicity = 1
  Basis Set: 6-31G*
  Basis Set:

    Orbital Energies (a.u.)
    -----------------------

    Doubly Occupied:

       1A    -20.553080     2A    -11.268036     3A    -11.211422
       4A    -11.210908     5A    -11.206458     6A    -11.205187
       7A     -1.359790     8A     -1.074529     9A     -1.005787
      10A     -0.914827    11A     -0.829652    12A     -0.770457
      13A     -0.705566    14A     -0.634136    15A     -0.620177
      16A     -0.604956    17A     -0.566950    18A     -0.549959
      19A     -0.524652    20A     -0.501666    21A     -0.493289
      22A     -0.460415    23A     -0.457545    24A     -0.448507
      25A     -0.427553

  @DF-RHF Final Energy:  -271.17817152334692

   => Energetics <=

    Nuclear Repulsion Energy =            251.6694081772104710
    One-Electron Energy =                -866.4841516359688285
    Two-Electron Energy =                 343.6365719354113253
    DFT Exchange-Correlation Energy =       0.0000000000000000
    Empirical Dispersion Energy =           0.0000000000000000
    PCM Polarization Energy =               0.0000000000000000
    EFP Energy =                            0.0000000000000000
    Total Energy =                       -271.1781715233470322
    Molecular point group: c1
  Basis Set: 6-31G*
  Basis Set:

  -Total Gradient:
     Atom            X                  Y                   Z
    ------   -----------------  -----------------  -----------------
       1       -0.000004416995    -0.000005049202    -0.000007919598
       2       -0.000057451530     0.000027999303    -0.000017123387
       3        0.000051755821    -0.000045249832     0.000080496152
       4        0.000004515585     0.000028281327    -0.000065818562
       5        0.000007919681    -0.000018585768    -0.000013386906
       6       -0.000020767905     0.000005888884     0.000015055192
       7        0.001054158754    -0.000696185915     0.002019801409
       8        0.000017626385     0.000009943521    -0.000016337526
       9       -0.000002387789     0.000004329616    -0.000007634199
      10       -0.000483754377    -0.000962405168    -0.002059777459
      11       -0.000773975395     0.000743454125    -0.001367811936
      12        0.000005555463    -0.000008043822    -0.000001104588
      13       -0.000018745368    -0.000002091851     0.000003517759
      14        0.000237484426     0.000920088371     0.001442117589
      15       -0.000011165546    -0.000000339898     0.000003593437
      16       -0.000006541151    -0.000003648174    -0.000004575841
      17        0.000002793448    -0.000009528866     0.000002349630
      18       -0.000002603502     0.000011143352    -0.000005441165

  **** Optimization is complete! (in 6 steps) ****
    Final optimized geometry and variables:
    Molecular point group: c1

    Geometry (in Angstrom), charge = 0, multiplicity = 1:

    H           -2.959456029349    -1.678005427724    -0.118046745493
    O           -2.142855198502    -1.289601492573    -0.397487198941
    C           -1.913226840020    -0.103065531379     0.319942582098
    C           -0.569442683854     0.470666748021    -0.098239992757
    H           -2.700052222691     0.620684155813     0.115194956213
    H           -1.917004132062    -0.297447097971     1.391864849867
    C            0.610907575286    -0.434258884526     0.266443337468
    H           -0.589794709976     0.635864590485    -1.172832179376
    H           -0.463188090785     1.445101162431     0.371031585185
    C            1.964553934697     0.044612846448    -0.270327730022
    H            0.409501969778    -1.422948553169    -0.130859347714
    H            0.666109026751    -0.531346034633     1.349923508308
    C            2.377429005104     1.444211740676     0.191281345279
    H            2.727289988419    -0.658629412620     0.055211727665
    H            1.954383752110     0.011085985289    -1.357396213582
    H            2.363225571342     1.518454309033     1.275751390166
    H            3.384506117897     1.677271673220    -0.140919194012
    H            1.720647637245     2.213328310704    -0.201592202626

  Mulliken Charges: (a.u.)
   Center  Symbol    Alpha    Beta     Spin     Total
       1     H     0.28055  0.28055  0.00000  0.43891
       2     O     4.36985  4.36985  0.00000 -0.73969
       3     C     2.99688  2.99688  0.00000  0.00623
       4     C     3.16260  3.16260  0.00000 -0.32520
       5     H     0.42914  0.42914  0.00000  0.14172
       6     H     0.43268  0.43268  0.00000  0.13464
       7     C     3.15576  3.15576  0.00000 -0.31152
       8     H     0.41563  0.41563  0.00000  0.16874
       9     H     0.42181  0.42181  0.00000  0.15637
      10     C     3.15259  3.15259  0.00000 -0.30518
      11     H     0.40540  0.40540  0.00000  0.18920
      12     H     0.42780  0.42780  0.00000  0.14439
      13     C     3.24199  3.24199  0.00000 -0.48399
      14     H     0.42149  0.42149  0.00000  0.15702
      15     H     0.42193  0.42193  0.00000  0.15614
      16     H     0.42347  0.42347  0.00000  0.15306
      17     H     0.41962  0.41962  0.00000  0.16076
      18     H     0.42080  0.42080  0.00000  0.15840

   Total alpha = 25.00000, Total beta = 25.00000, Total charge = -0.00000
