  ==> Input File <==

--------------------------------------------------------------------------
set {
	reference rhf
	basis 6-31G*
}

set_num_threads( 4 )
memory 2 gb

molecule MOL {
0 1

H	 1.019101	 -2.430189	 1.035063
C	 1.036701	 -1.505316	 1.624217
C	 -0.212849	 -0.667209	 1.539724
O	 1.995615	 -1.226133	 2.268165
C	 -0.558097	 -0.297372	 0.091132
H	 -0.071033	 0.216807	 2.150367
H	 -1.030234	 -1.245638	 1.968830
C	 -1.850991	 0.512573	 -0.019058
H	 0.262595	 0.272238	 -0.338731
H	 -0.649869	 -1.203899	 -0.504389
C	 -3.096943	 -0.368295	 -0.099594
H	 -1.800724	 1.150330	 -0.898172
H	 -1.931651	 1.177355	 0.838044
H	 -3.060452	 -1.020287	 -0.967456
H	 -3.996858	 0.233488	 -0.175704
H	 -3.191959	 -0.995686	 0.782074

	symmetry c1
}
set optking {
	frozen_dihedral = ("
		9 5 8 12
	")
}

ee = optimize('scf')
oeprop('DIPOLE', 'QUADRUPOLE', 'MULLIKEN_CHARGES')
f=open( 'psi4out.xyz', 'w' )
f.write( "16  " )
f.write( str(ee) + "\n" )
f.write( MOL.save_string_xyz() )
f.close()
--------------------------------------------------------------------------

    Molecular point group: c1
  Charge       = 0
  Multiplicity = 1
  Basis Set: 6-31G*
  Basis Set:
  @DF-RHF Final Energy:  -270.01692175382209
    Total Energy =                       -270.0169217538222028
    Molecular point group: c1
  Basis Set: 6-31G*
  Basis Set:
  Basis Set: 6-31G*
  Basis Set:
  @DF-RHF Final Energy:  -270.01697859983790
    Total Energy =                       -270.0169785998379552
  Basis Set: 6-31G*
  Basis Set:
  Basis Set: 6-31G*
  Basis Set:
  @DF-RHF Final Energy:  -270.01697825842098
    Total Energy =                       -270.0169782584212044
  Basis Set: 6-31G*
  Basis Set:
  Basis Set: 6-31G*
  Basis Set:
  @DF-RHF Final Energy:  -270.01716640311696
    Total Energy =                       -270.0171664031169598
  Basis Set: 6-31G*
  Basis Set:
  Basis Set: 6-31G*
  Basis Set:
  @DF-RHF Final Energy:  -270.01717594242683
    Total Energy =                       -270.0171759424267748
  Basis Set: 6-31G*
  Basis Set:
  Basis Set: 6-31G*
  Basis Set:
  @DF-RHF Final Energy:  -270.01717920928252
    Total Energy =                       -270.0171792092824603
  Basis Set: 6-31G*
  Basis Set:
  Charge       = 0
  Multiplicity = 1
  Basis Set: 6-31G*
  Basis Set:

    Orbital Energies (a.u.)
    -----------------------

    Doubly Occupied:

       1A    -20.562496     2A    -11.326525     3A    -11.236617
       4A    -11.235382     5A    -11.229373     6A    -11.220190
       7A     -1.402296     8A     -1.095947     9A     -1.016863
      10A     -0.911188    11A     -0.810037    12A     -0.793802
      13A     -0.677569    14A     -0.642032    15A     -0.633451
      16A     -0.605572    17A     -0.573396    18A     -0.563385
      19A     -0.525136    20A     -0.514052    21A     -0.487534
      22A     -0.483150    23A     -0.471071    24A     -0.409315

  @DF-RHF Final Energy:  -270.01717985803896

   => Energetics <=

    Nuclear Repulsion Energy =            230.8434514199622072
    One-Electron Energy =                -822.8685038076289402
    Two-Electron Energy =                 322.0078725296278890
    DFT Exchange-Correlation Energy =       0.0000000000000000
    Empirical Dispersion Energy =           0.0000000000000000
    PCM Polarization Energy =               0.0000000000000000
    EFP Energy =                            0.0000000000000000
    Total Energy =                       -270.0171798580388440
    Molecular point group: c1
  Basis Set: 6-31G*
  Basis Set:

  -Total Gradient:
     Atom            X                  Y                   Z
    ------   -----------------  -----------------  -----------------
       1       -0.000002496017    -0.000005391515     0.000000483720
       2        0.000015591813    -0.000006471602    -0.000012982439
       3       -0.000023636908    -0.000020471445    -0.000013365399
       4       -0.000021773702    -0.000006365216     0.000004085780
       5        0.000854601976     0.002118898995     0.003797422981
       6        0.000018504801     0.000009968115    -0.000004526367
       7       -0.000010543148     0.000014515929     0.000025636320
       8       -0.001544263678    -0.003122352291    -0.002709793512
       9       -0.000496579615    -0.001246634255    -0.002745500996
      10        0.000010020925     0.000008272740     0.000006328375
      11        0.000021819073     0.000009361534    -0.000001073487
      12        0.001176194793     0.002260987341     0.001650687998
      13        0.000002506046    -0.000004974395    -0.000004833796
      14       -0.000008674804     0.000008114906    -0.000004922925
      15       -0.000003382861     0.000001851726     0.000009199998
      16        0.000012111302    -0.000019310569     0.000003153752

  **** Optimization is complete! (in 7 steps) ****
    Final optimized geometry and variables:
    Molecular point group: c1

    Geometry (in Angstrom), charge = 0, multiplicity = 1:

    H            1.438308350841    -1.843343802312     0.131386648951
    C            1.478299597153    -0.919175978899     0.720332220419
    C            0.245999046799    -0.055434893803     0.643039420052
    O            2.447266723598    -0.658529052712     1.356955042686
    C           -0.092171409127     0.329807353670    -0.803328639056
    H            0.408229078760     0.823841426668     1.255203003012
    H           -0.578844063105    -0.619679463253     1.075509240640
    C           -1.408566880013     1.111326064778    -0.936299005688
    H            0.723020428836     0.910629556985    -1.225599750328
    H           -0.152605903827    -0.571185541891    -1.412059102696
    C           -2.650984476176     0.223815733223    -1.000166315903
    H           -1.360365223462     1.742050454147    -1.819141776942
    H           -1.499140448959     1.798476359479    -0.097878222764
    H           -2.622706127809    -0.424440543838    -1.871138499302
    H           -3.553754494980     0.822918018164    -1.062417839775
    H           -2.739117281756    -0.407672136339    -0.120900183483

  Mulliken Charges: (a.u.)
   Center  Symbol    Alpha    Beta     Spin     Total
       1     H     0.43205  0.43205  0.00000  0.13590
       2     C     2.82995  2.82995  0.00000  0.34010
       3     C     3.20847  3.20847  0.00000 -0.41695
       4     O     4.23708  4.23708  0.00000 -0.47416
       5     C     3.16753  3.16753  0.00000 -0.33506
       6     H     0.39899  0.39899  0.00000  0.20203
       7     H     0.40925  0.40925  0.00000  0.18149
       8     C     3.15467  3.15467  0.00000 -0.30933
       9     H     0.41006  0.41006  0.00000  0.17987
      10     H     0.41928  0.41928  0.00000  0.16143
      11     C     3.24135  3.24135  0.00000 -0.48271
      12     H     0.41560  0.41560  0.00000  0.16879
      13     H     0.41886  0.41886  0.00000  0.16227
      14     H     0.41970  0.41970  0.00000  0.16059
      15     H     0.41574  0.41574  0.00000  0.16852
      16     H     0.42141  0.42141  0.00000  0.15718

   Total alpha = 24.00000, Total beta = 24.00000, Total charge = -0.00000
