  ==> Input File <==

--------------------------------------------------------------------------
set {
	reference rhf
	basis 6-31G*
}

set_num_threads( 1 )
memory 2 gb

molecule MOL {
0 1

H	 -4.236494	 0.538104	 0.039757
O	 -3.517110	 -0.026191	 -0.205115
C	 -2.306886	 0.532354	 0.237577
C	 -1.177863	 -0.397191	 -0.171080
H	 -2.156308	 1.517575	 -0.201710
H	 -2.315015	 0.655684	 1.319734
C	 0.198102	 0.111031	 0.262842
H	 -1.208843	 -0.518759	 -1.250427
H	 -1.368741	 -1.376554	 0.258909
C	 1.331804	 -0.827780	 -0.158768
H	 0.361943	 1.100838	 -0.156218
H	 0.217265	 0.229072	 1.345532
C	 2.723619	 -0.410569	 0.329459
H	 1.342964	 -0.912588	 -1.244120
H	 1.116806	 -1.824343	 0.220779
C	 2.937921	 1.101226	 0.423727
H	 3.464463	 -0.825570	 -0.349520
H	 2.915092	 -0.863943	 1.300003
H	 2.741146	 1.583349	 -0.530147
H	 2.290912	 1.558314	 1.165095
H	 3.962328	 1.328446	 0.702500

	symmetry c1
}
set optking {
	frozen_dihedral = ("
		2 3 4 8,
		8 4 7 10,
		4 7 10 14,
		1 2 3 5
	")
}

ee = energy('scf')
oeprop('DIPOLE', 'QUADRUPOLE', 'MULLIKEN_CHARGES')
f=open( 'psi4out.xyz', 'w' )
f.write( "21  " )
f.write( str(ee) + "\n" )
f.write( MOL.save_string_xyz() )
f.close()
--------------------------------------------------------------------------

    Molecular point group: c1

    Geometry (in Angstrom), charge = 0, multiplicity = 1:

       Center              X                  Y                   Z               Mass
    ------------   -----------------  -----------------  -----------------  -----------------
           H         -4.191518306747     0.507775374558    -0.062539769995     1.007825032070
           O         -3.472134306747    -0.056519625442    -0.307411769995    15.994914619560
           C         -2.261910306747     0.502025374558     0.135280230005    12.000000000000
           C         -1.132887306747    -0.427519625442    -0.273376769995    12.000000000000
           H         -2.111332306747     1.487246374558    -0.304006769995     1.007825032070
           H         -2.270039306747     0.625355374558     1.217437230005     1.007825032070
           C          0.243077693253     0.080702374558     0.160545230005    12.000000000000
           H         -1.163867306747    -0.549087625442    -1.352723769995     1.007825032070
           H         -1.323765306747    -1.406882625442     0.156612230005     1.007825032070
           C          1.376779693253    -0.858108625442    -0.261064769995    12.000000000000
           H          0.406918693253     1.070509374558    -0.258514769995     1.007825032070
           H          0.262240693253     0.198743374558     1.243235230005     1.007825032070
           C          2.768594693253    -0.440897625442     0.227162230005    12.000000000000
           H          1.387939693253    -0.942916625442    -1.346416769995     1.007825032070
           H          1.161781693253    -1.854671625442     0.118482230005     1.007825032070
           C          2.982896693253     1.070897374558     0.321430230005    12.000000000000
           H          3.509438693253    -0.855898625442    -0.451816769995     1.007825032070
           H          2.960067693253    -0.894271625442     1.197706230005     1.007825032070
           H          2.786121693253     1.553020374558    -0.632443769995     1.007825032070
           H          2.335887693253     1.527985374558     1.062798230005     1.007825032070
           H          4.007303693253     1.298117374558     0.600203230005     1.007825032070

  Charge       = 0
  Multiplicity = 1
  Basis Set: 6-31G*
  Basis Set:

    Orbital Energies (a.u.)
    -----------------------

    Doubly Occupied:

       1A    -20.551680     2A    -11.266850     3A    -11.215295
       4A    -11.214529     5A    -11.212952     6A    -11.210202
       7A    -11.208060     8A     -1.358504     9A     -1.087057
      10A     -1.032307    11A     -0.952343    12A     -0.879917
      13A     -0.809355    14A     -0.772000    15A     -0.692052
      16A     -0.662747    17A     -0.629173    18A     -0.600663
      19A     -0.583901    20A     -0.573825    21A     -0.535239
      22A     -0.524857    23A     -0.505623    24A     -0.486176
      25A     -0.483636    26A     -0.458329    27A     -0.450972
      28A     -0.443625    29A     -0.433786

  @DF-RHF Final Energy:  -310.20847325907641

   => Energetics <=

    Nuclear Repulsion Energy =            314.3505856481207275
    One-Electron Energy =               -1043.4468536904182656
    Two-Electron Energy =                 418.8877947832212385
    DFT Exchange-Correlation Energy =       0.0000000000000000
    Empirical Dispersion Energy =           0.0000000000000000
    PCM Polarization Energy =               0.0000000000000000
    EFP Energy =                            0.0000000000000000
    Total Energy =                       -310.2084732590762997

  Mulliken Charges: (a.u.)
   Center  Symbol    Alpha    Beta     Spin     Total
       1     H     0.28121  0.28121  0.00000  0.43758
       2     O     4.37184  4.37184  0.00000 -0.74369
       3     C     2.98956  2.98956  0.00000  0.02088
       4     C     3.15841  3.15841  0.00000 -0.31682
       5     H     0.43300  0.43300  0.00000  0.13399
       6     H     0.43301  0.43301  0.00000  0.13398
       7     C     3.16475  3.16475  0.00000 -0.32951
       8     H     0.41497  0.41497  0.00000  0.17006
       9     H     0.41502  0.41502  0.00000  0.16996
      10     C     3.15240  3.15240  0.00000 -0.30480
      11     H     0.42002  0.42002  0.00000  0.15996
      12     H     0.42383  0.42383  0.00000  0.15235
      13     C     3.15234  3.15234  0.00000 -0.30469
      14     H     0.42204  0.42204  0.00000  0.15592
      15     H     0.42037  0.42037  0.00000  0.15926
      16     C     3.24425  3.24425  0.00000 -0.48850
      17     H     0.42037  0.42037  0.00000  0.15927
      18     H     0.42225  0.42225  0.00000  0.15551
      19     H     0.42202  0.42202  0.00000  0.15596
      20     H     0.41945  0.41945  0.00000  0.16110
      21     H     0.41888  0.41888  0.00000  0.16225

   Total alpha = 29.00000, Total beta = 29.00000, Total charge = -0.00000
