  ==> Input File <==

--------------------------------------------------------------------------
set {
	reference rhf
	basis 6-31G*
}

set_num_threads( 1 )
memory 2 gb

molecule MOL {
0 1

H	 -2.010887	 -0.298105	 -0.885017
O	 -1.422729	 -0.573567	 -0.196946
C	 -0.731407	 0.539437	 0.309156
C	 0.680193	 0.672443	 -0.251532
H	 -1.319765	 1.404033	 0.030086
H	 -0.700012	 0.506517	 1.397677
C	 1.599139	 -0.492137	 0.118598
H	 0.616402	 0.758534	 -1.332349
H	 1.107032	 1.602637	 0.117369
H	 1.239738	 -1.428634	 -0.297334
H	 2.601428	 -0.335055	 -0.265730
H	 1.674954	 -0.608418	 1.197020

	symmetry c1
}
set optking {
	frozen_dihedral = ("
		8 4 3 2
	")
}

ee = energy('scf')
oeprop('DIPOLE', 'QUADRUPOLE', 'MULLIKEN_CHARGES')
f=open( 'psi4out.xyz', 'w' )
f.write( "12  " )
f.write( str(ee) + "\n" )
f.write( MOL.save_string_xyz() )
f.close()
--------------------------------------------------------------------------

    Molecular point group: c1

    Geometry (in Angstrom), charge = 0, multiplicity = 1:

       Center              X                  Y                   Z               Mass
    ------------   -----------------  -----------------  -----------------  -----------------
           H         -1.995113300130    -0.316034507538    -0.867133343251     1.007825032070
           O         -1.406955300130    -0.591496507538    -0.179062343251    15.994914619560
           C         -0.715633300130     0.521507492462     0.327039656749    12.000000000000
           C          0.695966699870     0.654513492462    -0.233648343251    12.000000000000
           H         -1.303991300130     1.386103492462     0.047969656749     1.007825032070
           H         -0.684238300130     0.488587492462     1.415560656749     1.007825032070
           C          1.614912699870    -0.510066507538     0.136481656749    12.000000000000
           H          0.632175699870     0.740604492462    -1.314465343251     1.007825032070
           H          1.122805699870     1.584707492462     0.135252656749     1.007825032070
           H          1.255511699870    -1.446563507538    -0.279450343251     1.007825032070
           H          2.617201699870    -0.352984507538    -0.247846343251     1.007825032070
           H          1.690727699870    -0.626347507538     1.214903656749     1.007825032070

  Charge       = 0
  Multiplicity = 1
  Basis Set: 6-31G*
  Basis Set:

    Orbital Energies (a.u.)
    -----------------------

    Doubly Occupied:

       1A    -20.551653     2A    -11.268859     3A    -11.216027
       4A    -11.205178     5A     -1.359792     6A     -1.046216
       7A     -0.918926     8A     -0.806132     9A     -0.694029
      10A     -0.641417    11A     -0.605956    12A     -0.567245
      13A     -0.530677    14A     -0.513662    15A     -0.482326
      16A     -0.463481    17A     -0.427578

  @DF-RHF Final Energy:  -193.10742448607257

   => Energetics <=

    Nuclear Repulsion Energy =            132.6146653381190106
    One-Electron Energy =                -524.8460546174206911
    Two-Electron Energy =                 199.1239647932292200
    DFT Exchange-Correlation Energy =       0.0000000000000000
    Empirical Dispersion Energy =           0.0000000000000000
    PCM Polarization Energy =               0.0000000000000000
    EFP Energy =                            0.0000000000000000
    Total Energy =                       -193.1074244860724320

  Mulliken Charges: (a.u.)
   Center  Symbol    Alpha    Beta     Spin     Total
       1     H     0.27939  0.27939  0.00000  0.44122
       2     O     4.37127  4.37127  0.00000 -0.74254
       3     C     2.99744  2.99744  0.00000  0.00512
       4     C     3.15727  3.15727  0.00000 -0.31453
       5     H     0.43160  0.43160  0.00000  0.13680
       6     H     0.42047  0.42047  0.00000  0.15905
       7     C     3.24157  3.24157  0.00000 -0.48313
       8     H     0.42378  0.42378  0.00000  0.15243
       9     H     0.42456  0.42456  0.00000  0.15087
      10     H     0.40924  0.40924  0.00000  0.18152
      11     H     0.42075  0.42075  0.00000  0.15851
      12     H     0.42267  0.42267  0.00000  0.15467

   Total alpha = 17.00000, Total beta = 17.00000, Total charge = -0.00000
