  ==> Input File <==

--------------------------------------------------------------------------
set {
	reference rhf
	basis 6-31G*
}

set_num_threads( 4 )
memory 2 gb

molecule MOL {
0 1

H	 2.121956	 -1.182019	 0.891705
O	 2.016064	 -0.864478	 0.000222
C	 1.050492	 0.053836	 0.000068
C	 -0.318135	 -0.576402	 0.000164
O	 1.285279	 1.218255	 -0.000078
C	 -1.454360	 0.441875	 -0.000474
H	 -0.374042	 -1.230163	 -0.866135
H	 -0.374274	 -1.229227	 0.867154
C	 -2.826123	 -0.230780	 0.000056
H	 -1.357605	 1.085198	 -0.868380
H	 -1.357504	 1.086451	 0.866496
H	 -2.959731	 -0.858053	 -0.876869
H	 -3.619374	 0.509403	 -0.000080
H	 -2.959371	 -0.857318	 0.877556

	symmetry c1
}
set optking {
	frozen_dihedral = ("
		1 2 3 5
	")
}

ee = optimize('scf')
oeprop('DIPOLE', 'QUADRUPOLE', 'MULLIKEN_CHARGES')
f=open( 'psi4out.xyz', 'w' )
f.write( "14  " )
f.write( str(ee) + "\n" )
f.write( MOL.save_string_xyz() )
f.close()
--------------------------------------------------------------------------

    Molecular point group: c1
  Charge       = 0
  Multiplicity = 1
  Basis Set: 6-31G*
  Basis Set:
  @DF-RHF Final Energy:  -305.85741600495214
    Total Energy =                       -305.8574160049520287
    Molecular point group: c1
  Basis Set: 6-31G*
  Basis Set:
  Basis Set: 6-31G*
  Basis Set:
  @DF-RHF Final Energy:  -305.85859659192738
    Total Energy =                       -305.8585965919274940
  Basis Set: 6-31G*
  Basis Set:
  Basis Set: 6-31G*
  Basis Set:
  @DF-RHF Final Energy:  -305.85738636115093
    Total Energy =                       -305.8573863611511570
  Basis Set: 6-31G*
  Basis Set:
  Basis Set: 6-31G*
  Basis Set:
  @DF-RHF Final Energy:  -305.85915412049309
    Total Energy =                       -305.8591541204931445
  Basis Set: 6-31G*
  Basis Set:
  Basis Set: 6-31G*
  Basis Set:
  @DF-RHF Final Energy:  -305.85917001608658
    Total Energy =                       -305.8591700160866367
  Basis Set: 6-31G*
  Basis Set:
  Basis Set: 6-31G*
  Basis Set:
  @DF-RHF Final Energy:  -305.85917114419129
    Total Energy =                       -305.8591711441909524
  Basis Set: 6-31G*
  Basis Set:
  Charge       = 0
  Multiplicity = 1
  Basis Set: 6-31G*
  Basis Set:

    Orbital Energies (a.u.)
    -----------------------

    Doubly Occupied:

       1A    -20.594704     2A    -20.562845     3A    -11.381916
       4A    -11.244861     5A    -11.227875     6A    -11.219428
       7A     -1.460346     8A     -1.368109     9A     -1.083983
      10A     -0.976730    11A     -0.851332    12A     -0.800150
      13A     -0.712938    14A     -0.673919    15A     -0.662517
      16A     -0.629887    17A     -0.579840    18A     -0.560448
      19A     -0.542679    20A     -0.505332    21A     -0.498010
      22A     -0.484845    23A     -0.481961    24A     -0.444437

  @DF-RHF Final Energy:  -305.85917123721708

   => Energetics <=

    Nuclear Repulsion Energy =            239.1273019610390520
    One-Electron Energy =                -890.8747619090374883
    Two-Electron Energy =                 345.8882887107814099
    DFT Exchange-Correlation Energy =       0.0000000000000000
    Empirical Dispersion Energy =           0.0000000000000000
    PCM Polarization Energy =               0.0000000000000000
    EFP Energy =                            0.0000000000000000
    Total Energy =                       -305.8591712372170264
    Molecular point group: c1
  Basis Set: 6-31G*
  Basis Set:

  -Total Gradient:
     Atom            X                  Y                   Z
    ------   -----------------  -----------------  -----------------
       1        0.000417229416     0.000446472541     0.000083134788
       2       -0.000490959078    -0.000600027648     0.000142817561
       3        0.000068741028     0.000134022748    -0.000763268466
       4       -0.000006182236     0.000000629523    -0.000004818857
       5       -0.000005149843     0.000012032973     0.000541751074
       6       -0.000007784485    -0.000000382635    -0.000004460504
       7        0.000002598800     0.000002894475     0.000002305429
       8        0.000006762703     0.000001751315     0.000005392806
       9        0.000007789264    -0.000002538189     0.000002524646
      10       -0.000000720402     0.000003573460    -0.000006621166
      11        0.000000289063     0.000000571044     0.000001700394
      12       -0.000001525604     0.000001843480    -0.000003532676
      13        0.000007070370     0.000001775857     0.000002844435
      14        0.000001841001    -0.000002618945     0.000000230536

  **** Optimization is complete! (in 7 steps) ****
    Final optimized geometry and variables:
    Molecular point group: c1

    Geometry (in Angstrom), charge = 0, multiplicity = 1:

    H            2.244241897544    -1.180275370075     0.878498319175
    O            2.063239769437    -0.859406747467     0.003427405547
    C            1.056432347656     0.058667269757     0.002497022302
    C           -0.320324348304    -0.560515974398    -0.000515553652
    O            1.280335162579     1.215503672041    -0.041872122055
    C           -1.457100574176     0.456744644772    -0.003595535112
    H           -0.371154697951    -1.212765275537    -0.868756060487
    H           -0.390017006195    -1.221113550305     0.862105737595
    C           -2.829791657727    -0.213976688837    -0.015511001202
    H           -1.352500000515     1.102845211783    -0.868277109124
    H           -1.366366457057     1.098643301726     0.866497932841
    H           -2.957734069025    -0.837223595075    -0.896044200253
    H           -3.622002569468     0.527242573733    -0.018377377225
    H           -2.970848091215    -0.844039812330     0.858403553970

  Mulliken Charges: (a.u.)
   Center  Symbol    Alpha    Beta     Spin     Total
       1     H     0.26691  0.26691  0.00000  0.46619
       2     O     4.36936  4.36936  0.00000 -0.73872
       3     C     2.62874  2.62874  0.00000  0.74251
       4     C     3.21056  3.21056  0.00000 -0.42113
       5     O     4.24455  4.24455  0.00000 -0.48911
       6     C     3.15246  3.15246  0.00000 -0.30491
       7     H     0.39685  0.39685  0.00000  0.20631
       8     H     0.41170  0.41170  0.00000  0.17661
       9     C     3.24294  3.24294  0.00000 -0.48589
      10     H     0.40801  0.40801  0.00000  0.18398
      11     H     0.41197  0.41197  0.00000  0.17606
      12     H     0.42017  0.42017  0.00000  0.15967
      13     H     0.41388  0.41388  0.00000  0.17224
      14     H     0.42190  0.42190  0.00000  0.15620

   Total alpha = 24.00000, Total beta = 24.00000, Total charge = -0.00000
