  ==> Input File <==

--------------------------------------------------------------------------
set {
	reference rhf
	basis 6-31G*
}

set_num_threads( 1 )
memory 2 gb

molecule MOL {
0 1

H	 -3.420663	 1.227371	 -1.044276
O	 -3.452007	 0.283848	 -0.965577
C	 -3.181085	 -0.079926	 0.364119
C	 -1.765924	 0.277073	 0.805136
H	 -3.327791	 -1.152017	 0.410903
H	 -3.905698	 0.375695	 1.036898
C	 -0.677594	 -0.417312	 -0.014550
H	 -1.637766	 1.358238	 0.744969
H	 -1.659588	 0.017670	 1.857098
C	 0.738335	 -0.034840	 0.421385
H	 -0.814977	 -0.178223	 -1.064632
H	 -0.802730	 -1.495410	 0.071702
C	 1.822265	 -0.738362	 -0.399735
H	 0.853533	 1.043532	 0.342250
H	 0.871597	 -0.279636	 1.474438
C	 1.744465	 -2.269355	 -0.386991
H	 2.802716	 -0.426391	 -0.043245
H	 1.753165	 -0.398193	 -1.430912
C	 2.010131	 -2.908245	 0.977430
H	 2.468671	 -2.656723	 -1.099564
H	 0.767005	 -2.582766	 -0.748306
H	 2.976417	 -2.602421	 1.369735
H	 2.013166	 -3.991353	 0.901896
H	 1.255343	 -2.635947	 1.707713

	symmetry c1
}
set optking {
	frozen_dihedral = ("
		20 16 13 17,
		13 10 7 11,
		11 7 4 3,
		1 2 3 5,
		7 4 3 2
	")
}

ee = energy('scf')
oeprop('DIPOLE', 'QUADRUPOLE', 'MULLIKEN_CHARGES')
f=open( 'psi4out.xyz', 'w' )
f.write( "24  " )
f.write( str(ee) + "\n" )
f.write( MOL.save_string_xyz() )
f.close()
--------------------------------------------------------------------------

    Molecular point group: c1

    Geometry (in Angstrom), charge = 0, multiplicity = 1:

       Center              X                  Y                   Z               Mass
    ------------   -----------------  -----------------  -----------------  -----------------
           H         -3.018204428188     1.950764621611    -1.132796250155     1.007825032070
           O         -3.049548428188     1.007241621611    -1.054097250155    15.994914619560
           C         -2.778626428188     0.643467621611     0.275598749845    12.000000000000
           C         -1.363465428188     1.000466621611     0.716615749845    12.000000000000
           H         -2.925332428188    -0.428623378389     0.322382749845     1.007825032070
           H         -3.503239428188     1.099088621611     0.948377749845     1.007825032070
           C         -0.275135428188     0.306081621611    -0.103070250155    12.000000000000
           H         -1.235307428188     2.081631621611     0.656448749845     1.007825032070
           H         -1.257129428188     0.741063621611     1.768577749845     1.007825032070
           C          1.140793571812     0.688553621611     0.332864749845    12.000000000000
           H         -0.412518428188     0.545170621611    -1.153152250155     1.007825032070
           H         -0.400271428188    -0.772016378389    -0.016818250155     1.007825032070
           C          2.224723571812    -0.014968378389    -0.488255250155    12.000000000000
           H          1.255991571812     1.766925621611     0.253729749845     1.007825032070
           H          1.274055571812     0.443757621611     1.385917749845     1.007825032070
           C          2.146923571812    -1.545961378389    -0.475511250155    12.000000000000
           H          3.205174571812     0.297002621611    -0.131765250155     1.007825032070
           H          2.155623571812     0.325200621611    -1.519432250155     1.007825032070
           C          2.412589571812    -2.184851378389     0.888909749845    12.000000000000
           H          2.871129571812    -1.933329378389    -1.188084250155     1.007825032070
           H          1.169463571812    -1.859372378389    -0.836826250155     1.007825032070
           H          3.378875571812    -1.879027378389     1.281214749845     1.007825032070
           H          2.415624571812    -3.267959378389     0.813375749845     1.007825032070
           H          1.657801571812    -1.912553378389     1.619192749845     1.007825032070

  Charge       = 0
  Multiplicity = 1
  Basis Set: 6-31G*
  Basis Set:

    Orbital Energies (a.u.)
    -----------------------

    Doubly Occupied:

       1A    -20.553625     2A    -11.267723     3A    -11.217429
       4A    -11.212622     5A    -11.212299     6A    -11.211416
       7A    -11.210337     8A    -11.207401     9A     -1.360212
      10A     -1.090608    11A     -1.045683    12A     -0.984340
      13A     -0.915822    14A     -0.853078    15A     -0.810380
      16A     -0.761346    17A     -0.680449    18A     -0.653507
      19A     -0.624317    20A     -0.617653    21A     -0.610030
      22A     -0.573205    23A     -0.557257    24A     -0.544660
      25A     -0.522119    26A     -0.509954    27A     -0.494330
      28A     -0.475085    29A     -0.468590    30A     -0.461278
      31A     -0.450459    32A     -0.444941    33A     -0.420051

  @DF-RHF Final Energy:  -349.24497568201957

   => Energetics <=

    Nuclear Repulsion Energy =            393.1404426221870381
    One-Electron Energy =               -1252.7262751558600939
    Two-Electron Energy =                 510.3408568516528021
    DFT Exchange-Correlation Energy =       0.0000000000000000
    Empirical Dispersion Energy =           0.0000000000000000
    PCM Polarization Energy =               0.0000000000000000
    EFP Energy =                            0.0000000000000000
    Total Energy =                       -349.2449756820202538

  Mulliken Charges: (a.u.)
   Center  Symbol    Alpha    Beta     Spin     Total
       1     H     0.28336  0.28336  0.00000  0.43328
       2     O     4.36833  4.36833  0.00000 -0.73666
       3     C     2.99604  2.99604  0.00000  0.00792
       4     C     3.16803  3.16803  0.00000 -0.33607
       5     H     0.41651  0.41651  0.00000  0.16698
       6     H     0.42822  0.42822  0.00000  0.14357
       7     C     3.15569  3.15569  0.00000 -0.31137
       8     H     0.42847  0.42847  0.00000  0.14306
       9     H     0.42258  0.42258  0.00000  0.15483
      10     C     3.15476  3.15476  0.00000 -0.30952
      11     H     0.41236  0.41236  0.00000  0.17527
      12     H     0.42127  0.42127  0.00000  0.15746
      13     C     3.15296  3.15296  0.00000 -0.30592
      14     H     0.42231  0.42231  0.00000  0.15539
      15     H     0.42376  0.42376  0.00000  0.15249
      16     C     3.15722  3.15722  0.00000 -0.31444
      17     H     0.42279  0.42279  0.00000  0.15442
      18     H     0.42208  0.42208  0.00000  0.15584
      19     C     3.24073  3.24073  0.00000 -0.48146
      20     H     0.42044  0.42044  0.00000  0.15911
      21     H     0.41916  0.41916  0.00000  0.16169
      22     H     0.42212  0.42212  0.00000  0.15576
      23     H     0.41921  0.41921  0.00000  0.16157
      24     H     0.42159  0.42159  0.00000  0.15682

   Total alpha = 33.00000, Total beta = 33.00000, Total charge = -0.00000
