  ==> Input File <==

--------------------------------------------------------------------------
set {
	reference rhf
	basis 6-31G*
}

set_num_threads( 1 )
memory 2 gb

molecule MOL {
0 1

H	 3.729471	 -0.928294	 -0.070608
O	 2.826016	 -1.159218	 0.122261
C	 2.077727	 -0.067559	 -0.035091
C	 0.624473	 -0.343591	 0.253101
O	 2.542965	 0.974826	 -0.363729
C	 -0.265902	 0.883932	 0.072916
H	 0.324016	 -1.163849	 -0.390541
H	 0.565024	 -0.726111	 1.268924
C	 -1.728698	 0.646073	 0.462102
H	 -0.209144	 1.219470	 -0.958188
H	 0.135059	 1.692851	 0.673903
C	 -2.387013	 -0.563588	 -0.207449
H	 -2.295816	 1.536928	 0.202262
H	 -1.805191	 0.545163	 1.543824
C	 -3.870943	 -0.689794	 0.136789
H	 -2.272484	 -0.481944	 -1.286459
H	 -1.878481	 -1.478231	 0.086157
H	 -4.314690	 -1.554133	 -0.347278
H	 -4.423510	 0.188996	 -0.182939
H	 -4.016772	 -0.799408	 1.207750

	symmetry c1
}
set optking {
	frozen_dihedral = ("
		16 12 9 6,
		7 4 6 10,
		5 3 4 7,
		1 2 3 5
	")
}

ee = energy('scf')
oeprop('DIPOLE', 'QUADRUPOLE', 'MULLIKEN_CHARGES')
f=open( 'psi4out.xyz', 'w' )
f.write( "20  " )
f.write( str(ee) + "\n" )
f.write( MOL.save_string_xyz() )
f.close()
--------------------------------------------------------------------------

    Molecular point group: c1

    Geometry (in Angstrom), charge = 0, multiplicity = 1:

       Center              X                  Y                   Z               Mass
    ------------   -----------------  -----------------  -----------------  -----------------
           H          3.706377471162    -0.872063313083    -0.123041117002     1.007825032070
           O          2.802922471162    -1.102987313083     0.069827882998    15.994914619560
           C          2.054633471162    -0.011328313083    -0.087524117002    12.000000000000
           C          0.601379471162    -0.287360313083     0.200667882998    12.000000000000
           O          2.519871471162     1.031056686917    -0.416162117002    15.994914619560
           C         -0.288995528838     0.940162686917     0.020482882998    12.000000000000
           H          0.300922471162    -1.107618313083    -0.442974117002     1.007825032070
           H          0.541930471162    -0.669880313083     1.216490882998     1.007825032070
           C         -1.751791528838     0.702303686917     0.409668882998    12.000000000000
           H         -0.232237528838     1.275700686917    -1.010621117002     1.007825032070
           H          0.111965471162     1.749081686917     0.621469882998     1.007825032070
           C         -2.410106528838    -0.507357313083    -0.259882117002    12.000000000000
           H         -2.318909528838     1.593158686917     0.149828882998     1.007825032070
           H         -1.828284528838     0.601393686917     1.491390882998     1.007825032070
           C         -3.894036528838    -0.633563313083     0.084355882998    12.000000000000
           H         -2.295577528838    -0.425713313083    -1.338892117002     1.007825032070
           H         -1.901574528838    -1.422000313083     0.033723882998     1.007825032070
           H         -4.337783528838    -1.497902313083    -0.399711117002     1.007825032070
           H         -4.446603528838     0.245226686917    -0.235372117002     1.007825032070
           H         -4.039865528838    -0.743177313083     1.155316882998     1.007825032070

  Charge       = 0
  Multiplicity = 1
  Basis Set: 6-31G*
  Basis Set:

    Orbital Energies (a.u.)
    -----------------------

    Doubly Occupied:

       1A    -20.612429     2A    -20.551452     3A    -11.381008
       4A    -11.240003     5A    -11.222901     6A    -11.220897
       7A    -11.220202     8A    -11.212595     9A     -1.474470
      10A     -1.365513    11A     -1.096846    12A     -1.040243
      13A     -0.961535    14A     -0.869038    15A     -0.818931
      16A     -0.773397    17A     -0.699478    18A     -0.690049
      19A     -0.665121    20A     -0.636659    21A     -0.600699
      22A     -0.594210    23A     -0.577557    24A     -0.554647
      25A     -0.539348    26A     -0.516000    27A     -0.495346
      28A     -0.479060    29A     -0.469974    30A     -0.466190
      31A     -0.457641    32A     -0.443742

  @DF-RHF Final Energy:  -383.94796934720415

   => Energetics <=

    Nuclear Repulsion Energy =            376.9683008454681499
    One-Electron Energy =               -1269.9381596190223718
    Two-Electron Energy =                 509.0218894263492757
    DFT Exchange-Correlation Energy =       0.0000000000000000
    Empirical Dispersion Energy =           0.0000000000000000
    PCM Polarization Energy =               0.0000000000000000
    EFP Energy =                            0.0000000000000000
    Total Energy =                       -383.9479693472050030

  Mulliken Charges: (a.u.)
   Center  Symbol    Alpha    Beta     Spin     Total
       1     H     0.26785  0.26785  0.00000  0.46430
       2     O     4.35158  4.35158  0.00000 -0.70315
       3     C     2.62184  2.62184  0.00000  0.75633
       4     C     3.21477  3.21477  0.00000 -0.42954
       5     O     4.27929  4.27929  0.00000 -0.55858
       6     C     3.15377  3.15377  0.00000 -0.30753
       7     H     0.39611  0.39611  0.00000  0.20778
       8     H     0.39921  0.39921  0.00000  0.20159
       9     C     3.15458  3.15458  0.00000 -0.30916
      10     H     0.41227  0.41227  0.00000  0.17545
      11     H     0.40795  0.40795  0.00000  0.18411
      12     C     3.15708  3.15708  0.00000 -0.31415
      13     H     0.41795  0.41795  0.00000  0.16409
      14     H     0.42297  0.42297  0.00000  0.15407
      15     C     3.23892  3.23892  0.00000 -0.47784
      16     H     0.42196  0.42196  0.00000  0.15609
      17     H     0.42171  0.42171  0.00000  0.15657
      18     H     0.41838  0.41838  0.00000  0.16324
      19     H     0.42067  0.42067  0.00000  0.15866
      20     H     0.42116  0.42116  0.00000  0.15769

   Total alpha = 32.00000, Total beta = 32.00000, Total charge = -0.00000
