  ==> Input File <==

--------------------------------------------------------------------------
set {
	reference rhf
	basis cc-pvtz
}

set_num_threads( 4 )
memory 2 gb

molecule MOL {
0 1

O	 0.395927	 1.296676	 -0.000076
C	 0.503051	 0.114301	 -0.000074
C	 -0.701422	 -0.805636	 -0.000109
C	 1.858118	 -0.556123	 0.000212
C	 -0.517264	 -2.068140	 0.827086
H	 -1.552964	 -0.230582	 0.354326
H	 -0.927450	 -1.049565	 -1.034928
H	 -0.315860	 -1.827619	 1.862371
H	 -1.410995	 -2.679138	 0.784883
H	 0.315194	 -2.653876	 0.460811
H	 1.961106	 -1.191101	 -0.872843
H	 2.636688	 0.191085	 -0.000109
H	 1.961070	 -1.190284	 0.873873

	symmetry c1
}
set optking {
	frozen_dihedral = ("
		6 3 2 1
	")
}

ee = optimize('scf')
oeprop('DIPOLE', 'QUADRUPOLE', 'MULLIKEN_CHARGES')
f=open( 'psi4out.xyz', 'w' )
f.write( "13  " )
f.write( str(ee) + "\n" )
f.write( MOL.save_string_xyz() )
f.close()
--------------------------------------------------------------------------

    Molecular point group: c1
  Charge       = 0
  Multiplicity = 1
  Basis Set: CC-PVTZ
  Basis Set:
  @DF-RHF Final Energy:  -231.07903798931051
    Total Energy =                       -231.0790379893103932
    Molecular point group: c1
  Basis Set: CC-PVTZ
  Basis Set:
  Basis Set: CC-PVTZ
  Basis Set:
  @DF-RHF Final Energy:  -231.07889153014889
    Total Energy =                       -231.0788915301486668
  Basis Set: CC-PVTZ
  Basis Set:
  Basis Set: CC-PVTZ
  Basis Set:
  @DF-RHF Final Energy:  -231.07940510211301
    Total Energy =                       -231.0794051021129576
  Basis Set: CC-PVTZ
  Basis Set:
  Basis Set: CC-PVTZ
  Basis Set:
  @DF-RHF Final Energy:  -231.08041948152047
    Total Energy =                       -231.0804194815203800
  Basis Set: CC-PVTZ
  Basis Set:
  Basis Set: CC-PVTZ
  Basis Set:
  @DF-RHF Final Energy:  -231.08049598810334
    Total Energy =                       -231.0804959881034506
  Basis Set: CC-PVTZ
  Basis Set:
  Basis Set: CC-PVTZ
  Basis Set:
  @DF-RHF Final Energy:  -231.08049971616981
    Total Energy =                       -231.0804997161699248
  Basis Set: CC-PVTZ
  Basis Set:
  Charge       = 0
  Multiplicity = 1
  Basis Set: CC-PVTZ
  Basis Set:

    Orbital Energies (a.u.)
    -----------------------

    Doubly Occupied:

       1A    -20.537590     2A    -11.320980     3A    -11.232855
       4A    -11.227587     5A    -11.227453     6A     -1.397980
       7A     -1.068871     8A     -0.994883     9A     -0.890938
      10A     -0.733380    11A     -0.655198    12A     -0.648061
      13A     -0.623177    14A     -0.589220    15A     -0.559074
      16A     -0.545415    17A     -0.529999    18A     -0.509572
      19A     -0.483135    20A     -0.402243

  @DF-RHF Final Energy:  -231.08050066925423

   => Energetics <=

    Nuclear Repulsion Energy =            177.1786513885283796
    One-Electron Energy =                -664.1630837878751663
    Two-Electron Energy =                 255.9039317300926655
    DFT Exchange-Correlation Energy =       0.0000000000000000
    Empirical Dispersion Energy =           0.0000000000000000
    PCM Polarization Energy =               0.0000000000000000
    EFP Energy =                            0.0000000000000000
    Total Energy =                       -231.0805006692541497
    Molecular point group: c1
  Basis Set: CC-PVTZ
  Basis Set:

  -Total Gradient:
     Atom            X                  Y                   Z
    ------   -----------------  -----------------  -----------------
       1       -0.000006774315     0.000009156204    -0.001394599457
       2        0.000061709639    -0.000077833621     0.002229188646
       3       -0.000340393907     0.000487721888    -0.002116188605
       4        0.000004305282     0.000028475912     0.000029644089
       5       -0.000001304051    -0.000017543661    -0.000006475901
       6        0.000267860170    -0.000385674520     0.001269666973
       7       -0.000003581365    -0.000005580909     0.000009070124
       8        0.000012562717     0.000006350939     0.000007962005
       9        0.000009629488     0.000009306146    -0.000006761681
      10       -0.000003953128    -0.000013393284     0.000012429643
      11       -0.000003172262    -0.000012216337    -0.000016045501
      12       -0.000005406712    -0.000015932468     0.000001049387
      13        0.000008518443    -0.000012836287    -0.000018939722

  **** Optimization is complete! (in 7 steps) ****
    Final optimized geometry and variables:
    Molecular point group: c1

    Geometry (in Angstrom), charge = 0, multiplicity = 1:

    O            0.069293360048     1.702215936186    -0.143852137808
    C            0.205409939481     0.522150397020    -0.150958162537
    C           -1.005683926687    -0.393432793021    -0.171859392466
    C            1.580899433870    -0.102860564045    -0.196126402740
    C           -0.883481494834    -1.684084671212     0.636321819479
    H           -1.844786420893     0.192343488973     0.176786396632
    H           -1.190666186916    -0.632412234880    -1.216373320013
    H           -0.676917465069    -1.477387945640     1.680453754445
    H           -1.812609569878    -2.237823016707     0.589859430556
    H           -0.099320896912    -2.329653834975     0.261183080705
    H            1.643184139579    -0.834912495577    -0.993744404106
    H            2.319291307364     0.669255260153    -0.346461271174
    H            1.786778528448    -0.620579072328     0.733736059951

  Mulliken Charges: (a.u.)
   Center  Symbol    Alpha    Beta     Spin     Total
       1     O     4.17194  4.17194  0.00000 -0.34388
       2     C     2.85732  2.85732  0.00000  0.28535
       3     C     3.09740  3.09740  0.00000 -0.19480
       4     C     3.16166  3.16166  0.00000 -0.32331
       5     C     3.15765  3.15765  0.00000 -0.31530
       6     H     0.43685  0.43685  0.00000  0.12630
       7     H     0.44640  0.44640  0.00000  0.10720
       8     H     0.44829  0.44829  0.00000  0.10343
       9     H     0.44152  0.44152  0.00000  0.11696
      10     H     0.45251  0.45251  0.00000  0.09498
      11     H     0.44874  0.44874  0.00000  0.10252
      12     H     0.43220  0.43220  0.00000  0.13560
      13     H     0.44753  0.44753  0.00000  0.10495

   Total alpha = 20.00000, Total beta = 20.00000, Total charge = -0.00000
