  ==> Input File <==

--------------------------------------------------------------------------
set {
	reference rhf
	basis 6-31G*
}

set_num_threads( 4 )
memory 2 gb

molecule MOL {
0 1

H	 -2.189173	 -0.852437	 1.217939
N	 -1.402437	 -0.232701	 1.196631
C	 -0.563778	 -0.502042	 0.037919
H	 -0.890028	 -0.385861	 2.044414
C	 0.575259	 0.508231	 -0.048326
H	 -1.186077	 -0.415519	 -0.847775
H	 -0.150229	 -1.513816	 0.032035
C	 1.954651	 -0.143624	 0.035137
H	 0.475158	 1.060484	 -0.977307
H	 0.469181	 1.234488	 0.755973
H	 2.103292	 -0.853109	 -0.774172
H	 2.742821	 0.599562	 -0.030094
H	 2.083613	 -0.679371	 0.971560

	symmetry c1
}
set optking {
	frozen_dihedral = ("
		6 3 5 9
	")
}

ee = optimize('scf')
oeprop('DIPOLE', 'QUADRUPOLE', 'MULLIKEN_CHARGES')
f=open( 'psi4out.xyz', 'w' )
f.write( "13  " )
f.write( str(ee) + "\n" )
f.write( MOL.save_string_xyz() )
f.close()
--------------------------------------------------------------------------

    Molecular point group: c1
  Charge       = 0
  Multiplicity = 1
  Basis Set: 6-31G*
  Basis Set:
  @DF-RHF Final Energy:  -173.27554550681964
    Total Energy =                       -173.2755455068195829
    Molecular point group: c1
  Basis Set: 6-31G*
  Basis Set:
  Basis Set: 6-31G*
  Basis Set:
  @DF-RHF Final Energy:  -173.27593986492926
    Total Energy =                       -173.2759398649292280
  Basis Set: 6-31G*
  Basis Set:
  Basis Set: 6-31G*
  Basis Set:
  @DF-RHF Final Energy:  -173.27607022497415
    Total Energy =                       -173.2760702249742053
  Basis Set: 6-31G*
  Basis Set:
  Basis Set: 6-31G*
  Basis Set:
  @DF-RHF Final Energy:  -173.27607133211362
    Total Energy =                       -173.2760713321136166
  Basis Set: 6-31G*
  Basis Set:
  Charge       = 0
  Multiplicity = 1
  Basis Set: 6-31G*
  Basis Set:

    Orbital Energies (a.u.)
    -----------------------

    Doubly Occupied:

       1A    -15.533015     2A    -11.240323     3A    -11.211880
       4A    -11.209932     5A     -1.175724     6A     -1.032288
       7A     -0.899879     8A     -0.798656     9A     -0.666015
      10A     -0.624777    11A     -0.595370    12A     -0.564024
      13A     -0.543815    14A     -0.487863    15A     -0.476949
      16A     -0.464689    17A     -0.380177

  @DF-RHF Final Energy:  -173.27607141376095

   => Energetics <=

    Nuclear Repulsion Energy =            131.9507009797941635
    One-Electron Energy =                -494.6427951541073185
    Two-Electron Energy =                 189.4160227605522095
    DFT Exchange-Correlation Energy =       0.0000000000000000
    Empirical Dispersion Energy =           0.0000000000000000
    PCM Polarization Energy =               0.0000000000000000
    EFP Energy =                            0.0000000000000000
    Total Energy =                       -173.2760714137609739
    Molecular point group: c1
  Basis Set: 6-31G*
  Basis Set:

  -Total Gradient:
     Atom            X                  Y                   Z
    ------   -----------------  -----------------  -----------------
       1       -0.000009137594     0.000000064678     0.000007468175
       2        0.000014945378    -0.000010650190    -0.000008487338
       3       -0.000393556199     0.000500011892     0.000323727260
       4       -0.000002518917    -0.000000315038     0.000004282382
       5        0.000393850686    -0.000491215980    -0.000326111439
       6        0.000269515596    -0.000324196738    -0.000228858059
       7        0.000000108101    -0.000000969703     0.000007455228
       8        0.000000158204     0.000000362349     0.000003196072
       9       -0.000269892424     0.000313408688     0.000216489569
      10        0.000004576746     0.000006095009     0.000004562286
      11       -0.000003415286     0.000005693140    -0.000002284263
      12        0.000000813171     0.000001647271     0.000004706582
      13       -0.000005447461     0.000000064624    -0.000006146454

  **** Optimization is complete! (in 5 steps) ****
    Final optimized geometry and variables:
    Molecular point group: c1

    Geometry (in Angstrom), charge = 0, multiplicity = 1:

    H           -2.313591870622    -0.758622840374     0.903516517527
    N           -1.541554850488    -0.120431669846     0.871788282929
    C           -0.702696011764    -0.388710333985    -0.290170808755
    H           -1.020740550660    -0.256770793364     1.717815916798
    C            0.460179122549     0.620427099277    -0.383506604372
    H           -1.334421358573    -0.311276096200    -1.168026038094
    H           -0.301524659413    -1.404538205711    -0.292304446135
    C            1.843324445617    -0.025804458734    -0.296955937312
    H            0.386596621637     1.183985657322    -1.308759998476
    H            0.344796865227     1.346642340068     0.414697278299
    H            2.004414506305    -0.724291050245    -1.113262958179
    H            2.629161534549     0.721798702750    -0.342643326517
    H            1.963670632443    -0.575370468056     0.633200310289

  Mulliken Charges: (a.u.)
   Center  Symbol    Alpha    Beta     Spin     Total
       1     H     0.33360  0.33360  0.00000  0.33280
       2     N     3.92026  3.92026  0.00000 -0.84053
       3     C     3.06428  3.06428  0.00000 -0.12855
       4     H     0.33592  0.33592  0.00000  0.32816
       5     C     3.16068  3.16068  0.00000 -0.32135
       6     H     0.41806  0.41806  0.00000  0.16389
       7     H     0.43173  0.43173  0.00000  0.13654
       8     C     3.24158  3.24158  0.00000 -0.48316
       9     H     0.41808  0.41808  0.00000  0.16384
      10     H     0.41073  0.41073  0.00000  0.17854
      11     H     0.42165  0.42165  0.00000  0.15670
      12     H     0.41916  0.41916  0.00000  0.16167
      13     H     0.42428  0.42428  0.00000  0.15144

   Total alpha = 17.00000, Total beta = 17.00000, Total charge =  0.00000
