  ==> Input File <==

--------------------------------------------------------------------------
set {
	reference rhf
	basis 6-31G*
}

set_num_threads( 4 )
memory 2 gb

molecule MOL {
0 1

O	 3.151248	 0.882949	 -0.901404
C	 2.843464	 0.164689	 -0.000222
C	 1.546494	 -0.624492	 -0.000609
C	 3.735506	 -0.006601	 1.212245
C	 0.291004	 0.242674	 0.000989
H	 1.557904	 -1.283758	 -0.867573
H	 1.558622	 -1.285963	 0.864672
C	 -0.994322	 -0.586602	 0.000262
H	 0.309117	 0.896430	 -0.865270
H	 0.309661	 0.894078	 0.869017
C	 -2.259874	 0.272531	 0.000494
H	 -1.004862	 -1.240012	 -0.870939
H	 -1.005220	 -1.241071	 0.870675
C	 -3.549786	 -0.549746	 -0.000374
H	 -2.250389	 0.926680	 -0.869574
H	 -2.250838	 0.925513	 0.871430
C	 -4.809590	 0.315458	 -0.000369
H	 -3.560515	 -1.202009	 -0.871156
H	 -3.561123	 -1.202955	 0.869711
H	 -4.844746	 0.956611	 -0.876632
H	 -5.706986	 -0.295590	 -0.001609
H	 -4.845960	 0.954827	 0.877144
H	 4.018597	 -1.048489	 1.330341
H	 4.624375	 0.598424	 1.099592
H	 3.208340	 0.288294	 2.114890

	symmetry c1
}
set optking {
	frozen_dihedral = ("
		1 2 3 6
	")
}

ee = optimize('scf')
oeprop('DIPOLE', 'QUADRUPOLE', 'MULLIKEN_CHARGES')
f=open( 'psi4out.xyz', 'w' )
f.write( "25  " )
f.write( str(ee) + "\n" )
f.write( MOL.save_string_xyz() )
f.close()
--------------------------------------------------------------------------

    Molecular point group: c1
  Charge       = 0
  Multiplicity = 1
  Basis Set: 6-31G*
  Basis Set:
  @DF-RHF Final Energy:  -387.13379280999175
    Total Energy =                       -387.1337928099920873
    Molecular point group: c1
  Basis Set: 6-31G*
  Basis Set:
  Basis Set: 6-31G*
  Basis Set:
  @DF-RHF Final Energy:  -387.13454829646696
    Total Energy =                       -387.1345482964667326
  Basis Set: 6-31G*
  Basis Set:
  Basis Set: 6-31G*
  Basis Set:
  @DF-RHF Final Energy:  -387.13355459380853
    Total Energy =                       -387.1335545938076166
  Basis Set: 6-31G*
  Basis Set:
  Basis Set: 6-31G*
  Basis Set:
  @DF-RHF Final Energy:  -387.13460346843129
    Total Energy =                       -387.1346034684313508
  Basis Set: 6-31G*
  Basis Set:
  Basis Set: 6-31G*
  Basis Set:
  @DF-RHF Final Energy:  -387.13461207900087
    Total Energy =                       -387.1346120790010445
  Basis Set: 6-31G*
  Basis Set:
  Charge       = 0
  Multiplicity = 1
  Basis Set: 6-31G*
  Basis Set:

    Orbital Energies (a.u.)
    -----------------------

    Doubly Occupied:

       1A    -20.547632     2A    -11.325245     3A    -11.229675
       4A    -11.228534     5A    -11.225104     6A    -11.219813
       7A    -11.217233     8A    -11.216187     9A    -11.209825
      10A     -1.393692    11A     -1.096317    12A     -1.057215
      13A     -1.013723    14A     -0.970486    15A     -0.892180
      16A     -0.815907    17A     -0.793527    18A     -0.731643
      19A     -0.665769    20A     -0.647926    21A     -0.636403
      22A     -0.612369    23A     -0.601251    24A     -0.586108
      25A     -0.568198    26A     -0.559470    27A     -0.540810
      28A     -0.535989    29A     -0.510670    30A     -0.495128
      31A     -0.487989    32A     -0.474170    33A     -0.466193
      34A     -0.465086    35A     -0.451112    36A     -0.396225

  @DF-RHF Final Energy:  -387.13461145344223

   => Energetics <=

    Nuclear Repulsion Energy =            438.6130304403602054
    One-Electron Energy =               -1393.7256824817131928
    Two-Electron Energy =                 567.9780405879114369
    DFT Exchange-Correlation Energy =       0.0000000000000000
    Empirical Dispersion Energy =           0.0000000000000000
    PCM Polarization Energy =               0.0000000000000000
    EFP Energy =                            0.0000000000000000
    Total Energy =                       -387.1346114534414937
    Molecular point group: c1
  Basis Set: 6-31G*
  Basis Set:

  -Total Gradient:
     Atom            X                  Y                   Z
    ------   -----------------  -----------------  -----------------
       1        0.000216591119    -0.000290937707    -0.000197125451
       2       -0.000318640350     0.000510820235     0.000219737392
       3        0.000268616396    -0.000454739618     0.000246674913
       4       -0.000002704488    -0.000008504289    -0.000003572563
       5        0.000025556704    -0.000011577773    -0.000008374943
       6       -0.000196842372     0.000303725851    -0.000185489128
       7       -0.000011048591    -0.000052436414    -0.000002573294
       8        0.000009427430    -0.000014975555    -0.000026031798
       9       -0.000002933045    -0.000011583725    -0.000025555051
      10       -0.000004139654     0.000009092139    -0.000009612871
      11        0.000004864945     0.000014660785     0.000019250018
      12       -0.000000980329     0.000020904644    -0.000016701534
      13        0.000016700655    -0.000018270020    -0.000022011913
      14       -0.000000088439    -0.000001655603     0.000024745814
      15       -0.000003823550    -0.000019179941    -0.000005796440
      16       -0.000002670245     0.000021813777    -0.000005833023
      17       -0.000000232783     0.000000768996     0.000011213738
      18        0.000004005653     0.000008905024    -0.000001300215
      19       -0.000003881702    -0.000008369489    -0.000001086884
      20        0.000001717687    -0.000002107163    -0.000000593752
      21        0.000000558525    -0.000000170252     0.000001430682
      22       -0.000001391557     0.000001472863    -0.000000796296
      23        0.000007616487    -0.000001352257     0.000007031943
      24       -0.000000036163     0.000002104756    -0.000000005023
      25       -0.000006242333     0.000001590736    -0.000017624318

  **** Optimization is complete! (in 6 steps) ****
    Final optimized geometry and variables:
    Molecular point group: c1

    Geometry (in Angstrom), charge = 0, multiplicity = 1:

    O            3.059346011365     0.882150697808    -0.936161169504
    C            2.842381655068     0.145800569234    -0.022407635843
    C            1.569665476401    -0.686332876106     0.019149957827
    C            3.810903671825     0.002787894961     1.129251289692
    C            0.314229059658     0.195457271014     0.000933973150
    H            1.574948938700    -1.321981762250    -0.862247744233
    H            1.564131751835    -1.335671419351     0.889448738782
    C           -0.978596137613    -0.620693940107    -0.027173652364
    H            0.363165209908     0.845883604590    -0.865517919755
    H            0.313744897411     0.842335609124     0.876403938962
    C           -2.235728245646     0.250810675457    -0.035494740509
    H           -0.978570314935    -1.261339194135    -0.907228227027
    H           -1.007318390491    -1.285591057382     0.834534167184
    C           -3.532749572818    -0.559797496268    -0.064691831718
    H           -2.207266289829     0.914281860758    -0.897899898690
    H           -2.234433729295     0.893705900616     0.843217561197
    C           -4.784515360045     0.316921429328    -0.070936306527
    H           -3.536873192203    -1.200429908727    -0.943958928155
    H           -3.561936575296    -1.223986534740     0.796594719899
    H           -4.801951521558     0.969005651138    -0.939571013200
    H           -5.687064686160    -0.285993059873    -0.092020523786
    H           -4.827361303645     0.945637919324     0.813993628137
    H            4.151209669766    -1.026464844925     1.204318278120
    H            4.659213401720     0.657036820757     0.984350143762
    H            3.316241188731     0.244773412748     2.066089327403

  Mulliken Charges: (a.u.)
   Center  Symbol    Alpha    Beta     Spin     Total
       1     O     4.26352  4.26352  0.00000 -0.52705
       2     C     2.73542  2.73542  0.00000  0.52916
       3     C     3.20318  3.20318  0.00000 -0.40635
       4     C     3.28923  3.28923  0.00000 -0.57845
       5     C     3.15826  3.15826  0.00000 -0.31652
       6     H     0.40230  0.40230  0.00000  0.19540
       7     H     0.41632  0.41632  0.00000  0.16735
       8     C     3.15272  3.15272  0.00000 -0.30545
       9     H     0.40316  0.40316  0.00000  0.19367
      10     H     0.42107  0.42107  0.00000  0.15785
      11     C     3.15143  3.15143  0.00000 -0.30285
      12     H     0.42147  0.42147  0.00000  0.15706
      13     H     0.42412  0.42412  0.00000  0.15177
      14     C     3.15176  3.15176  0.00000 -0.30352
      15     H     0.42134  0.42134  0.00000  0.15733
      16     H     0.42366  0.42366  0.00000  0.15268
      17     C     3.23945  3.23945  0.00000 -0.47891
      18     H     0.42252  0.42252  0.00000  0.15495
      19     H     0.42343  0.42343  0.00000  0.15313
      20     H     0.42096  0.42096  0.00000  0.15809
      21     H     0.41907  0.41907  0.00000  0.16185
      22     H     0.42171  0.42171  0.00000  0.15658
      23     H     0.40786  0.40786  0.00000  0.18427
      24     H     0.39725  0.39725  0.00000  0.20550
      25     H     0.40877  0.40877  0.00000  0.18245

   Total alpha = 36.00000, Total beta = 36.00000, Total charge = -0.00000
