  ==> Input File <==

--------------------------------------------------------------------------
set {
	reference rhf
	basis cc-pvtz
}

set_num_threads( 4 )
memory 2 gb

molecule MOL {
0 1

H	 -2.524943	 -0.788131	 1.916886
C	 -2.503218	 -1.450508	 1.054524
O	 -1.271631	 -1.411926	 0.414801
H	 -2.669903	 -2.463644	 1.390172
H	 -3.311832	 -1.167364	 0.383065
C	 -0.923070	 -0.162291	 -0.083753
C	 0.469301	 -0.213279	 -0.660855
H	 -1.618809	 0.139056	 -0.866765
H	 -0.957010	 0.588924	 0.702347
O	 1.401606	 -0.295166	 0.366636
H	 0.550428	 -1.072127	 -1.323598
H	 0.638839	 0.685639	 -1.253456
C	 2.714315	 -0.441627	 -0.061017
H	 2.765292	 -0.641548	 -1.128869
H	 3.305661	 0.447341	 0.150952
H	 3.143725	 -1.278506	 0.470147

	symmetry c1
}
set optking {
	frozen_dihedral = ("
		7 10 13 14
	")
}

ee = optimize('scf')
oeprop('DIPOLE', 'QUADRUPOLE', 'MULLIKEN_CHARGES')
f=open( 'psi4out.xyz', 'w' )
f.write( "16  " )
f.write( str(ee) + "\n" )
f.write( MOL.save_string_xyz() )
f.close()
--------------------------------------------------------------------------

    Molecular point group: c1
  Charge       = 0
  Multiplicity = 1
  Basis Set: CC-PVTZ
  Basis Set:
  @DF-RHF Final Energy:  -307.09411226781634
    Total Energy =                       -307.0941122678161150
    Molecular point group: c1
  Basis Set: CC-PVTZ
  Basis Set:
  Basis Set: CC-PVTZ
  Basis Set:
  @DF-RHF Final Energy:  -307.09441226775533
    Total Energy =                       -307.0944122677552741
  Basis Set: CC-PVTZ
  Basis Set:
  Basis Set: CC-PVTZ
  Basis Set:
  @DF-RHF Final Energy:  -307.09451069924825
    Total Energy =                       -307.0945106992484170
  Basis Set: CC-PVTZ
  Basis Set:
  Basis Set: CC-PVTZ
  Basis Set:
  @DF-RHF Final Energy:  -307.09451170024772
    Total Energy =                       -307.0945117002479492
  Basis Set: CC-PVTZ
  Basis Set:
  Charge       = 0
  Multiplicity = 1
  Basis Set: CC-PVTZ
  Basis Set:

    Orbital Energies (a.u.)
    -----------------------

    Doubly Occupied:

       1A    -20.547424     2A    -20.544338     3A    -11.267814
       4A    -11.266569     5A    -11.261338     6A    -11.261092
       7A     -1.389605     8A     -1.371603     9A     -1.031753
      10A     -0.937285    11A     -0.892153    12A     -0.823991
      13A     -0.684907    14A     -0.681057    15A     -0.658783
      16A     -0.636655    17A     -0.630084    18A     -0.597670
      19A     -0.554378    20A     -0.537716    21A     -0.509023
      22A     -0.479059    23A     -0.463854    24A     -0.421055
      25A     -0.410289

  @DF-RHF Final Energy:  -307.09451184440923

   => Energetics <=

    Nuclear Repulsion Energy =            258.6466288986146083
    One-Electron Energy =                -931.7632891337275396
    Two-Electron Energy =                 366.0221483907038191
    DFT Exchange-Correlation Energy =       0.0000000000000000
    Empirical Dispersion Energy =           0.0000000000000000
    PCM Polarization Energy =               0.0000000000000000
    EFP Energy =                            0.0000000000000000
    Total Energy =                       -307.0945118444091122
    Molecular point group: c1
  Basis Set: CC-PVTZ
  Basis Set:

  -Total Gradient:
     Atom            X                  Y                   Z
    ------   -----------------  -----------------  -----------------
       1        0.000000845036     0.000000485258    -0.000000271371
       2       -0.000000927773     0.000001065723    -0.000003014338
       3        0.000005210602    -0.000000523169    -0.000008919218
       4        0.000000342715     0.000000226874     0.000000272175
       5        0.000000014700     0.000000132698     0.000000610931
       6       -0.000004514647     0.000008903625     0.000010764305
       7       -0.000137716238    -0.001120780319     0.000001889708
       8       -0.000005218842    -0.000003024425    -0.000001630552
       9        0.000003219734     0.000003701185    -0.000004210125
      10        0.000231665987     0.002011703573    -0.000075734798
      11        0.000005344968    -0.000003218273    -0.000003113790
      12       -0.000002166785    -0.000006194855     0.000008858455
      13       -0.000183757324    -0.002254970374     0.000337935297
      14        0.000088480288     0.001366012467    -0.000260136111
      15       -0.000005865349    -0.000002991511     0.000000425926
      16        0.000005042924    -0.000000528479    -0.000003726495

  **** Optimization is complete! (in 5 steps) ****
    Final optimized geometry and variables:
    Molecular point group: c1

    Geometry (in Angstrom), charge = 0, multiplicity = 1:

    H           -2.493444229684    -0.124476332320     1.753114012264
    C           -2.479650056496    -0.783557965948     0.888074174753
    O           -1.254294651716    -0.741946426319     0.236815898293
    H           -2.642764654948    -1.798041723728     1.221436932387
    H           -3.294819194469    -0.498230793593     0.225473510574
    C           -0.910949358750     0.509781686938    -0.260093519787
    C            0.476459047189     0.462185207399    -0.849434349465
    H           -1.613186453054     0.813007321371    -1.036696844852
    H           -0.939421664717     1.258232213081     0.528741975627
    O            1.414125359425     0.370185889095     0.173477549960
    H            0.549499493344    -0.391717799056    -1.518049115812
    H            0.637354209816     1.365965938787    -1.436680602946
    C            2.741425504056     0.211807779636    -0.222068649320
    H            2.827398658585     0.009801861872    -1.284892606080
    H            3.307481836410     1.112825617014    -0.007379797190
    H            3.181758977881    -0.612568576506     0.324222334889

  Mulliken Charges: (a.u.)
   Center  Symbol    Alpha    Beta     Spin     Total
       1     H     0.47017  0.47017  0.00000  0.05966
       2     C     3.03201  3.03201  0.00000 -0.06402
       3     O     4.17033  4.17033  0.00000 -0.34067
       4     H     0.44646  0.44646  0.00000  0.10707
       5     H     0.47375  0.47375  0.00000  0.05250
       6     C     2.96339  2.96339  0.00000  0.07322
       7     C     2.95868  2.95868  0.00000  0.08265
       8     H     0.47624  0.47624  0.00000  0.04752
       9     H     0.47110  0.47110  0.00000  0.05780
      10     O     4.17490  4.17490  0.00000 -0.34980
      11     H     0.47003  0.47003  0.00000  0.05994
      12     H     0.47662  0.47662  0.00000  0.04675
      13     C     3.02718  3.02718  0.00000 -0.05436
      14     H     0.47377  0.47377  0.00000  0.05246
      15     H     0.46188  0.46188  0.00000  0.07624
      16     H     0.45348  0.45348  0.00000  0.09304

   Total alpha = 25.00000, Total beta = 25.00000, Total charge =  0.00000
