  ==> Input File <==

--------------------------------------------------------------------------
set {
	reference rhf
	basis 6-31G*
}

set_num_threads( 4 )
memory 2 gb

molecule MOL {
0 1

H	 -2.499100	 -0.730091	 -0.745082
O	 -2.347518	 -0.290803	 0.079804
C	 -1.184022	 0.487508	 -0.006784
C	 0.062599	 -0.378592	 0.031606
H	 -1.176523	 1.099369	 -0.904519
H	 -1.187323	 1.153111	 0.844927
O	 0.513725	 -0.425162	 1.348457
H	 0.830111	 0.040402	 -0.622115
H	 -0.172902	 -1.374460	 -0.339026
C	 1.642132	 -1.217256	 1.544485
H	 2.489150	 -0.853262	 0.965953
H	 1.891980	 -1.175570	 2.595551
H	 1.453881	 -2.252318	 1.266995

	symmetry c1
}
set optking {
	frozen_dihedral = ("
		8 4 3 5
	")
}

ee = optimize('scf')
oeprop('DIPOLE', 'QUADRUPOLE', 'MULLIKEN_CHARGES')
f=open( 'psi4out.xyz', 'w' )
f.write( "13  " )
f.write( str(ee) + "\n" )
f.write( MOL.save_string_xyz() )
f.close()
--------------------------------------------------------------------------

    Molecular point group: c1
  Charge       = 0
  Multiplicity = 1
  Basis Set: 6-31G*
  Basis Set:
  @DF-RHF Final Energy:  -267.94449061444044
    Total Energy =                       -267.9444906144406104
    Molecular point group: c1
  Basis Set: 6-31G*
  Basis Set:
  Basis Set: 6-31G*
  Basis Set:
  @DF-RHF Final Energy:  -267.94503566056665
    Total Energy =                       -267.9450356605667594
  Basis Set: 6-31G*
  Basis Set:
  Basis Set: 6-31G*
  Basis Set:
  @DF-RHF Final Energy:  -267.94525500363170
    Total Energy =                       -267.9452550036319280
  Basis Set: 6-31G*
  Basis Set:
  Basis Set: 6-31G*
  Basis Set:
  @DF-RHF Final Energy:  -267.94526652838175
    Total Energy =                       -267.9452665283817510
  Basis Set: 6-31G*
  Basis Set:
  Charge       = 0
  Multiplicity = 1
  Basis Set: 6-31G*
  Basis Set:

    Orbital Energies (a.u.)
    -----------------------

    Doubly Occupied:

       1A    -20.559662     2A    -20.556016     3A    -11.273166
       4A    -11.269838     5A    -11.267870     6A     -1.387493
       7A     -1.361212     8A     -1.017777     9A     -0.914837
      10A     -0.842838    11A     -0.699780    12A     -0.674430
      13A     -0.661735    14A     -0.637279    15A     -0.597549
      16A     -0.564859    17A     -0.537101    18A     -0.496678
      19A     -0.477044    20A     -0.436928    21A     -0.418858

  @DF-RHF Final Energy:  -267.94526752427271

   => Energetics <=

    Nuclear Repulsion Energy =            191.5633615381373431
    One-Electron Energy =                -745.7113562043698494
    Two-Electron Energy =                 286.2027271419598833
    DFT Exchange-Correlation Energy =       0.0000000000000000
    Empirical Dispersion Energy =           0.0000000000000000
    PCM Polarization Energy =               0.0000000000000000
    EFP Energy =                            0.0000000000000000
    Total Energy =                       -267.9452675242726514
    Molecular point group: c1
  Basis Set: 6-31G*
  Basis Set:

  -Total Gradient:
     Atom            X                  Y                   Z
    ------   -----------------  -----------------  -----------------
       1       -0.000032362196    -0.000030915521    -0.000002961365
       2        0.000007281093     0.000002112670    -0.000035682178
       3       -0.002690609130    -0.004393140011    -0.003237335795
       4        0.002120442604     0.003672403830     0.004364096993
       5        0.001890540817     0.003047453772     0.002026391918
       6        0.000029059832     0.000021676942    -0.000003911810
       7        0.000001602785    -0.000015214303     0.000014626332
       8       -0.001315855502    -0.002311852283    -0.003134265191
       9       -0.000001773257     0.000006163603     0.000023070763
      10       -0.000018316089    -0.000006533489    -0.000024929144
      11        0.000011260044     0.000004017058     0.000006632572
      12       -0.000004645775     0.000010992463    -0.000000869747
      13        0.000003374775    -0.000007164733     0.000005136651

  **** Optimization is complete! (in 5 steps) ****
    Final optimized geometry and variables:
    Molecular point group: c1

    Geometry (in Angstrom), charge = 0, multiplicity = 1:

    H           -2.204012773090    -0.423571481871    -1.275099659850
    O           -2.084576671558     0.106444695010    -0.499788942420
    C           -0.910195561510     0.859031405445    -0.618405258890
    C            0.365113752985     0.025951630411    -0.550727646870
    H           -0.911751909544     1.463585314253    -1.523402046029
    H           -0.904583890511     1.545557597449     0.216468033826
    O            0.804737035850    -0.050514821312     0.767462295309
    H            1.133914824190     0.453535786191    -1.195609332340
    H            0.160671259614    -0.973102772496    -0.939323287174
    C            1.920484564356    -0.861679761491     0.952696884773
    H            2.773249849746    -0.504715430823     0.377462782343
    H            2.171488385195    -0.835302969595     2.003903384916
    H            1.716323045059    -1.891101821626     0.664496391058

  Mulliken Charges: (a.u.)
   Center  Symbol    Alpha    Beta     Spin     Total
       1     H     0.28334  0.28334  0.00000  0.43332
       2     O     4.36541  4.36541  0.00000 -0.73083
       3     C     3.00779  3.00779  0.00000 -0.01559
       4     C     2.99663  2.99663  0.00000  0.00674
       5     H     0.42976  0.42976  0.00000  0.14047
       6     H     0.40097  0.40097  0.00000  0.19806
       7     O     4.30080  4.30080  0.00000 -0.60161
       8     H     0.43183  0.43183  0.00000  0.13633
       9     H     0.43381  0.43381  0.00000  0.13237
      10     C     3.08057  3.08057  0.00000 -0.16114
      11     H     0.43047  0.43047  0.00000  0.13906
      12     H     0.40999  0.40999  0.00000  0.18001
      13     H     0.42860  0.42860  0.00000  0.14280

   Total alpha = 21.00000, Total beta = 21.00000, Total charge =  0.00000
