  ==> Input File <==

--------------------------------------------------------------------------
set {
	reference rhf
	basis 6-31G*
}

set_num_threads( 1 )
memory 2 gb

molecule MOL {
0 1

O	 2.862325	 1.357334	 0.000267
C	 2.843464	 0.164689	 -0.000222
C	 1.546494	 -0.624492	 -0.000609
C	 4.124123	 -0.644674	 -0.000428
C	 0.291004	 0.242674	 0.000989
H	 1.557904	 -1.283758	 -0.867573
H	 1.558622	 -1.285963	 0.864672
C	 -0.994322	 -0.586602	 0.000262
H	 0.309117	 0.896430	 -0.865270
H	 0.309661	 0.894078	 0.869017
C	 -2.259874	 0.272531	 0.000494
H	 -1.004862	 -1.240012	 -0.870939
H	 -1.005220	 -1.241071	 0.870675
C	 -1.995852	 1.739381	 -0.343972
H	 -2.734492	 0.213070	 0.978360
H	 -2.974510	 -0.140070	 -0.709473
C	 -3.264751	 2.591187	 -0.341491
H	 -1.282537	 2.153249	 0.365759
H	 -1.522798	 1.800206	 -1.321918
H	 -3.743527	 2.578362	 0.633578
H	 -3.045305	 3.625377	 -0.588460
H	 -3.985037	 2.223541	 -1.066866
H	 4.165367	 -1.288615	 -0.874074
H	 4.976217	 0.020734	 -0.001915
H	 4.166763	 -1.286207	 0.874930

	symmetry c1
}
set optking {
	frozen_dihedral = ("
		9 5 8 12,
		15 11 14 18,
		1 2 3 6,
		9 5 3 6
	")
}

ee = energy('scf')
oeprop('DIPOLE', 'QUADRUPOLE', 'MULLIKEN_CHARGES')
f=open( 'psi4out.xyz', 'w' )
f.write( "25  " )
f.write( str(ee) + "\n" )
f.write( MOL.save_string_xyz() )
f.close()
--------------------------------------------------------------------------

    Molecular point group: c1

    Geometry (in Angstrom), charge = 0, multiplicity = 1:

       Center              X                  Y                   Z               Mass
    ------------   -----------------  -----------------  -----------------  -----------------
           O          2.511262668602     0.840178099023     0.077837389446    15.994914619560
           C          2.492401668602    -0.352466900977     0.077348389446    12.000000000000
           C          1.195431668602    -1.141647900977     0.076961389446    12.000000000000
           C          3.773060668602    -1.161829900977     0.077142389446    12.000000000000
           C         -0.060058331398    -0.274481900977     0.078559389446    12.000000000000
           H          1.206841668602    -1.800913900977    -0.790002610554     1.007825032070
           H          1.207559668602    -1.803118900977     0.942242389446     1.007825032070
           C         -1.345384331398    -1.103757900977     0.077832389446    12.000000000000
           H         -0.041945331398     0.379274099023    -0.787699610554     1.007825032070
           H         -0.041401331398     0.376922099023     0.946587389446     1.007825032070
           C         -2.610936331398    -0.244624900977     0.078064389446    12.000000000000
           H         -1.355924331398    -1.757167900977    -0.793368610554     1.007825032070
           H         -1.356282331398    -1.758226900977     0.948245389446     1.007825032070
           C         -2.346914331398     1.222225099023    -0.266401610554    12.000000000000
           H         -3.085554331398    -0.304085900977     1.055930389446     1.007825032070
           H         -3.325572331398    -0.657225900977    -0.631902610554     1.007825032070
           C         -3.615813331398     2.074031099023    -0.263920610554    12.000000000000
           H         -1.633599331398     1.636093099023     0.443329389446     1.007825032070
           H         -1.873860331398     1.283050099023    -1.244347610554     1.007825032070
           H         -4.094589331398     2.061206099023     0.711148389446     1.007825032070
           H         -3.396367331398     3.108221099023    -0.510889610554     1.007825032070
           H         -4.336099331398     1.706385099023    -0.989295610554     1.007825032070
           H          3.814304668602    -1.805770900977    -0.796503610554     1.007825032070
           H          4.625154668602    -0.496421900977     0.075655389446     1.007825032070
           H          3.815700668602    -1.803362900977     0.952500389446     1.007825032070

  Charge       = 0
  Multiplicity = 1
  Basis Set: 6-31G*
  Basis Set:

    Orbital Energies (a.u.)
    -----------------------

    Doubly Occupied:

       1A    -20.550173     2A    -11.325904     3A    -11.230736
       4A    -11.228100     5A    -11.215601     6A    -11.214920
       7A    -11.211929     8A    -11.210707     9A    -11.204951
      10A     -1.395489    11A     -1.096456    12A     -1.052385
      13A     -1.011103    14A     -0.968602    15A     -0.886255
      16A     -0.839980    17A     -0.762870    18A     -0.730631
      19A     -0.661919    20A     -0.650892    21A     -0.630114
      22A     -0.624544    23A     -0.593257    24A     -0.580484
      25A     -0.572731    26A     -0.561667    27A     -0.552676
      28A     -0.513415    29A     -0.508270    30A     -0.493029
      31A     -0.487863    32A     -0.484667    33A     -0.461314
      34A     -0.445502    35A     -0.441527    36A     -0.399690

  @DF-RHF Final Energy:  -387.12366359601697

   => Energetics <=

    Nuclear Repulsion Energy =            450.6057506513918725
    One-Electron Energy =               -1417.8582381443839040
    Two-Electron Energy =                 580.1288238969739268
    DFT Exchange-Correlation Energy =       0.0000000000000000
    Empirical Dispersion Energy =           0.0000000000000000
    PCM Polarization Energy =               0.0000000000000000
    EFP Energy =                            0.0000000000000000
    Total Energy =                       -387.1236635960181047

  Mulliken Charges: (a.u.)
   Center  Symbol    Alpha    Beta     Spin     Total
       1     O     4.26169  4.26169  0.00000 -0.52337
       2     C     2.73555  2.73555  0.00000  0.52890
       3     C     3.20831  3.20831  0.00000 -0.41661
       4     C     3.28670  3.28670  0.00000 -0.57340
       5     C     3.15613  3.15613  0.00000 -0.31225
       6     H     0.41048  0.41048  0.00000  0.17904
       7     H     0.41058  0.41058  0.00000  0.17884
       8     C     3.15626  3.15626  0.00000 -0.31253
       9     H     0.40848  0.40848  0.00000  0.18304
      10     H     0.41111  0.41111  0.00000  0.17779
      11     C     3.15308  3.15308  0.00000 -0.30616
      12     H     0.42305  0.42305  0.00000  0.15389
      13     H     0.42210  0.42210  0.00000  0.15580
      14     C     3.16004  3.16004  0.00000 -0.32009
      15     H     0.42192  0.42192  0.00000  0.15615
      16     H     0.42126  0.42126  0.00000  0.15748
      17     C     3.23696  3.23696  0.00000 -0.47391
      18     H     0.41610  0.41610  0.00000  0.16779
      19     H     0.42130  0.42130  0.00000  0.15740
      20     H     0.42276  0.42276  0.00000  0.15449
      21     H     0.41885  0.41885  0.00000  0.16230
      22     H     0.42321  0.42321  0.00000  0.15357
      23     H     0.40878  0.40878  0.00000  0.18244
      24     H     0.39660  0.39660  0.00000  0.20680
      25     H     0.40871  0.40871  0.00000  0.18259

   Total alpha = 36.00000, Total beta = 36.00000, Total charge = -0.00000
