                              Psi4 1.0.54 Driver

  ==> Input File <==

--------------------------------------------------------------------------
set {
	reference rhf
	basis cc-pvtz
}

set_num_threads( 4 )
memory 2 gb

molecule MOL {
0 1

H	 -4.230259	 0.539112	 0.036360
O	 -3.515113	 -0.019339	 -0.206321
C	 -2.302264	 0.528872	 0.237390
C	 -1.175688	 -0.398187	 -0.171891
H	 -2.148018	 1.514076	 -0.197759
H	 -2.310727	 0.646384	 1.319032
C	 0.196029	 0.106276	 0.266738
H	 -1.201873	 -0.515469	 -1.250677
H	 -1.365975	 -1.378728	 0.252664
C	 1.330220	 -0.826136	 -0.155230
H	 0.359542	 1.097229	 -0.145561
H	 0.212134	 0.218135	 1.348778
C	 2.719700	 -0.407669	 0.328325
H	 1.339388	 -0.911200	 -1.239363
H	 1.119001	 -1.821953	 0.224128
C	 3.210103	 0.930848	 -0.218697
H	 3.427979	 -1.179629	 0.043498
H	 2.727031	 -0.377320	 1.414814
H	 3.206940	 0.932478	 -1.304077
H	 2.593100	 1.756568	 0.114743
H	 4.224278	 1.130971	 0.107756

	symmetry c1
}
set optking {
	frozen_dihedral = ("
		16 13 10 14
	")
}

ee,wfn = optimize('scf', return_wfn=True)
oeprop( wfn, 'DIPOLE', 'QUADRUPOLE', 'MULLIKEN_CHARGES')
f=open( 'psi4out.xyz', 'w' )
f.write( "21  " )
f.write( str(ee) + "\n" )
f.write( MOL.save_string_xyz() )
f.close()
--------------------------------------------------------------------------

    Molecular point group: c1
  Charge       = 0
  Multiplicity = 1
  Basis Set: CC-PVTZ
  Basis Set:
  @DF-RHF Final Energy:  -310.33301651687322
    Total Energy =                       -310.3330165168729309
    Molecular point group: c1
  Basis Set: CC-PVTZ
  Basis Set:
  Basis Set: CC-PVTZ
  Basis Set:
  @DF-RHF Final Energy:  -310.33300612211809
    Total Energy =                       -310.3330061221179221
  Basis Set: CC-PVTZ
  Basis Set:
  Basis Set: CC-PVTZ
  Basis Set:
  @DF-RHF Final Energy:  -310.33302891160690
    Total Energy =                       -310.3330289116066751
  Basis Set: CC-PVTZ
  Basis Set:
  Charge       = 0
  Multiplicity = 1
  Basis Set: CC-PVTZ
  Basis Set:

    Orbital Energies (a.u.)
    -----------------------

    Doubly Occupied:

       1A    -20.545381     2A    -11.264972     3A    -11.213190
       4A    -11.213087     5A    -11.211271     6A    -11.208960
       7A    -11.206060     8A     -1.363228     9A     -1.087482
      10A     -1.034419    11A     -0.955458    12A     -0.876878
      13A     -0.807822    14A     -0.778661    15A     -0.696177
      16A     -0.662930    17A     -0.623739    18A     -0.607388
      19A     -0.588626    20A     -0.571621    21A     -0.537368
      22A     -0.520961    23A     -0.511997    24A     -0.487568
      25A     -0.480215    26A     -0.460198    27A     -0.456309
      28A     -0.444466    29A     -0.437377

  @DF-RHF Final Energy:  -310.33302917206572

   => Energetics <=

    Nuclear Repulsion Energy =            313.0376544641444525
    One-Electron Energy =               -1041.0337503545231357
    Two-Electron Energy =                 417.6630667183129617
    DFT Exchange-Correlation Energy =       0.0000000000000000
    Empirical Dispersion Energy =           0.0000000000000000
    PCM Polarization Energy =               0.0000000000000000
    EFP Energy =                            0.0000000000000000
    Total Energy =                       -310.3330291720657215
    Molecular point group: c1
  Basis Set: CC-PVTZ
  Basis Set:

  -Total Gradient:
     Atom            X                  Y                   Z
    ------   -----------------  -----------------  -----------------
       1        0.000004403968     0.000004242655     0.000004262301
       2       -0.000003778874    -0.000007990431    -0.000003647392
       3        0.000030055624     0.000011450306     0.000020783262
       4       -0.000007984606    -0.000009681785    -0.000005608850
       5       -0.000008569170    -0.000015026049     0.000000693930
       6       -0.000012471337     0.000003096203    -0.000006201563
       7        0.000015372542     0.000017664011    -0.000028840086
       8        0.000007491148     0.000004475090     0.000009398356
       9        0.000005038572     0.000002758294    -0.000007098859
      10       -0.000257215689     0.000742899396     0.000090466829
      11       -0.000003530642    -0.000001788944     0.000001681385
      12        0.000005711595    -0.000006963247    -0.000019450617
      13        0.000268358935    -0.000392950843    -0.000417851741
      14        0.000132221812    -0.000532663420     0.000054695977
      15       -0.000003439520    -0.000008673831    -0.000002906378
      16       -0.000166292610     0.000190731888     0.000312416643
      17       -0.000009667328     0.000016827726    -0.000009738480
      18        0.000006341817    -0.000004575214     0.000005610687
      19        0.000002320810     0.000002535716     0.000000296283
      20        0.000004938546    -0.000016609511     0.000000073740
      21       -0.000009305604     0.000000241992     0.000000964574

  **** Optimization is complete! (in 4 steps) ****
    Final optimized geometry and variables:
    Molecular point group: c1

    Geometry (in Angstrom), charge = 0, multiplicity = 1:

    H           -4.229843519463     0.522143884050     0.040004039386
    O           -3.513907222292    -0.035233232721    -0.202652569017
    C           -2.300580621551     0.521544452592     0.228910586888
    C           -1.172670017023    -0.404048252681    -0.179909833943
    H           -2.153291467303     1.503767183290    -0.215219487711
    H           -2.302815757707     0.647841362356     1.309583296851
    C            0.199410816746     0.109076295121     0.247118497771
    H           -1.204347102197    -0.529358218996    -1.257613700537
    H           -1.356605813091    -1.382104538234     0.252952411395
    C            1.334000099028    -0.822908571951    -0.173339517223
    H            0.357002031801     1.097016151759    -0.174314431999
    H            0.220753385840     0.229884904577     1.328128483444
    C            2.722762946688    -0.412979146428     0.319261380673
    H            1.348733080981    -0.906667333738    -1.257515768527
    H            1.119406750502    -1.820143560635     0.200780655481
    C            3.226293254839     0.923140110750    -0.221412117328
    H            3.427336434984    -1.190394043178     0.040476952265
    H            2.721716512826    -0.381878243254     1.405804195281
    H            3.221785507306     0.931724633228    -1.306840628878
    H            2.618439633145     1.752931826454     0.118184574524
    H            4.242934151744     1.110485266220     0.104841072663

  Mulliken Charges: (a.u.)
   Center  Symbol    Alpha    Beta     Spin     Total
       1     H     0.39762  0.39762  0.00000  0.20475
       2     O     4.19424  4.19424  0.00000 -0.38848
       3     C     2.96328  2.96328  0.00000  0.07344
       4     C     3.08382  3.08382  0.00000 -0.16763
       5     H     0.47499  0.47499  0.00000  0.05002
       6     H     0.47497  0.47497  0.00000  0.05006
       7     C     3.10367  3.10367  0.00000 -0.20734
       8     H     0.45096  0.45096  0.00000  0.09808
       9     H     0.45048  0.45048  0.00000  0.09903
      10     C     3.09441  3.09441  0.00000 -0.18882
      11     H     0.45327  0.45327  0.00000  0.09346
      12     H     0.45540  0.45540  0.00000  0.08921
      13     C     3.08976  3.08976  0.00000 -0.17953
      14     H     0.45280  0.45280  0.00000  0.09440
      15     H     0.44908  0.44908  0.00000  0.10183
      16     C     3.15314  3.15314  0.00000 -0.30628
      17     H     0.44848  0.44848  0.00000  0.10304
      18     H     0.45487  0.45487  0.00000  0.09027
      19     H     0.45454  0.45454  0.00000  0.09091
      20     H     0.45392  0.45392  0.00000  0.09216
      21     H     0.44629  0.44629  0.00000  0.10741

   Total alpha = 29.00000, Total beta = 29.00000, Total charge = -0.00000

*** Psi4 exiting successfully. Buy a developer a beer!
