  ==> Input File <==

--------------------------------------------------------------------------
set {
	reference rhf
	basis cc-pvtz
}

set_num_threads( 4 )
memory 2 gb

molecule MOL {
0 1

H	 -2.198288	 0.421717	 0.827240
N	 -1.851927	 0.161443	 -0.071573
C	 -0.561396	 -0.500007	 0.035200
H	 -1.780299	 0.997415	 -0.613196
C	 0.575129	 0.507849	 -0.048832
H	 -0.478089	 -1.200753	 -0.788956
H	 -0.456191	 -1.081816	 0.952176
C	 1.951750	 -0.141983	 0.035101
H	 0.478254	 1.061643	 -0.975981
H	 0.467676	 1.231891	 0.755499
H	 2.101550	 -0.848142	 -0.774949
H	 2.738260	 0.600794	 -0.026526
H	 2.078939	 -0.679792	 0.968824

	symmetry c1
}
set optking {
	frozen_dihedral = ("
		1 2 3 6
	")
}

ee = optimize('scf')
oeprop('DIPOLE', 'QUADRUPOLE', 'MULLIKEN_CHARGES')
f=open( 'psi4out.xyz', 'w' )
f.write( "13  " )
f.write( str(ee) + "\n" )
f.write( MOL.save_string_xyz() )
f.close()
--------------------------------------------------------------------------

    Molecular point group: c1
  Charge       = 0
  Multiplicity = 1
  Basis Set: CC-PVTZ
  Basis Set:
  @DF-RHF Final Energy:  -173.34907518095721
    Total Energy =                       -173.3490751809572998
    Molecular point group: c1
  Basis Set: CC-PVTZ
  Basis Set:
  Basis Set: CC-PVTZ
  Basis Set:
  @DF-RHF Final Energy:  -173.35086457705836
    Total Energy =                       -173.3508645770584451
  Basis Set: CC-PVTZ
  Basis Set:
  Basis Set: CC-PVTZ
  Basis Set:
  @DF-RHF Final Energy:  -173.35108996605365
    Total Energy =                       -173.3510899660537348
  Basis Set: CC-PVTZ
  Basis Set:
  Basis Set: CC-PVTZ
  Basis Set:
  @DF-RHF Final Energy:  -173.35110265406973
    Total Energy =                       -173.3511026540697344
  Basis Set: CC-PVTZ
  Basis Set:
  Basis Set: CC-PVTZ
  Basis Set:
  @DF-RHF Final Energy:  -173.35110426718452
    Total Energy =                       -173.3511042671845814
  Basis Set: CC-PVTZ
  Basis Set:
  Charge       = 0
  Multiplicity = 1
  Basis Set: CC-PVTZ
  Basis Set:

    Orbital Energies (a.u.)
    -----------------------

    Doubly Occupied:

       1A    -15.524545     2A    -11.238236     3A    -11.214012
       4A    -11.209487     5A     -1.176856     6A     -1.037802
       7A     -0.900036     8A     -0.807266     9A     -0.676226
      10A     -0.611590    11A     -0.607604    12A     -0.561845
      13A     -0.530564    14A     -0.508873    15A     -0.486479
      16A     -0.470032    17A     -0.377125

  @DF-RHF Final Energy:  -173.35110444933773

   => Energetics <=

    Nuclear Repulsion Energy =            131.8159988878091156
    One-Electron Energy =                -494.4570509977005486
    Two-Electron Energy =                 189.2899476605539064
    DFT Exchange-Correlation Energy =       0.0000000000000000
    Empirical Dispersion Energy =           0.0000000000000000
    PCM Polarization Energy =               0.0000000000000000
    EFP Energy =                            0.0000000000000000
    Total Energy =                       -173.3511044493375550
    Molecular point group: c1
  Basis Set: CC-PVTZ
  Basis Set:

  -Total Gradient:
     Atom            X                  Y                   Z
    ------   -----------------  -----------------  -----------------
       1       -0.001236512750    -0.002727432988     0.000403755548
       2        0.001314905463     0.002962398306    -0.000113421050
       3        0.000901746450     0.001705558812    -0.001963018868
       4        0.000007799255    -0.000007547927     0.000004212523
       5       -0.000037266726    -0.000006777512     0.000004466185
       6       -0.000965790297    -0.001931332033     0.001660887751
       7       -0.000004254628    -0.000007091949     0.000002706256
       8        0.000010475266     0.000003278876    -0.000002574729
       9        0.000007880684     0.000001805915     0.000003075159
      10        0.000008465815     0.000010018098    -0.000000439369
      11       -0.000001760157    -0.000000284724    -0.000004848429
      12       -0.000003497139    -0.000004283398     0.000000598655
      13       -0.000002191232     0.000001690524     0.000004600367

  **** Optimization is complete! (in 6 steps) ****
    Final optimized geometry and variables:
    Molecular point group: c1

    Geometry (in Angstrom), charge = 0, multiplicity = 1:

    H           -2.224248077591     0.395708479347     0.848617150034
    N           -1.894827850887     0.110906907981    -0.047070892942
    C           -0.569829698518    -0.481130367018     0.025033343968
    H           -1.927071851306     0.894367040810    -0.662807870063
    C            0.591931048448     0.505274480220    -0.033601340543
    H           -0.470513956566    -1.215863375805    -0.768678962074
    H           -0.512742186733    -1.047138556668     0.949359409566
    C            1.954417288844    -0.176062640740     0.034088725517
    H            0.520485388486     1.080809162402    -0.953568632662
    H            0.494795281033     1.216564095481     0.782233967745
    H            2.084821586904    -0.873200585729    -0.786828404154
    H            2.758748829274     0.548203845377    -0.017237107910
    H            2.069058022904    -0.731561650602     0.959058976096

  Mulliken Charges: (a.u.)
   Center  Symbol    Alpha    Beta     Spin     Total
       1     H     0.42833  0.42833  0.00000  0.14334
       2     N     3.69609  3.69609  0.00000 -0.39217
       3     C     3.02247  3.02247  0.00000 -0.04494
       4     H     0.42885  0.42885  0.00000  0.14230
       5     C     3.08145  3.08145  0.00000 -0.16289
       6     H     0.45635  0.45635  0.00000  0.08730
       7     H     0.45812  0.45812  0.00000  0.08376
       8     C     3.15273  3.15273  0.00000 -0.30547
       9     H     0.45916  0.45916  0.00000  0.08167
      10     H     0.45870  0.45870  0.00000  0.08261
      11     H     0.45458  0.45458  0.00000  0.09085
      12     H     0.44798  0.44798  0.00000  0.10404
      13     H     0.45519  0.45519  0.00000  0.08962

   Total alpha = 17.00000, Total beta = 17.00000, Total charge =  0.00000
