  ==> Input File <==

--------------------------------------------------------------------------
set {
	reference rhf
	basis cc-pvtz
}

set_num_threads( 4 )
memory 2 gb

molecule MOL {
0 1

H	 -2.771188	 0.619316	 -0.260548
N	 -1.798800	 0.708872	 -0.056803
C	 -1.017452	 0.802780	 -1.276154
H	 -1.524015	 -0.097028	 0.463789
C	 0.454104	 0.927779	 -0.954366
H	 -1.152112	 -0.047415	 -1.943671
H	 -1.322837	 1.692041	 -1.816531
O	 0.881195	 -0.248324	 -0.336237
H	 1.019619	 1.095818	 -1.869859
H	 0.613022	 1.777727	 -0.294622
C	 2.208068	 -0.234417	 0.074171
H	 2.725499	 -1.027054	 -0.446768
H	 2.688377	 0.712084	 -0.164856
H	 2.295137	 -0.403407	 1.144883

	symmetry c1
}
set optking {
	frozen_dihedral = ("
		5 8 11 13
	")
}

ee = optimize('scf')
oeprop('DIPOLE', 'QUADRUPOLE', 'MULLIKEN_CHARGES')
f=open( 'psi4out.xyz', 'w' )
f.write( "14  " )
f.write( str(ee) + "\n" )
f.write( MOL.save_string_xyz() )
f.close()
--------------------------------------------------------------------------

    Molecular point group: c1
  Charge       = 0
  Multiplicity = 1
  Basis Set: CC-PVTZ
  Basis Set:
  @DF-RHF Final Energy:  -248.22211256283774
    Total Energy =                       -248.2221125628378218
    Molecular point group: c1
  Basis Set: CC-PVTZ
  Basis Set:
  Basis Set: CC-PVTZ
  Basis Set:
  @DF-RHF Final Energy:  -248.22248394872400
    Total Energy =                       -248.2224839487237773
  Basis Set: CC-PVTZ
  Basis Set:
  Basis Set: CC-PVTZ
  Basis Set:
  @DF-RHF Final Energy:  -248.22258519138552
    Total Energy =                       -248.2225851913855195
  Basis Set: CC-PVTZ
  Basis Set:
  Charge       = 0
  Multiplicity = 1
  Basis Set: CC-PVTZ
  Basis Set:

    Orbital Energies (a.u.)
    -----------------------

    Doubly Occupied:

       1A    -20.547159     2A    -15.523070     3A    -11.264442
       4A    -11.263223     5A    -11.239338     6A     -1.379637
       7A     -1.175514     8A     -1.000384     9A     -0.907896
      10A     -0.815322    11A     -0.683849    12A     -0.673431
      13A     -0.644908    14A     -0.611442    15A     -0.607633
      16A     -0.540173    17A     -0.536379    18A     -0.497227
      19A     -0.473390    20A     -0.414584    21A     -0.383474

  @DF-RHF Final Energy:  -248.22258592896284

   => Energetics <=

    Nuclear Repulsion Energy =            194.4014121004826450
    One-Electron Energy =                -722.8830521585909992
    Two-Electron Energy =                 280.2590541291454542
    DFT Exchange-Correlation Energy =       0.0000000000000000
    Empirical Dispersion Energy =           0.0000000000000000
    PCM Polarization Energy =               0.0000000000000000
    EFP Energy =                            0.0000000000000000
    Total Energy =                       -248.2225859289629284
    Molecular point group: c1
  Basis Set: CC-PVTZ
  Basis Set:

  -Total Gradient:
     Atom            X                  Y                   Z
    ------   -----------------  -----------------  -----------------
       1        0.000011924720     0.000006121959    -0.000018931858
       2        0.000025119406    -0.000000900027    -0.000013821877
       3       -0.000034290619     0.000020002607    -0.000027292251
       4        0.000009863867     0.000008493176    -0.000006390781
       5       -0.000069669431     0.000026153245     0.000040094341
       6       -0.000001787894     0.000006215156     0.000014987251
       7       -0.000041258266     0.000012219024    -0.000012638308
       8        0.000163853962    -0.000001664362     0.000032294481
       9       -0.000006936859    -0.000030184748     0.000031397925
      10        0.000011114742     0.000006012286    -0.000008900109
      11       -0.000037465856    -0.000079974532    -0.000050889606
      12        0.000020350681    -0.000007347065     0.000006606095
      13       -0.000038850445     0.000018858007     0.000000595330
      14       -0.000011968005     0.000015995272     0.000012889367

  **** Optimization is complete! (in 4 steps) ****
    Final optimized geometry and variables:
    Molecular point group: c1

    Geometry (in Angstrom), charge = 0, multiplicity = 1:

    H           -2.919326408652     0.224416646339     0.249434319394
    N           -1.946547783106     0.323172452552     0.446864240430
    C           -1.174262363848     0.424835861321    -0.777515568128
    H           -1.660583398781    -0.480643723030     0.964574887670
    C            0.298126507268     0.564172711385    -0.465600635974
    H           -1.304949231435    -0.426724286533    -1.444062103890
    H           -1.491607487838     1.311176466072    -1.316069549987
    O            0.735638769408    -0.609376384739     0.153212206197
    H            0.853491617619     0.734976388690    -1.386144861129
    H            0.451094254452     1.417236875047     0.190366057438
    C            2.065549534773    -0.626650514671     0.573683519226
    H            2.596797952076    -1.432030931343     0.079408238225
    H            2.573093993049     0.305163267517     0.348079966942
    H            2.110739411333    -0.787131835410     1.644756164797

  Mulliken Charges: (a.u.)
   Center  Symbol    Alpha    Beta     Spin     Total
       1     H     0.43035  0.43035  0.00000  0.13929
       2     N     3.69429  3.69429  0.00000 -0.38857
       3     C     3.02431  3.02431  0.00000 -0.04862
       4     H     0.42218  0.42218  0.00000  0.15565
       5     C     2.96756  2.96756  0.00000  0.06488
       6     H     0.46488  0.46488  0.00000  0.07025
       7     H     0.45876  0.45876  0.00000  0.08248
       8     O     4.18476  4.18476  0.00000 -0.36952
       9     H     0.46985  0.46985  0.00000  0.06030
      10     H     0.46882  0.46882  0.00000  0.06235
      11     C     3.02697  3.02697  0.00000 -0.05394
      12     H     0.45850  0.45850  0.00000  0.08299
      13     H     0.47155  0.47155  0.00000  0.05689
      14     H     0.45722  0.45722  0.00000  0.08556

   Total alpha = 21.00000, Total beta = 21.00000, Total charge = -0.00000
