                              Psi4 1.0.54 Driver

  ==> Input File <==

--------------------------------------------------------------------------
set {
	reference rhf
	basis cc-pvtz
}

set_num_threads( 4 )
memory 2 gb

molecule MOL {
0 1

H	 -1.922592	 -0.874477	 -1.168826
O	 -2.321472	 -0.864941	 -0.318626
C	 -2.021813	 0.336996	 0.342658
C	 -0.669613	 0.837286	 -0.127252
H	 -2.780861	 1.084746	 0.127159
H	 -2.006390	 0.184138	 1.420053
C	 0.490865	 -0.082543	 0.241244
H	 -0.708709	 0.967192	 -1.204587
H	 -0.507562	 1.822272	 0.303070
C	 1.839800	 0.429565	 -0.255472
H	 0.305636	 -1.070211	 -0.165276
H	 0.527397	 -0.195943	 1.322876
C	 3.001144	 -0.485193	 0.119072
H	 1.804373	 0.541073	 -1.335756
H	 2.020437	 1.423114	 0.146921
H	 2.866892	 -1.477297	 -0.298806
H	 3.943543	 -0.095749	 -0.249061
H	 3.085064	 -0.590459	 1.195790

	symmetry c1
}
set optking {
	frozen_dihedral = ("
		1 2 3 4
	")
}

ee,wfn = optimize('scf', return_wfn=True)
oeprop( wfn, 'DIPOLE', 'QUADRUPOLE', 'MULLIKEN_CHARGES')
f=open( 'psi4out.xyz', 'w' )
f.write( "18  " )
f.write( str(ee) + "\n" )
f.write( MOL.save_string_xyz() )
f.close()
--------------------------------------------------------------------------

    Molecular point group: c1
  Charge       = 0
  Multiplicity = 1
  Basis Set: CC-PVTZ
  Basis Set:
  @DF-RHF Final Energy:  -271.28338950434141
    Total Energy =                       -271.2833895043414145
    Molecular point group: c1
  Basis Set: CC-PVTZ
  Basis Set:
  Basis Set: CC-PVTZ
  Basis Set:
  @DF-RHF Final Energy:  -271.18704976621098
    Total Energy =                       -271.1870497662109756
  Basis Set: CC-PVTZ
  Basis Set:
  Basis Set: CC-PVTZ
  Basis Set:
  @DF-RHF Final Energy:  -271.26932165976802
    Total Energy =                       -271.2693216597679680
  Basis Set: CC-PVTZ
  Basis Set:
  Basis Set: CC-PVTZ
  Basis Set:
  @DF-RHF Final Energy:  -271.28481423079808
    Total Energy =                       -271.2848142307981334
  Basis Set: CC-PVTZ
  Basis Set:
  Basis Set: CC-PVTZ
  Basis Set:
  @DF-RHF Final Energy:  -271.28510732138318
    Total Energy =                       -271.2851073213831796
  Basis Set: CC-PVTZ
  Basis Set:
  Basis Set: CC-PVTZ
  Basis Set:
  @DF-RHF Final Energy:  -271.28514903078894
    Total Energy =                       -271.2851490307888298
  Basis Set: CC-PVTZ
  Basis Set:
  Basis Set: CC-PVTZ
  Basis Set:
  @DF-RHF Final Energy:  -271.28515019271993
    Total Energy =                       -271.2851501927200388
  Basis Set: CC-PVTZ
  Basis Set:
  Charge       = 0
  Multiplicity = 1
  Basis Set: CC-PVTZ
  Basis Set:

    Orbital Energies (a.u.)
    -----------------------

    Doubly Occupied:

       1A    -20.544471     2A    -11.265166     3A    -11.220629
       4A    -11.217105     5A    -11.215376     6A    -11.208961
       7A     -1.362705     8A     -1.083979     9A     -1.014230
      10A     -0.920822    11A     -0.834576    12A     -0.797076
      13A     -0.667951    14A     -0.656274    15A     -0.632812
      16A     -0.612391    17A     -0.576716    18A     -0.556511
      19A     -0.542994    20A     -0.497279    21A     -0.490844
      22A     -0.480361    23A     -0.468378    24A     -0.459292
      25A     -0.427668

  @DF-RHF Final Energy:  -271.28515049836460

   => Energetics <=

    Nuclear Repulsion Energy =            249.1390290222192334
    One-Electron Energy =                -861.3392377117776277
    Two-Electron Energy =                 340.9150581911939071
    DFT Exchange-Correlation Energy =       0.0000000000000000
    Empirical Dispersion Energy =           0.0000000000000000
    PCM Polarization Energy =               0.0000000000000000
    EFP Energy =                            0.0000000000000000
    Total Energy =                       -271.2851504983644872
    Molecular point group: c1
  Basis Set: CC-PVTZ
  Basis Set:

  -Total Gradient:
     Atom            X                  Y                   Z
    ------   -----------------  -----------------  -----------------
       1        0.001560852774    -0.001428957090     0.000792175565
       2       -0.002186873844     0.002040457248    -0.001447521366
       3        0.001177621672    -0.001360919075     0.001736980585
       4       -0.000571377619     0.000733478368    -0.001071356246
       5        0.000019110364     0.000006842933     0.000006401235
       6        0.000004344214     0.000005479766    -0.000015075408
       7        0.000006013080     0.000010830459     0.000004482814
       8        0.000000596437     0.000001050238     0.000005259965
       9        0.000004376197     0.000001420842    -0.000002437221
      10       -0.000011707645    -0.000011020307    -0.000004600752
      11        0.000003117054    -0.000006350596     0.000001470160
      12       -0.000004120683     0.000003612469    -0.000002281084
      13       -0.000003590862    -0.000001538067    -0.000001360364
      14        0.000005731433     0.000000900641     0.000000051581
      15       -0.000000923473    -0.000002010015     0.000004152362
      16        0.000004157964     0.000004802916     0.000000490597
      17       -0.000002703965    -0.000000906144     0.000000601975
      18       -0.000004623094     0.000002825413    -0.000007434399

  **** Optimization is complete! (in 8 steps) ****
    Final optimized geometry and variables:
    Molecular point group: c1

    Geometry (in Angstrom), charge = 0, multiplicity = 1:

    H           -2.426083100394    -0.361270372511    -0.577640857888
    O           -2.566389613662    -0.035982325472     0.292370071130
    C           -1.710567233051     1.047221135677     0.549810464293
    C           -0.392217726660     0.977363730668    -0.204892331664
    H           -2.215949076611     1.976257932415     0.299869804807
    H           -1.531850571200     1.053379440889     1.618261124622
    C            0.489920416308    -0.207662464425     0.180994639929
    H           -0.599964080259     0.951465158316    -1.273994219747
    H            0.145793368708     1.904321584979    -0.026645255514
    C            1.795301806931    -0.267071909778    -0.607253303174
    H           -0.057895298832    -1.134171538871     0.039673083758
    H            0.713414052917    -0.150052967504     1.243380141943
    C            2.679027980599    -1.445489822058    -0.212576004578
    H            1.571682711357    -0.325172488105    -1.669254549775
    H            2.345083871713     0.659212934508    -0.463433085805
    H            2.169186977030    -2.388922223068    -0.376717971743
    H            3.595777985943    -1.459976519625    -0.790671803423
    H            2.950292265340    -1.396609944445     0.836662224054

  Mulliken Charges: (a.u.)
   Center  Symbol    Alpha    Beta     Spin     Total
       1     H     0.39349  0.39349  0.00000  0.21303
       2     O     4.20656  4.20656  0.00000 -0.41313
       3     C     2.96149  2.96149  0.00000  0.07702
       4     C     3.11353  3.11353  0.00000 -0.22706
       5     H     0.46408  0.46408  0.00000  0.07184
       6     H     0.46506  0.46506  0.00000  0.06988
       7     C     3.08448  3.08448  0.00000 -0.16896
       8     H     0.45635  0.45635  0.00000  0.08729
       9     H     0.45003  0.45003  0.00000  0.09994
      10     C     3.08380  3.08380  0.00000 -0.16761
      11     H     0.45091  0.45091  0.00000  0.09819
      12     H     0.45331  0.45331  0.00000  0.09339
      13     C     3.14949  3.14949  0.00000 -0.29897
      14     H     0.45516  0.45516  0.00000  0.08969
      15     H     0.45483  0.45483  0.00000  0.09033
      16     H     0.45473  0.45473  0.00000  0.09055
      17     H     0.44826  0.44826  0.00000  0.10348
      18     H     0.45444  0.45444  0.00000  0.09111

   Total alpha = 25.00000, Total beta = 25.00000, Total charge =  0.00000

*** Psi4 exiting successfully. Buy a developer a beer!
