  ==> Input File <==

--------------------------------------------------------------------------
set {
	reference rhf
	basis 6-31G*
}

set_num_threads( 4 )
memory 2 gb

molecule MOL {
0 1

H	 -2.121187	 -0.566652	 -1.811081
C	 -2.721325	 0.339435	 -1.661204
C	 -2.660244	 0.921717	 -0.272021
O	 -3.356655	 0.790154	 -2.558398
C	 -1.220012	 1.144545	 0.209990
H	 -3.230999	 1.843045	 -0.261869
H	 -3.155145	 0.215016	 0.393037
C	 -0.252658	 0.041456	 -0.226725
H	 -0.873521	 2.100229	 -0.171974
H	 -1.211708	 1.231594	 1.295398
C	 1.180775	 0.282413	 0.250794
H	 -0.266029	 -0.034465	 -1.312038
H	 -0.597733	 -0.921000	 0.146291
C	 2.148627	 -0.814315	 -0.201312
H	 1.516199	 1.249228	 -0.115937
H	 1.192670	 0.346017	 1.338083
C	 3.580890	 -0.659131	 0.322722
H	 2.166869	 -0.852443	 -1.289387
H	 1.762857	 -1.776509	 0.128956
C	 4.324889	 0.564933	 -0.213704
H	 4.142010	 -1.551473	 0.056605
H	 3.564836	 -0.624694	 1.410140
H	 4.342616	 0.565491	 -1.300421
H	 3.866655	 1.493402	 0.110242
H	 5.353900	 0.572371	 0.132816

	symmetry c1
}
set optking {
	frozen_dihedral = ("
		6 3 5 8
	")
}

ee = optimize('scf')
oeprop('DIPOLE', 'QUADRUPOLE', 'MULLIKEN_CHARGES')
f=open( 'psi4out.xyz', 'w' )
f.write( "25  " )
f.write( str(ee) + "\n" )
f.write( MOL.save_string_xyz() )
f.close()
--------------------------------------------------------------------------

    Molecular point group: c1
  Charge       = 0
  Multiplicity = 1
  Basis Set: 6-31G*
  Basis Set:
  @DF-RHF Final Energy:  -387.11500464634395
    Total Energy =                       -387.1150046463444596
    Molecular point group: c1
  Basis Set: 6-31G*
  Basis Set:
  Basis Set: 6-31G*
  Basis Set:
  @DF-RHF Final Energy:  -387.11507770215599
    Total Energy =                       -387.1150777021557587
  Basis Set: 6-31G*
  Basis Set:
  Basis Set: 6-31G*
  Basis Set:
  @DF-RHF Final Energy:  -387.11729670231381
    Total Energy =                       -387.1172967023137517
  Basis Set: 6-31G*
  Basis Set:
  Basis Set: 6-31G*
  Basis Set:
  @DF-RHF Final Energy:  -387.11576463900616
    Total Energy =                       -387.1157646390063292
  Basis Set: 6-31G*
  Basis Set:
  @DF-RHF Final Energy:  -387.11795645004383
    Total Energy =                       -387.1179564500439483
  @DF-RHF Final Energy:  -387.11820737315344
    Total Energy =                       -387.1182073731533819
  @DF-RHF Final Energy:  -387.11828662911660
    Total Energy =                       -387.1182866291163691
  @DF-RHF Final Energy:  -387.11837326520481
    Total Energy =                       -387.1183732652050367
  Basis Set: 6-31G*
  Basis Set:
  @DF-RHF Final Energy:  -387.11837212723782
    Total Energy =                       -387.1183721272381035
  Basis Set: 6-31G*
  Basis Set:
  Basis Set: 6-31G*
  Basis Set:
  @DF-RHF Final Energy:  -387.11838261535161
    Total Energy =                       -387.1183826153511518
  Basis Set: 6-31G*
  Basis Set:
  Basis Set: 6-31G*
  Basis Set:
  @DF-RHF Final Energy:  -387.11840356416724
    Total Energy =                       -387.1184035641679202
  Basis Set: 6-31G*
  Basis Set:
  Charge       = 0
  Multiplicity = 1
  Basis Set: 6-31G*
  Basis Set:

    Orbital Energies (a.u.)
    -----------------------

    Doubly Occupied:

       1A    -20.561052     2A    -11.324714     3A    -11.234988
       4A    -11.233860     5A    -11.227358     6A    -11.221255
       7A    -11.219159     8A    -11.218519     9A    -11.210956
      10A     -1.400771    11A     -1.103761    12A     -1.068526
      13A     -1.012933    14A     -0.942651    15A     -0.877316
      16A     -0.830576    17A     -0.783260    18A     -0.771388
      19A     -0.682415    20A     -0.653806    21A     -0.630818
      22A     -0.617322    23A     -0.612976    24A     -0.583208
      25A     -0.573725    26A     -0.562799    27A     -0.532151
      28A     -0.522646    29A     -0.513535    30A     -0.497451
      31A     -0.489526    32A     -0.476887    33A     -0.466108
      34A     -0.460172    35A     -0.442734    36A     -0.406993

  @DF-RHF Final Energy:  -387.11840439354762

   => Energetics <=

    Nuclear Repulsion Energy =            440.3360607907069380
    One-Electron Energy =               -1396.9722970379766593
    Two-Electron Energy =                 569.5178318537224413
    DFT Exchange-Correlation Energy =       0.0000000000000000
    Empirical Dispersion Energy =           0.0000000000000000
    PCM Polarization Energy =               0.0000000000000000
    EFP Energy =                            0.0000000000000000
    Total Energy =                       -387.1184043935472801
    Molecular point group: c1
  Basis Set: 6-31G*
  Basis Set:

  -Total Gradient:
     Atom            X                  Y                   Z
    ------   -----------------  -----------------  -----------------
       1       -0.000012591524     0.000017377412    -0.000019012631
       2       -0.000000853592    -0.000005272458    -0.000027170595
       3       -0.000964928919    -0.000051557138     0.003965441947
       4       -0.000013663819    -0.000032705676    -0.000011936052
       5       -0.000470272049    -0.001974862296     0.002963600048
       6        0.000959520108     0.000576518534    -0.004140705259
       7       -0.000000523414     0.000014856798     0.000017978019
       8        0.000493314269     0.001436193714    -0.002764360711
       9       -0.000012037062     0.000030834968     0.000011651754
      10       -0.000001923995    -0.000017436093    -0.000007412486
      11        0.000026034121    -0.000005488423    -0.000026591749
      12        0.000009314649     0.000003417780     0.000028713482
      13        0.000004545502    -0.000011840448    -0.000007449111
      14       -0.000006066921     0.000009624902     0.000040636781
      15        0.000023864519     0.000008129816    -0.000003569823
      16        0.000002867920    -0.000001655810     0.000000534790
      17       -0.000003237303    -0.000006245795    -0.000024279517
      18        0.000007716190     0.000016568266     0.000007401618
      19        0.000002070695    -0.000010228140     0.000003980319
      20       -0.000011297488     0.000011603322     0.000008368907
      21       -0.000021158553    -0.000018839954    -0.000008748620
      22       -0.000001487935     0.000004560748    -0.000005754177
      23        0.000010435559    -0.000003664506    -0.000002409378
      24       -0.000015411180     0.000009779113    -0.000009027587
      25       -0.000004229776     0.000000331366     0.000010120036

  **** Optimization is complete! (in 12 steps) ****
    Final optimized geometry and variables:
    Molecular point group: c1

    Geometry (in Angstrom), charge = 0, multiplicity = 1:

    H           -2.826255548885    -1.060143795719    -1.235947518547
    C           -2.993234820949     0.015926082386    -1.125111658192
    C           -2.823635961312     0.579038060341     0.266812332901
    O           -3.286603165941     0.671834583213    -2.072760805262
    C           -1.344909103190     0.815620281019     0.644032545225
    H           -3.356854218426     1.522061282859     0.276277674966
    H           -3.285964323486    -0.104532912641     0.974174199518
    C           -0.372332915774    -0.291317649242     0.223089288058
    H           -1.023762077771     1.746817098270     0.185971773018
    H           -1.288056504643     0.964993139061     1.718098091036
    C            1.051253721506    -0.039905038878     0.725107848226
    H           -0.354102354730    -0.371444131361    -0.861384802719
    H           -0.719585981303    -1.253377546649     0.597951299114
    C            2.036767259591    -1.125271807452     0.284114670933
    H            1.383047716789     0.931883932523     0.369042011277
    H            1.043016641732     0.017627571799     1.812421058122
    C            3.455816591860    -0.964548940216     0.841212061671
    H            2.080108337003    -1.151691674214    -0.803495235267
    H            1.651324844055    -2.093894259424     0.596098399254
    C            4.200387652069     0.272782393389     0.336422052458
    H            4.030192868676    -1.849023950676     0.577233929548
    H            3.414806183771    -0.943501565075     1.928384263812
    H            4.248066951549     0.283654080006    -0.749164819734
    H            3.723344755794     1.193352842776     0.655943918764
    H            5.219191296930     0.288106636816     0.711038523209

  Mulliken Charges: (a.u.)
   Center  Symbol    Alpha    Beta     Spin     Total
       1     H     0.42897  0.42897  0.00000  0.14206
       2     C     2.83868  2.83868  0.00000  0.32264
       3     C     3.20463  3.20463  0.00000 -0.40926
       4     O     4.23771  4.23771  0.00000 -0.47542
       5     C     3.15790  3.15790  0.00000 -0.31581
       6     H     0.39869  0.39869  0.00000  0.20262
       7     H     0.41381  0.41381  0.00000  0.17239
       8     C     3.16297  3.16297  0.00000 -0.32593
       9     H     0.41106  0.41106  0.00000  0.17788
      10     H     0.41451  0.41451  0.00000  0.17097
      11     C     3.15383  3.15383  0.00000 -0.30766
      12     H     0.41706  0.41706  0.00000  0.16589
      13     H     0.42273  0.42273  0.00000  0.15453
      14     C     3.15321  3.15321  0.00000 -0.30642
      15     H     0.41880  0.41880  0.00000  0.16240
      16     H     0.42298  0.42298  0.00000  0.15405
      17     C     3.15275  3.15275  0.00000 -0.30550
      18     H     0.42254  0.42254  0.00000  0.15492
      19     H     0.42232  0.42232  0.00000  0.15536
      20     C     3.24157  3.24157  0.00000 -0.48314
      21     H     0.42009  0.42009  0.00000  0.15981
      22     H     0.42322  0.42322  0.00000  0.15356
      23     H     0.42136  0.42136  0.00000  0.15728
      24     H     0.42008  0.42008  0.00000  0.15984
      25     H     0.41852  0.41852  0.00000  0.16295

   Total alpha = 36.00000, Total beta = 36.00000, Total charge =  0.00000
