  ==> Input File <==

--------------------------------------------------------------------------
set {
	reference rhf
	basis 6-31G*
}

set_num_threads( 1 )
memory 2 gb

molecule MOL {
0 1

O	 -1.276010	 1.052711	 -0.768302
C	 -1.204840	 0.067374	 -0.106123
C	 -2.388195	 -0.672128	 0.458071
O	 -0.067104	 -0.527208	 0.221609
H	 -2.388023	 -1.694060	 0.097175
H	 -3.300579	 -0.174919	 0.164318
H	 -2.315377	 -0.706351	 1.539059
C	 1.170087	 0.033890	 -0.239320
C	 2.160084	 -1.116683	 -0.280232
C	 1.601736	 1.158305	 0.689128
H	 1.007789	 0.423098	 -1.233646
H	 1.807649	 -1.901803	 -0.939491
H	 3.121672	 -0.769619	 -0.643863
H	 2.299284	 -1.538153	 0.709536
H	 2.549258	 1.571956	 0.358808
H	 0.868844	 1.955063	 0.693814
H	 1.724994	 0.787623	 1.701754

	symmetry c1
}
set optking {
	frozen_dihedral = ("
		11 8 4 2
	")
}

ee = energy('scf')
oeprop('DIPOLE', 'QUADRUPOLE', 'MULLIKEN_CHARGES')
f=open( 'psi4out.xyz', 'w' )
f.write( "17  " )
f.write( str(ee) + "\n" )
f.write( MOL.save_string_xyz() )
f.close()
--------------------------------------------------------------------------

    Molecular point group: c1

    Geometry (in Angstrom), charge = 0, multiplicity = 1:

       Center              X                  Y                   Z               Mass
    ------------   -----------------  -----------------  -----------------  -----------------
           O         -1.276020236223     1.052796359835    -0.768111887931    15.994914619560
           C         -1.204850236223     0.067459359835    -0.105932887931    12.000000000000
           C         -2.388205236223    -0.672042640165     0.458261112069    12.000000000000
           O         -0.067114236223    -0.527122640165     0.221799112069    15.994914619560
           H         -2.388033236223    -1.693974640165     0.097365112069     1.007825032070
           H         -3.300589236223    -0.174833640165     0.164508112069     1.007825032070
           H         -2.315387236223    -0.706265640165     1.539249112069     1.007825032070
           C          1.170076763777     0.033975359835    -0.239129887931    12.000000000000
           C          2.160073763777    -1.116597640165    -0.280041887931    12.000000000000
           C          1.601725763777     1.158390359835     0.689318112069    12.000000000000
           H          1.007778763777     0.423183359835    -1.233455887931     1.007825032070
           H          1.807638763777    -1.901717640165    -0.939300887931     1.007825032070
           H          3.121661763777    -0.769533640165    -0.643672887931     1.007825032070
           H          2.299273763777    -1.538067640165     0.709726112069     1.007825032070
           H          2.549247763777     1.572041359835     0.358998112069     1.007825032070
           H          0.868833763777     1.955148359835     0.694004112069     1.007825032070
           H          1.724983763777     0.787708359835     1.701944112069     1.007825032070

  Charge       = 0
  Multiplicity = 1
  Basis Set: 6-31G*
  Basis Set:

    Orbital Energies (a.u.)
    -----------------------

    Doubly Occupied:

       1A    -20.598985     2A    -20.543038     3A    -11.374733
       4A    -11.290045     5A    -11.232389     6A    -11.219529
       7A    -11.215565     8A     -1.465479     9A     -1.361531
      10A     -1.078499    11A     -1.005023    12A     -0.947948
      13A     -0.848321    14A     -0.765379    15A     -0.691887
      16A     -0.670087    17A     -0.658775    18A     -0.613028
      19A     -0.585930    20A     -0.578427    21A     -0.562365
      22A     -0.550620    23A     -0.537441    24A     -0.519880
      25A     -0.501780    26A     -0.482666    27A     -0.446848
      28A     -0.435723

  @DF-RHF Final Energy:  -344.91466976495610

   => Energetics <=

    Nuclear Repulsion Energy =            323.1198900756269268
    One-Electron Energy =               -1110.5054747552571826
    Two-Electron Energy =                 442.4709149146754044
    DFT Exchange-Correlation Energy =       0.0000000000000000
    Empirical Dispersion Energy =           0.0000000000000000
    PCM Polarization Energy =               0.0000000000000000
    EFP Energy =                            0.0000000000000000
    Total Energy =                       -344.9146697649548514

  Mulliken Charges: (a.u.)
   Center  Symbol    Alpha    Beta     Spin     Total
       1     O     4.28556  4.28556  0.00000 -0.57112
       2     C     2.61769  2.61769  0.00000  0.76462
       3     C     3.28151  3.28151  0.00000 -0.56301
       4     O     4.31367  4.31367  0.00000 -0.62733
       5     H     0.40074  0.40074  0.00000  0.19852
       6     H     0.39732  0.39732  0.00000  0.20536
       7     H     0.40090  0.40090  0.00000  0.19820
       8     C     2.92790  2.92790  0.00000  0.14420
       9     C     3.24157  3.24157  0.00000 -0.48314
      10     C     3.25081  3.25081  0.00000 -0.50162
      11     H     0.40139  0.40139  0.00000  0.19722
      12     H     0.41212  0.41212  0.00000  0.17576
      13     H     0.41760  0.41760  0.00000  0.16480
      14     H     0.41407  0.41407  0.00000  0.17187
      15     H     0.41822  0.41822  0.00000  0.16356
      16     H     0.40193  0.40193  0.00000  0.19614
      17     H     0.41702  0.41702  0.00000  0.16597

   Total alpha = 28.00000, Total beta = 28.00000, Total charge = -0.00000
