  ==> Input File <==

--------------------------------------------------------------------------
set {
	reference rhf
	basis 6-31G*
}

set_num_threads( 1 )
memory 2 gb

molecule MOL {
0 1

O	 1.593087	 0.302948	 0.306385
C	 2.701189	 0.057885	 -0.047330
C	 3.554538	 0.929822	 -0.936323
O	 3.347903	 -1.046386	 0.304773
C	 2.856695	 2.220905	 -1.358502
H	 4.478131	 1.122982	 -0.400733
H	 3.832509	 0.334243	 -1.802184
C	 3.668567	 3.067112	 -2.345058
H	 2.623769	 2.808013	 -0.475231
H	 1.903263	 1.967144	 -1.809052
C	 4.963601	 3.655154	 -1.777428
H	 3.037126	 3.883675	 -2.687449
H	 3.898486	 2.473188	 -3.228461
C	 5.679983	 4.579341	 -2.764178
H	 4.736541	 4.207962	 -0.867118
H	 5.642698	 2.856265	 -1.488333
C	 6.978153	 5.168669	 -2.209580
H	 5.011060	 5.389851	 -3.048517
H	 5.897755	 4.030107	 -3.678845
C	 7.685372	 6.093412	 -3.199727
H	 6.762504	 5.717005	 -1.294995
H	 7.649809	 4.360059	 -1.928850
H	 8.601556	 6.495089	 -2.777981
H	 7.051899	 6.932358	 -3.473730
H	 7.945440	 5.565027	 -4.112660
C	 4.728119	 -1.109107	 -0.004993
H	 4.882018	 -1.033965	 -1.071845
H	 5.068212	 -2.067527	 0.355250
H	 5.265056	 -0.311663	 0.488280

	symmetry c1
}
set optking {
	frozen_dihedral = ("
		21 17 14 11,
		17 14 11 15,
		15 11 8 5,
		6 3 5 9,
		11 8 5 9,
		2 4 26 27,
		6 3 2 1
	")
}

ee = energy('scf')
oeprop('DIPOLE', 'QUADRUPOLE', 'MULLIKEN_CHARGES')
f=open( 'psi4out.xyz', 'w' )
f.write( "29  " )
f.write( str(ee) + "\n" )
f.write( MOL.save_string_xyz() )
f.close()
--------------------------------------------------------------------------

    Molecular point group: c1

    Geometry (in Angstrom), charge = 0, multiplicity = 1:

       Center              X                  Y                   Z               Mass
    ------------   -----------------  -----------------  -----------------  -----------------
           O         -2.756802314926    -1.842272425289     1.568031727714    15.994914619560
           C         -1.648700314926    -2.087335425289     1.214316727714    12.000000000000
           C         -0.795351314926    -1.215398425289     0.325323727714    12.000000000000
           O         -1.001986314926    -3.191606425289     1.566419727714    15.994914619560
           C         -1.493194314926     0.075684574711    -0.096855272286    12.000000000000
           H          0.128241685074    -1.022238425289     0.860913727714     1.007825032070
           H         -0.517380314926    -1.810977425289    -0.540537272286     1.007825032070
           C         -0.681322314926     0.921891574711    -1.083411272286    12.000000000000
           H         -1.726120314926     0.662792574711     0.786415727714     1.007825032070
           H         -2.446626314926    -0.178076425289    -0.547405272286     1.007825032070
           C          0.613711685074     1.509933574711    -0.515781272286    12.000000000000
           H         -1.312763314926     1.738454574711    -1.425802272286     1.007825032070
           H         -0.451403314926     0.327967574711    -1.966814272286     1.007825032070
           C          1.330093685074     2.434120574711    -1.502531272286    12.000000000000
           H          0.386651685074     2.062741574711     0.394528727714     1.007825032070
           H          1.292808685074     0.711044574711    -0.226686272286     1.007825032070
           C          2.628263685074     3.023448574711    -0.947933272286    12.000000000000
           H          0.661170685074     3.244630574711    -1.786870272286     1.007825032070
           H          1.547865685074     1.884886574711    -2.417198272286     1.007825032070
           C          3.335482685074     3.948191574711    -1.938080272286    12.000000000000
           H          2.412614685074     3.571784574711    -0.033348272286     1.007825032070
           H          3.299919685074     2.214838574711    -0.667203272286     1.007825032070
           H          4.251666685074     4.349868574711    -1.516334272286     1.007825032070
           H          2.702009685074     4.787137574711    -2.212083272286     1.007825032070
           H          3.595550685074     3.419806574711    -2.851013272286     1.007825032070
           C          0.378229685074    -3.254327425289     1.256653727714    12.000000000000
           H          0.532128685074    -3.179185425289     0.189801727714     1.007825032070
           H          0.718322685074    -4.212747425289     1.616896727714     1.007825032070
           H          0.915166685074    -2.456883425289     1.749926727714     1.007825032070

  Charge       = 0
  Multiplicity = 1
  Basis Set: 6-31G*
  Basis Set:

    Orbital Energies (a.u.)
    -----------------------

    Doubly Occupied:

       1A    -20.607921     2A    -20.542700     3A    -11.374400
       4A    -11.297439     5A    -11.241437     6A    -11.222988
       7A    -11.221995     8A    -11.221300     9A    -11.220004
      10A    -11.218895    11A    -11.212513    12A     -1.468397
      13A     -1.368566    14A     -1.102798    15A     -1.070281
      16A     -1.016582    17A     -0.989113    18A     -0.950201
      19A     -0.873761    20A     -0.808834    21A     -0.796082
      22A     -0.758816    23A     -0.708074    24A     -0.700128
      25A     -0.677755    26A     -0.654865    27A     -0.628941
      28A     -0.607699    29A     -0.599292    30A     -0.590979
      31A     -0.569462    32A     -0.559763    33A     -0.546095
      34A     -0.544239    35A     -0.525092    36A     -0.512683
      37A     -0.502548    38A     -0.482626    39A     -0.474215
      40A     -0.466806    41A     -0.463826    42A     -0.449285
      43A     -0.444152    44A     -0.428179

  @DF-RHF Final Energy:  -501.01638080057330

   => Energetics <=

    Nuclear Repulsion Energy =            620.7337474709757998
    One-Electron Energy =               -1912.0566103780354297
    Two-Electron Energy =                 790.3064821064890566
    DFT Exchange-Correlation Energy =       0.0000000000000000
    Empirical Dispersion Energy =           0.0000000000000000
    PCM Polarization Energy =               0.0000000000000000
    EFP Energy =                            0.0000000000000000
    Total Energy =                       -501.0163808005704595

  Mulliken Charges: (a.u.)
   Center  Symbol    Alpha    Beta     Spin     Total
       1     O     4.27361  4.27361  0.00000 -0.54722
       2     C     2.58724  2.58724  0.00000  0.82553
       3     C     3.24841  3.24841  0.00000 -0.49682
       4     O     4.30096  4.30096  0.00000 -0.60192
       5     C     3.14879  3.14879  0.00000 -0.29757
       6     H     0.40176  0.40176  0.00000  0.19649
       7     H     0.40109  0.40109  0.00000  0.19783
       8     C     3.15671  3.15671  0.00000 -0.31342
       9     H     0.41154  0.41154  0.00000  0.17692
      10     H     0.40651  0.40651  0.00000  0.18698
      11     C     3.15429  3.15429  0.00000 -0.30858
      12     H     0.41688  0.41688  0.00000  0.16624
      13     H     0.42484  0.42484  0.00000  0.15032
      14     C     3.15029  3.15029  0.00000 -0.30057
      15     H     0.42166  0.42166  0.00000  0.15668
      16     H     0.42765  0.42765  0.00000  0.14470
      17     C     3.15146  3.15146  0.00000 -0.30293
      18     H     0.42222  0.42222  0.00000  0.15556
      19     H     0.42412  0.42412  0.00000  0.15176
      20     C     3.23946  3.23946  0.00000 -0.47891
      21     H     0.42230  0.42230  0.00000  0.15541
      22     H     0.42450  0.42450  0.00000  0.15099
      23     H     0.41881  0.41881  0.00000  0.16237
      24     H     0.42092  0.42092  0.00000  0.15816
      25     H     0.42179  0.42179  0.00000  0.15642
      26     C     3.10144  3.10144  0.00000 -0.20289
      27     H     0.41415  0.41415  0.00000  0.17169
      28     H     0.39466  0.39466  0.00000  0.21068
      29     H     0.41195  0.41195  0.00000  0.17609

   Total alpha = 44.00000, Total beta = 44.00000, Total charge =  0.00000
