  ==> Input File <==

--------------------------------------------------------------------------
set {
	reference rhf
	basis cc-pvtz
}

set_num_threads( 4 )
memory 2 gb

molecule MOL {
0 1

H	 0.944994	 0.818733	 -2.023939
C	 0.876934	 1.402896	 -1.096699
C	 0.692262	 0.592428	 0.156232
O	 0.945583	 2.582508	 -1.134610
C	 -0.554654	 -0.292621	 0.086567
H	 0.648581	 1.269354	 0.999262
H	 1.573973	 -0.034681	 0.271112
C	 -1.846385	 0.513195	 -0.016346
H	 -0.473986	 -0.956115	 -0.769708
H	 -0.597929	 -0.929215	 0.966651
C	 -3.089953	 -0.365049	 -0.098564
H	 -1.798267	 1.154820	 -0.891143
H	 -1.925398	 1.173265	 0.842889
H	 -3.055079	 -1.012299	 -0.968245
H	 -3.988403	 0.236438	 -0.170014
H	 -3.183055	 -0.995885	 0.779079

	symmetry c1
}
set optking {
	frozen_dihedral = ("
		6 3 5 9
	")
}

ee = optimize('scf')
oeprop('DIPOLE', 'QUADRUPOLE', 'MULLIKEN_CHARGES')
f=open( 'psi4out.xyz', 'w' )
f.write( "16  " )
f.write( str(ee) + "\n" )
f.write( MOL.save_string_xyz() )
f.close()
--------------------------------------------------------------------------

    Molecular point group: c1
  Charge       = 0
  Multiplicity = 1
  Basis Set: CC-PVTZ
  Basis Set:
  @DF-RHF Final Energy:  -270.11843972717901
    Total Energy =                       -270.1184397271787248
    Molecular point group: c1
  Basis Set: CC-PVTZ
  Basis Set:
  Basis Set: CC-PVTZ
  Basis Set:
  @DF-RHF Final Energy:  -270.11842893877014
    Total Energy =                       -270.1184289387700233
  Basis Set: CC-PVTZ
  Basis Set:
  Basis Set: CC-PVTZ
  Basis Set:
  @DF-RHF Final Energy:  -270.11649092311092
    Total Energy =                       -270.1164909231108027
  Basis Set: CC-PVTZ
  Basis Set:
  Basis Set: CC-PVTZ
  Basis Set:
  @DF-RHF Final Energy:  -270.11862349351236
    Total Energy =                       -270.1186234935127004
  Basis Set: CC-PVTZ
  Basis Set:
  Basis Set: CC-PVTZ
  Basis Set:
  @DF-RHF Final Energy:  -270.11866830246902
    Total Energy =                       -270.1186683024692456
  Basis Set: CC-PVTZ
  Basis Set:
  Basis Set: CC-PVTZ
  Basis Set:
  @DF-RHF Final Energy:  -270.11867928903661
    Total Energy =                       -270.1186792890368906
  Basis Set: CC-PVTZ
  Basis Set:
  Basis Set: CC-PVTZ
  Basis Set:
  @DF-RHF Final Energy:  -270.11868118530288
    Total Energy =                       -270.1186811853029326
  Basis Set: CC-PVTZ
  Basis Set:
  Charge       = 0
  Multiplicity = 1
  Basis Set: CC-PVTZ
  Basis Set:

    Orbital Energies (a.u.)
    -----------------------

    Doubly Occupied:

       1A    -20.551892     2A    -11.321534     3A    -11.234517
       4A    -11.233769     5A    -11.225106     6A    -11.215588
       7A     -1.406920     8A     -1.097411     9A     -1.018210
      10A     -0.905342    11A     -0.821767    12A     -0.788368
      13A     -0.668924    14A     -0.658181    15A     -0.618208
      16A     -0.612566    17A     -0.590551    18A     -0.546991
      19A     -0.528184    20A     -0.521769    21A     -0.489638
      22A     -0.480770    23A     -0.469302    24A     -0.412442

  @DF-RHF Final Energy:  -270.11868158176992

   => Energetics <=

    Nuclear Repulsion Energy =            233.7895041624274199
    One-Electron Energy =                -828.9804706801011207
    Two-Electron Energy =                 325.0722849359038378
    DFT Exchange-Correlation Energy =       0.0000000000000000
    Empirical Dispersion Energy =           0.0000000000000000
    PCM Polarization Energy =               0.0000000000000000
    EFP Energy =                            0.0000000000000000
    Total Energy =                       -270.1186815817698630
    Molecular point group: c1
  Basis Set: CC-PVTZ
  Basis Set:

  -Total Gradient:
     Atom            X                  Y                   Z
    ------   -----------------  -----------------  -----------------
       1        0.000032296459    -0.000005518786    -0.000002801528
       2       -0.000031152755     0.000016398704     0.000002601865
       3       -0.000140046810     0.000305073347    -0.000227202361
       4       -0.000011675129    -0.000001440650    -0.000008646103
       5       -0.000201697532     0.000262333656    -0.000227877018
       6        0.000192545703    -0.000292507188     0.000238206683
       7       -0.000014473238    -0.000012694606    -0.000007151176
       8        0.000001740616    -0.000000330437    -0.000007872805
       9        0.000176493425    -0.000275559567     0.000243610478
      10        0.000006997128     0.000003533280    -0.000002797511
      11       -0.000006302493     0.000000370234    -0.000002204537
      12       -0.000007015071     0.000008577856     0.000000535527
      13        0.000003000885    -0.000007052908    -0.000000181326
      14        0.000003040281    -0.000001666761     0.000002337193
      15       -0.000001789068    -0.000002208710    -0.000002912406
      16       -0.000001962408     0.000002692538     0.000002355023

  **** Optimization is complete! (in 8 steps) ****
    Final optimized geometry and variables:
    Molecular point group: c1

    Geometry (in Angstrom), charge = 0, multiplicity = 1:

    H            1.411142932967     0.077837151946    -1.668293629304
    C            1.404997938426     0.661634244021    -0.737685446756
    C            1.166812520982    -0.141073388011     0.512275135626
    O            1.587867441147     1.828987552908    -0.770453484357
    C           -0.082388204562    -1.022505486679     0.423757206168
    H            1.118265826845     0.535795508497     1.355390046223
    H            2.040653457385    -0.775219582739     0.645095131305
    C           -1.387158772315    -0.234144645564     0.334827237070
    H            0.003837263033    -1.686483921263    -0.432974069558
    H           -0.110021529555    -1.664434446711     1.297832263100
    C           -2.616970897181    -1.133273073304     0.273353649167
    H           -1.369869430723     0.410413926988    -0.539292997531
    H           -1.462384655684     0.426131714682     1.193708769154
    H           -2.584830179261    -1.782785395114    -0.595036750958
    H           -3.526380386387    -0.547349000121     0.214039381154
    H           -2.685660184481    -1.763088440690     1.153999637208

  Mulliken Charges: (a.u.)
   Center  Symbol    Alpha    Beta     Spin     Total
       1     H     0.46408  0.46408  0.00000  0.07184
       2     C     2.90477  2.90477  0.00000  0.19045
       3     C     3.08918  3.08918  0.00000 -0.17836
       4     O     4.16588  4.16588  0.00000 -0.33176
       5     C     3.11104  3.11104  0.00000 -0.22208
       6     H     0.44262  0.44262  0.00000  0.11476
       7     H     0.44130  0.44130  0.00000  0.11739
       8     C     3.08400  3.08400  0.00000 -0.16799
       9     H     0.45047  0.45047  0.00000  0.09906
      10     H     0.44373  0.44373  0.00000  0.11254
      11     C     3.14943  3.14943  0.00000 -0.29887
      12     H     0.44920  0.44920  0.00000  0.10159
      13     H     0.44966  0.44966  0.00000  0.10068
      14     H     0.45477  0.45477  0.00000  0.09047
      15     H     0.44577  0.44577  0.00000  0.10846
      16     H     0.45410  0.45410  0.00000  0.09180

   Total alpha = 24.00000, Total beta = 24.00000, Total charge = -0.00000
