                              Psi4 1.0.54 Driver

  ==> Input File <==

--------------------------------------------------------------------------
set {
	reference rhf
	basis cc-pvtz
}

set_num_threads( 4 )
memory 2 gb

molecule MOL {
0 1

H	 -0.000342	 -0.223902	 -3.352295
C	 -0.027146	 0.371068	 -2.446756
C	 0.024493	 -0.518541	 -1.216015
H	 -0.932586	 0.964979	 -2.449855
H	 0.819708	 1.049865	 -2.473332
N	 -0.042516	 0.263377	 0.000000
H	 -0.822211	 -1.197105	 -1.225584
H	 0.921114	 -1.142847	 -1.255206
C	 0.024493	 -0.518541	 1.216015
H	 0.682568	 0.950412	 0.000000
C	 -0.097583	 -2.004506	 0.923103
H	 0.980879	 -0.321504	 1.689250
H	 -0.743166	 -0.225144	 1.937015
H	 0.683953	 -2.324722	 0.245442
H	 -0.022656	 -2.583540	 1.836238
H	 -1.054458	 -2.234499	 0.464708

	symmetry c1
}
set optking {
	frozen_dihedral = ("
		12 9 6 3
	")
}

ee,wfn = optimize('scf', return_wfn=True)
oeprop( wfn, 'DIPOLE', 'QUADRUPOLE', 'MULLIKEN_CHARGES')
f=open( 'psi4out.xyz', 'w' )
f.write( "16  " )
f.write( str(ee) + "\n" )
f.write( MOL.save_string_xyz() )
f.close()
--------------------------------------------------------------------------

    Molecular point group: c1
  Charge       = 0
  Multiplicity = 1
  Basis Set: CC-PVTZ
  Basis Set:
  @DF-RHF Final Energy:  -212.37497601228662
    Total Energy =                       -212.3749760122864814
    Molecular point group: c1
  Basis Set: CC-PVTZ
  Basis Set:
  Basis Set: CC-PVTZ
  Basis Set:
  @DF-RHF Final Energy:  -212.36608223964004
    Total Energy =                       -212.3660822396400079
  Basis Set: CC-PVTZ
  Basis Set:
  Basis Set: CC-PVTZ
  Basis Set:
  @DF-RHF Final Energy:  -212.38188888771631
    Total Energy =                       -212.3818888877163431
  Basis Set: CC-PVTZ
  Basis Set:
  Basis Set: CC-PVTZ
  Basis Set:
  @DF-RHF Final Energy:  -212.38365145468848
    Total Energy =                       -212.3836514546883336
  Basis Set: CC-PVTZ
  Basis Set:
  Basis Set: CC-PVTZ
  Basis Set:
  @DF-RHF Final Energy:  -212.38396146863056
    Total Energy =                       -212.3839614686305595
  Basis Set: CC-PVTZ
  Basis Set:
  Basis Set: CC-PVTZ
  Basis Set:
  @DF-RHF Final Energy:  -212.38401548406421
    Total Energy =                       -212.3840154840640935
  Basis Set: CC-PVTZ
  Basis Set:
  Basis Set: CC-PVTZ
  Basis Set:
  @DF-RHF Final Energy:  -212.38401904529942
    Total Energy =                       -212.3840190452993966
  Basis Set: CC-PVTZ
  Basis Set:
  Charge       = 0
  Multiplicity = 1
  Basis Set: CC-PVTZ
  Basis Set:

    Orbital Energies (a.u.)
    -----------------------

    Doubly Occupied:

       1A    -15.522772     2A    -11.239782     3A    -11.237808
       4A    -11.208861     5A    -11.204931     6A     -1.197387
       7A     -1.025033     8A     -0.969856     9A     -0.854210
      10A     -0.792151    11A     -0.662459    12A     -0.628205
      13A     -0.605669    14A     -0.595023    15A     -0.538184
      16A     -0.519657    17A     -0.510988    18A     -0.494269
      19A     -0.482865    20A     -0.478860    21A     -0.346800

  @DF-RHF Final Energy:  -212.38401932003887

   => Energetics <=

    Nuclear Repulsion Energy =            191.7548318553934337
    One-Electron Energy =                -666.0461536700400984
    Two-Electron Energy =                 261.9073024946078476
    DFT Exchange-Correlation Energy =       0.0000000000000000
    Empirical Dispersion Energy =           0.0000000000000000
    PCM Polarization Energy =               0.0000000000000000
    EFP Energy =                            0.0000000000000000
    Total Energy =                       -212.3840193200388171
    Molecular point group: c1
  Basis Set: CC-PVTZ
  Basis Set:

  -Total Gradient:
     Atom            X                  Y                   Z
    ------   -----------------  -----------------  -----------------
       1        0.000000130187     0.000000033888     0.000006385622
       2        0.000008204894    -0.000001886537     0.000002866086
       3       -0.002800832846    -0.000177525721     0.000049191106
       4       -0.000000305668    -0.000000914645     0.000000888169
       5       -0.000000205964     0.000001361460    -0.000001607385
       6        0.003876793884     0.000937934664     0.000379652269
       7        0.000000773921    -0.000005692352    -0.000019402441
       8       -0.000000574527     0.000000685336    -0.000003157756
       9        0.000214068339    -0.003491618212    -0.001974217462
      10        0.000005297744     0.000010675302     0.000006396418
      11       -0.000013256876    -0.000017178447     0.000001504920
      12       -0.001304954128     0.002731052236     0.001568823587
      13        0.000004008730     0.000009316065    -0.000002637805
      14        0.000001462997    -0.000001499929    -0.000013506488
      15        0.000002518583     0.000010027539    -0.000016982372
      16        0.000006870732    -0.000004770651     0.000015803530

  **** Optimization is complete! (in 8 steps) ****
    Final optimized geometry and variables:
    Molecular point group: c1

    Geometry (in Angstrom), charge = 0, multiplicity = 1:

    H           -0.052256826151     0.401573985275    -3.119006119004
    C           -0.051066321013     0.933687661532    -2.174621042122
    C            0.057661117854    -0.038278983865    -1.010379834951
    H           -0.961964891626     1.514743514010    -2.102137646000
    H            0.787139730029     1.623737263957    -2.186820827193
    N            0.031549974043     0.684579721572     0.243043843458
    H           -0.782452836227    -0.719398452843    -1.044124441093
    H            0.956920572545    -0.644312743237    -1.141697071279
    C            0.091110666530    -0.030517400702     1.516177904623
    H            0.701271091606     1.420004191424     0.230359117841
    C           -0.164091639175    -1.529993213253     1.453671488103
    H            1.048629112646     0.146277198744     2.002414725364
    H           -0.651233257535     0.402681507492     2.180658855965
    H            0.570593359936    -2.049660454324     0.851751749664
    H           -0.117547323253    -1.936768747581     2.457013097100
    H           -1.147016300021    -1.751412888451     1.056424132238

  Mulliken Charges: (a.u.)
   Center  Symbol    Alpha    Beta     Spin     Total
       1     H     0.45425  0.45425  0.00000  0.09149
       2     C     3.14423  3.14423  0.00000 -0.28846
       3     C     3.02083  3.02083  0.00000 -0.04166
       4     H     0.45006  0.45006  0.00000  0.09988
       5     H     0.45996  0.45996  0.00000  0.08008
       6     N     3.64580  3.64580  0.00000 -0.29160
       7     H     0.45686  0.45686  0.00000  0.08628
       8     H     0.47242  0.47242  0.00000  0.05516
       9     C     3.01735  3.01735  0.00000 -0.03471
      10     H     0.44133  0.44133  0.00000  0.11735
      11     C     3.16221  3.16221  0.00000 -0.32442
      12     H     0.46723  0.46723  0.00000  0.06554
      13     H     0.46087  0.46087  0.00000  0.07826
      14     H     0.45126  0.45126  0.00000  0.09749
      15     H     0.44527  0.44527  0.00000  0.10946
      16     H     0.45007  0.45007  0.00000  0.09986

   Total alpha = 21.00000, Total beta = 21.00000, Total charge = -0.00000

*** Psi4 exiting successfully. Buy a developer a beer!
