  ==> Input File <==

--------------------------------------------------------------------------
set {
	reference rhf
	basis 6-31G*
}

set_num_threads( 4 )
memory 2 gb

molecule MOL {
0 1

O	 -0.682937	 1.318834	 -0.186099
C	 -0.860635	 0.152188	 -0.042321
C	 -2.173363	 -0.477127	 0.338347
O	 0.083258	 -0.765189	 -0.202595
H	 -2.477673	 -1.180929	 -0.427595
H	 -2.923125	 0.290956	 0.455536
H	 -2.058825	 -1.029004	 1.264191
C	 1.391937	 -0.334737	 -0.569838
C	 2.462784	 -1.174355	 0.101710
H	 1.502992	 0.710928	 -0.326135
H	 1.424451	 -0.452057	 -1.643467
H	 3.442958	 -0.873213	 -0.255084
H	 2.437497	 -1.044443	 1.176350
H	 2.324206	 -2.225050	 -0.129052

	symmetry c1
}
set optking {
	frozen_dihedral = ("
		10 8 4 2
	")
}

ee = optimize('scf')
oeprop('DIPOLE', 'QUADRUPOLE', 'MULLIKEN_CHARGES')
f=open( 'psi4out.xyz', 'w' )
f.write( "14  " )
f.write( str(ee) + "\n" )
f.write( MOL.save_string_xyz() )
f.close()
--------------------------------------------------------------------------

    Molecular point group: c1
  Charge       = 0
  Multiplicity = 1
  Basis Set: 6-31G*
  Basis Set:
  @DF-RHF Final Energy:  -305.87368003194194
    Total Energy =                       -305.8736800319419444
    Molecular point group: c1
  Basis Set: 6-31G*
  Basis Set:
  Basis Set: 6-31G*
  Basis Set:
  @DF-RHF Final Energy:  -305.87445802396178
    Total Energy =                       -305.8744580239618926
  Basis Set: 6-31G*
  Basis Set:
  Basis Set: 6-31G*
  Basis Set:
  @DF-RHF Final Energy:  -305.87456051386346
    Total Energy =                       -305.8745605138632300
  Basis Set: 6-31G*
  Basis Set:
  Basis Set: 6-31G*
  Basis Set:
  @DF-RHF Final Energy:  -305.87426943218986
    Total Energy =                       -305.8742694321898057
  Basis Set: 6-31G*
  Basis Set:
  Basis Set: 6-31G*
  Basis Set:
  @DF-RHF Final Energy:  -305.87464441400459
    Total Energy =                       -305.8746444140045355
  Basis Set: 6-31G*
  Basis Set:
  Charge       = 0
  Multiplicity = 1
  Basis Set: 6-31G*
  Basis Set:

    Orbital Energies (a.u.)
    -----------------------

    Doubly Occupied:

       1A    -20.601524     2A    -20.543950     3A    -11.375867
       4A    -11.284335     5A    -11.232973     6A    -11.222887
       7A     -1.466485     8A     -1.363019     9A     -1.057798
      10A     -0.999943    11A     -0.874299    12A     -0.777708
      13A     -0.695127    14A     -0.683310    15A     -0.662633
      16A     -0.611313    17A     -0.581152    18A     -0.562964
      19A     -0.559694    20A     -0.536045    21A     -0.513954
      22A     -0.498851    23A     -0.450466    24A     -0.438540

  @DF-RHF Final Energy:  -305.87464490536354

   => Energetics <=

    Nuclear Repulsion Energy =            245.6439881694531948
    One-Electron Energy =                -903.8475888907033777
    Two-Electron Energy =                 352.3289558158868431
    DFT Exchange-Correlation Energy =       0.0000000000000000
    Empirical Dispersion Energy =           0.0000000000000000
    PCM Polarization Energy =               0.0000000000000000
    EFP Energy =                            0.0000000000000000
    Total Energy =                       -305.8746449053633114
    Molecular point group: c1
  Basis Set: 6-31G*
  Basis Set:

  -Total Gradient:
     Atom            X                  Y                   Z
    ------   -----------------  -----------------  -----------------
       1        0.000003671689    -0.000002981514     0.000010996664
       2        0.000330217259     0.000092934279     0.001119615070
       3       -0.000000309692    -0.000007822547    -0.000024575910
       4       -0.000504366244    -0.000048823837    -0.001938804436
       5        0.000002899363    -0.000003422795     0.000006302502
       6        0.000002972918     0.000004162081    -0.000000120870
       7        0.000005868840     0.000008094160     0.000005783879
       8        0.000666135090    -0.000396899115     0.001999818617
       9       -0.000030026606     0.000001904221     0.000015658658
      10       -0.000467443576     0.000339251292    -0.001188516932
      11       -0.000007306905     0.000003679279    -0.000002946567
      12       -0.000003962676     0.000010570239    -0.000008787431
      13        0.000004099540    -0.000002245930     0.000006583724
      14       -0.000002449001     0.000001600185    -0.000001006968

  **** Optimization is complete! (in 6 steps) ****
    Final optimized geometry and variables:
    Molecular point group: c1

    Geometry (in Angstrom), charge = 0, multiplicity = 1:

    O           -0.754968145094     1.538279965370    -0.114360985509
    C           -0.900010022868     0.369856495503     0.045994245226
    C           -2.187535936494    -0.284898680058     0.468576876773
    O            0.057466374634    -0.531580366900    -0.127704584347
    H           -2.498740593814    -0.998900185423    -0.285166261925
    H           -2.949850512835     0.467907135672     0.602651159141
    H           -2.035198798264    -0.829356692902     1.393277448996
    C            1.364379120945    -0.099432093283    -0.498254534686
    C            2.372903933943    -0.974985457204     0.216553911890
    H            1.480073797599     0.943475606089    -0.251596660994
    H            1.450401273534    -0.202391926634    -1.573063994151
    H            3.379494192978    -0.696493850848    -0.078888616233
    H            2.287093942607    -0.860380491424     1.291376817861
    H            2.220277674077    -2.019585211581    -0.029582775918

  Mulliken Charges: (a.u.)
   Center  Symbol    Alpha    Beta     Spin     Total
       1     O     4.28271  4.28271  0.00000 -0.56542
       2     C     2.62031  2.62031  0.00000  0.75938
       3     C     3.28212  3.28212  0.00000 -0.56424
       4     O     4.30751  4.30751  0.00000 -0.61503
       5     H     0.40035  0.40035  0.00000  0.19930
       6     H     0.39709  0.39709  0.00000  0.20582
       7     H     0.40085  0.40085  0.00000  0.19831
       8     C     3.00884  3.00884  0.00000 -0.01768
       9     C     3.24718  3.24718  0.00000 -0.49437
      10     H     0.39668  0.39668  0.00000  0.20664
      11     H     0.41488  0.41488  0.00000  0.17025
      12     H     0.41678  0.41678  0.00000  0.16644
      13     H     0.41314  0.41314  0.00000  0.17373
      14     H     0.41157  0.41157  0.00000  0.17687

   Total alpha = 24.00000, Total beta = 24.00000, Total charge =  0.00000
