                              Psi4 1.0.54 Driver

  ==> Input File <==

--------------------------------------------------------------------------
set {
	reference rhf
	basis cc-pvtz
}

set_num_threads( 4 )
memory 2 gb

molecule MOL {
0 1

O	 1.216069	 1.304886	 0.000821
C	 1.121787	 0.124983	 0.000110
C	 -0.170912	 -0.649867	 -0.000147
O	 2.167739	 -0.685178	 -0.000678
C	 -1.413045	 0.229353	 0.001137
H	 -0.152877	 -1.303435	 -0.866175
H	 -0.152278	 -1.305116	 0.864586
C	 -1.233343	 1.488029	 0.844789
H	 -2.256561	 -0.343001	 0.370505
H	 -1.659353	 0.502834	 -1.018708
C	 -2.473211	 2.375450	 0.854890
H	 -0.983457	 1.207652	 1.864684
H	 -0.386703	 2.057255	 0.470063
H	 -3.329795	 1.845140	 1.256910
H	 -2.317084	 3.260360	 1.460890
H	 -2.728652	 2.701017	 -0.147775
C	 3.449556	 -0.089977	 -0.000570
H	 3.585694	 0.522473	 -0.879546
H	 4.155805	 -0.904274	 -0.001389
H	 3.586173	 0.521118	 0.879272

	symmetry c1
}
set optking {
	frozen_dihedral = ("
		9 5 3 6
	")
}

ee,wfn = optimize('scf', return_wfn=True)
oeprop( wfn, 'DIPOLE', 'QUADRUPOLE', 'MULLIKEN_CHARGES')
f=open( 'psi4out.xyz', 'w' )
f.write( "20  " )
f.write( str(ee) + "\n" )
f.write( MOL.save_string_xyz() )
f.close()
--------------------------------------------------------------------------

    Molecular point group: c1
  Charge       = 0
  Multiplicity = 1
  Basis Set: CC-PVTZ
  Basis Set:
  @DF-RHF Final Energy:  -384.06347953470095
    Total Energy =                       -384.0634795347010595
    Molecular point group: c1
  Basis Set: CC-PVTZ
  Basis Set:
  Basis Set: CC-PVTZ
  Basis Set:
  @DF-RHF Final Energy:  -384.07440266116015
    Total Energy =                       -384.0744026611602067
  Basis Set: CC-PVTZ
  Basis Set:
  Basis Set: CC-PVTZ
  Basis Set:
  @DF-RHF Final Energy:  -384.07609133948608
    Total Energy =                       -384.0760913394861973
  Basis Set: CC-PVTZ
  Basis Set:
  Basis Set: CC-PVTZ
  Basis Set:
  @DF-RHF Final Energy:  -384.07385078316338
    Total Energy =                       -384.0738507831632660
  Basis Set: CC-PVTZ
  Basis Set:
  @DF-RHF Final Energy:  -384.07745557993809
    Total Energy =                       -384.0774555799382597
  @DF-RHF Final Energy:  -384.07774531681048
    Total Energy =                       -384.0777453168103648
  @DF-RHF Final Energy:  -384.07796294750347
    Total Energy =                       -384.0779629475028969
  @DF-RHF Final Energy:  -384.07815723476301
    Total Energy =                       -384.0781572347630117
  @DF-RHF Final Energy:  -384.07830554993285
    Total Energy =                       -384.0783055499325656
  @DF-RHF Final Energy:  -384.07859856963523
    Total Energy =                       -384.0785985696353464
  @DF-RHF Final Energy:  -384.07887339522819
    Total Energy =                       -384.0788733952282428
  @DF-RHF Final Energy:  -384.07890434201084
    Total Energy =                       -384.0789043420105600
  @DF-RHF Final Energy:  -384.07891250988229
    Total Energy =                       -384.0789125098820023
  @DF-RHF Final Energy:  -384.07891131321605
    Total Energy =                       -384.0789113132158263
  @DF-RHF Final Energy:  -384.07891216362236
    Total Energy =                       -384.0789121636223626
  @DF-RHF Final Energy:  -384.07891713268651
    Total Energy =                       -384.0789171326862288
  @DF-RHF Final Energy:  -384.07891985720443
    Total Energy =                       -384.0789198572044825
  @DF-RHF Final Energy:  -384.07892255904886
    Total Energy =                       -384.0789225590488059
  @DF-RHF Final Energy:  -384.07892256988868
    Total Energy =                       -384.0789225698889595
  Basis Set: CC-PVTZ
  Basis Set:
  @DF-RHF Final Energy:  -384.07892298949645
    Total Energy =                       -384.0789229894962773
  Basis Set: CC-PVTZ
  Basis Set:
  Basis Set: CC-PVTZ
  Basis Set:
  @DF-RHF Final Energy:  -384.07892282440201
    Total Energy =                       -384.0789228244022979
  Basis Set: CC-PVTZ
  Basis Set:
  Basis Set: CC-PVTZ
  Basis Set:
  @DF-RHF Final Energy:  -384.07892303778465
    Total Energy =                       -384.0789230377847616
  Basis Set: CC-PVTZ
  Basis Set:
  Charge       = 0
  Multiplicity = 1
  Basis Set: CC-PVTZ
  Basis Set:

    Orbital Energies (a.u.)
    -----------------------

    Doubly Occupied:

       1A    -20.598582     2A    -20.531472     3A    -11.364733
       4A    -11.279027     5A    -11.234223     6A    -11.222256
       7A    -11.212395     8A    -11.206460     9A     -1.473060
      10A     -1.365126    11A     -1.087718    12A     -1.022801
      13A     -0.970017    14A     -0.886461    15A     -0.808185
      16A     -0.768468    17A     -0.697445    18A     -0.683527
      19A     -0.674651    20A     -0.641416    21A     -0.602038
      22A     -0.590263    23A     -0.583438    24A     -0.542020
      25A     -0.535693    26A     -0.519084    27A     -0.513074
      28A     -0.480109    29A     -0.472987    30A     -0.464768
      31A     -0.458040    32A     -0.434156

  @DF-RHF Final Energy:  -384.07892317070832

   => Energetics <=

    Nuclear Repulsion Energy =            391.6287663336445348
    One-Electron Energy =               -1299.5679939705157722
    Two-Electron Energy =                 523.8603044661622334
    DFT Exchange-Correlation Energy =       0.0000000000000000
    Empirical Dispersion Energy =           0.0000000000000000
    PCM Polarization Energy =               0.0000000000000000
    EFP Energy =                            0.0000000000000000
    Total Energy =                       -384.0789231707090039
    Molecular point group: c1
  Basis Set: CC-PVTZ
  Basis Set:

  -Total Gradient:
     Atom            X                  Y                   Z
    ------   -----------------  -----------------  -----------------
       1       -0.000201416823     0.000174477519     0.000180726705
       2        0.000429905093    -0.000379872104     0.000068531909
       3       -0.003813179774    -0.005201428779     0.004202708443
       4       -0.000159603445     0.000258786601    -0.000351092157
       5       -0.000857747443    -0.001263905054    -0.007267640977
       6        0.003441056840     0.004540304914    -0.002848647780
       7       -0.000268750979     0.000094390882     0.000277376054
       8       -0.000132527804     0.000223442722    -0.000276226323
       9        0.000972710247     0.001787283566     0.006155946195
      10        0.000346965900     0.000180050278    -0.000218939615
      11        0.000088321549    -0.000158913703    -0.000014455708
      12       -0.000024620126    -0.000006224999    -0.000019874636
      13        0.000104308487    -0.000049386025     0.000005270358
      14        0.000009227774     0.000039110243     0.000002239142
      15        0.000010654203    -0.000110648392    -0.000054822785
      16        0.000005287171    -0.000025243441     0.000040047912
      17        0.000028240186    -0.000240462157     0.000149913186
      18        0.000022679070    -0.000012179403    -0.000107179818
      19        0.000079690284    -0.000003089771     0.000043571198
      20       -0.000081200402     0.000153507100     0.000032548695

  **** Optimization is complete! (in 23 steps) ****
    Final optimized geometry and variables:
    Molecular point group: c1

    Geometry (in Angstrom), charge = 0, multiplicity = 1:

    O            1.059567293426     0.512794594155    -1.016580931937
    C            0.828971391414    -0.427886078177    -0.333994555762
    C           -0.489759651283    -1.164121543882    -0.305061895071
    O            1.729485351639    -0.984724167933     0.455983707694
    C           -1.723881529823    -0.257377865288    -0.387135061936
    H           -0.440368337163    -1.785146707891    -1.194927840728
    H           -0.522132111431    -1.806480869032     0.562486580876
    C           -1.696247749239     0.949831589290     0.552611107533
    H           -2.578861181651    -0.858615167049    -0.094702554852
    H           -1.872193096673     0.077484866383    -1.405990071999
    C           -3.010881822401     1.722169519092     0.536395248058
    H           -1.493784615175     0.609505812721     1.565878599895
    H           -0.887079074656     1.612877302668     0.276959054366
    H           -3.841181319335     1.097073989279     0.848272263193
    H           -2.970633546288     2.574960572076     1.203730475347
    H           -3.232199285204     2.092528565859    -0.458930043086
    C            3.027136821693    -0.423461682320     0.457404404801
    H            3.466280368580    -0.477419827629    -0.527847893494
    H            3.603860996465    -1.008496527374     1.155320896896
    H            2.994413592530     0.608935230011     0.772673838312

  Mulliken Charges: (a.u.)
   Center  Symbol    Alpha    Beta     Spin     Total
       1     O     4.20640  4.20640  0.00000 -0.41281
       2     C     2.79653  2.79653  0.00000  0.40695
       3     C     3.10756  3.10756  0.00000 -0.21512
       4     O     4.14688  4.14688  0.00000 -0.29376
       5     C     3.08328  3.08328  0.00000 -0.16656
       6     H     0.43889  0.43889  0.00000  0.12223
       7     H     0.43529  0.43529  0.00000  0.12943
       8     C     3.09547  3.09547  0.00000 -0.19094
       9     H     0.45018  0.45018  0.00000  0.09964
      10     H     0.44654  0.44654  0.00000  0.10692
      11     C     3.15143  3.15143  0.00000 -0.30286
      12     H     0.45504  0.45504  0.00000  0.08993
      13     H     0.43973  0.43973  0.00000  0.12053
      14     H     0.45673  0.45673  0.00000  0.08653
      15     H     0.44771  0.44771  0.00000  0.10458
      16     H     0.45350  0.45350  0.00000  0.09300
      17     C     3.03548  3.03548  0.00000 -0.07095
      18     H     0.45428  0.45428  0.00000  0.09143
      19     H     0.44516  0.44516  0.00000  0.10968
      20     H     0.45393  0.45393  0.00000  0.09214

   Total alpha = 32.00000, Total beta = 32.00000, Total charge = -0.00000

*** Psi4 exiting successfully. Buy a developer a beer!
