  ==> Input File <==

--------------------------------------------------------------------------
set {
	reference rhf
	basis 6-31G*
}

set_num_threads( 4 )
memory 2 gb

molecule MOL {
0 1

H	 -3.101035	 0.526447	 1.946923
O	 -2.245800	 0.803034	 1.650531
C	 -2.026376	 0.340750	 0.341611
C	 -0.673256	 0.843270	 -0.132153
H	 -2.043303	 -0.747364	 0.315939
H	 -2.809944	 0.697153	 -0.325960
C	 0.486613	 -0.083066	 0.235839
H	 -0.715586	 0.970948	 -1.210718
H	 -0.508072	 1.829858	 0.297090
C	 1.840406	 0.433480	 -0.254303
H	 0.300215	 -1.068318	 -0.178947
H	 0.519509	 -0.203625	 1.318070
C	 3.000220	 -0.489290	 0.118523
H	 1.809207	 0.553576	 -1.335192
H	 2.021860	 1.424500	 0.157276
H	 2.864959	 -1.479103	 -0.307933
H	 3.946603	 -0.099227	 -0.243630
H	 3.080049	 -0.602997	 1.196117

	symmetry c1
}
set optking {
	frozen_dihedral = ("
		2 3 4 8
	")
}

ee = optimize('scf')
oeprop('DIPOLE', 'QUADRUPOLE', 'MULLIKEN_CHARGES')
f=open( 'psi4out.xyz', 'w' )
f.write( "18  " )
f.write( str(ee) + "\n" )
f.write( MOL.save_string_xyz() )
f.close()
--------------------------------------------------------------------------

    Molecular point group: c1
  Charge       = 0
  Multiplicity = 1
  Basis Set: 6-31G*
  Basis Set:
  @DF-RHF Final Energy:  -271.17724107641288
    Total Energy =                       -271.1772410764128836
    Molecular point group: c1
  Basis Set: 6-31G*
  Basis Set:
  Basis Set: 6-31G*
  Basis Set:
  @DF-RHF Final Energy:  -271.17766616110373
    Total Energy =                       -271.1776661611036161
  Basis Set: 6-31G*
  Basis Set:
  Basis Set: 6-31G*
  Basis Set:
  @DF-RHF Final Energy:  -271.17772406379459
    Total Energy =                       -271.1777240637943009
  Basis Set: 6-31G*
  Basis Set:
  Basis Set: 6-31G*
  Basis Set:
  @DF-RHF Final Energy:  -271.17772743515030
    Total Energy =                       -271.1777274351503593
  Basis Set: 6-31G*
  Basis Set:
  Basis Set: 6-31G*
  Basis Set:
  @DF-RHF Final Energy:  -271.17773508825405
    Total Energy =                       -271.1777350882539395
  Basis Set: 6-31G*
  Basis Set:
  Charge       = 0
  Multiplicity = 1
  Basis Set: 6-31G*
  Basis Set:

    Orbital Energies (a.u.)
    -----------------------

    Doubly Occupied:

       1A    -20.552260     2A    -11.267647     3A    -11.212199
       4A    -11.211146     5A    -11.209954     6A    -11.205951
       7A     -1.358467     8A     -1.076142     9A     -1.008670
      10A     -0.913221    11A     -0.818971    12A     -0.787195
      13A     -0.704273    14A     -0.634794    15A     -0.632148
      16A     -0.577834    17A     -0.571180    18A     -0.559529
      19A     -0.524677    20A     -0.498167    21A     -0.488139
      22A     -0.469401    23A     -0.460523    24A     -0.452062
      25A     -0.426204

  @DF-RHF Final Energy:  -271.17773526764154

   => Energetics <=

    Nuclear Repulsion Energy =            247.8041847718332065
    One-Electron Energy =                -858.7223315140704472
    Two-Electron Energy =                 339.7404114745958168
    DFT Exchange-Correlation Energy =       0.0000000000000000
    Empirical Dispersion Energy =           0.0000000000000000
    PCM Polarization Energy =               0.0000000000000000
    EFP Energy =                            0.0000000000000000
    Total Energy =                       -271.1777352676414239
    Molecular point group: c1
  Basis Set: 6-31G*
  Basis Set:

  -Total Gradient:
     Atom            X                  Y                   Z
    ------   -----------------  -----------------  -----------------
       1        0.000000314747     0.000007518734     0.000009615726
       2       -0.001601647746     0.003022143512    -0.001320546615
       3        0.001720082470    -0.002850640150     0.001827701770
       4        0.001178150991    -0.004702103070    -0.001145312546
       5       -0.000011721635     0.000002057515    -0.000010878764
       6       -0.000020830403     0.000007298494     0.000045270560
       7        0.000002929032     0.000028799704     0.000010085529
       8       -0.001297251876     0.004512035337     0.000580124610
       9        0.000009752713    -0.000007029120     0.000008401251
      10        0.000002829816    -0.000038562859    -0.000035648214
      11        0.000001822003     0.000036153774    -0.000000072916
      12        0.000013910106    -0.000015120788     0.000021036242
      13        0.000010966927     0.000011440626     0.000016331534
      14       -0.000003024603    -0.000003840659    -0.000006572151
      15       -0.000011722412    -0.000008441470    -0.000004881061
      16        0.000002522573     0.000006140544    -0.000007378621
      17        0.000004286581     0.000003161733     0.000010467077
      18       -0.000001369280    -0.000011011857     0.000002256587

  **** Optimization is complete! (in 6 steps) ****
    Final optimized geometry and variables:
    Molecular point group: c1

    Geometry (in Angstrom), charge = 0, multiplicity = 1:

    H           -2.997919331231     0.177470541355     1.678809926250
    O           -2.203010143559     0.524526457262     1.299595043522
    C           -2.053849823652     0.040006548320    -0.012747533674
    C           -0.701748983904     0.503220283762    -0.542122831271
    H           -2.122878720362    -1.046258262574    -0.035178267436
    H           -2.852035319528     0.430229941786    -0.641209910183
    C            0.460154428376    -0.409122572625    -0.152021983392
    H           -0.758397233509     0.629256954967    -1.621043636998
    H           -0.533878197485     1.499385730130    -0.141590977102
    C            1.821821352283     0.125397201360    -0.597684592661
    H            0.304427612588    -1.397212999389    -0.583003897158
    H            0.456544871073    -0.538582170722     0.927579027796
    C            2.979659299333    -0.793888770754    -0.210527264086
    H            1.818761316294     0.266929728973    -1.676736022458
    H            1.980797325076     1.109030478210    -0.161498672197
    H            2.869151799685    -1.775739753624    -0.662444545846
    H            3.932027771522    -0.386098511342    -0.535234891178
    H            3.027823198218    -0.930169043822     0.866121640802

  Mulliken Charges: (a.u.)
   Center  Symbol    Alpha    Beta     Spin     Total
       1     H     0.28126  0.28126  0.00000  0.43747
       2     O     4.37048  4.37048  0.00000 -0.74096
       3     C     2.99753  2.99753  0.00000  0.00494
       4     C     3.16199  3.16199  0.00000 -0.32399
       5     H     0.43176  0.43176  0.00000  0.13648
       6     H     0.42947  0.42947  0.00000  0.14105
       7     C     3.15456  3.15456  0.00000 -0.30913
       8     H     0.42279  0.42279  0.00000  0.15441
       9     H     0.40948  0.40948  0.00000  0.18103
      10     C     3.15206  3.15206  0.00000 -0.30411
      11     H     0.42671  0.42671  0.00000  0.14659
      12     H     0.41359  0.41359  0.00000  0.17281
      13     C     3.23922  3.23922  0.00000 -0.47843
      14     H     0.42439  0.42439  0.00000  0.15121
      15     H     0.42123  0.42123  0.00000  0.15753
      16     H     0.42266  0.42266  0.00000  0.15467
      17     H     0.41978  0.41978  0.00000  0.16044
      18     H     0.42102  0.42102  0.00000  0.15797

   Total alpha = 25.00000, Total beta = 25.00000, Total charge =  0.00000
