  ==> Input File <==

--------------------------------------------------------------------------
set {
	reference rhf
	basis 6-31G*
}

set_num_threads( 1 )
memory 2 gb

molecule MOL {
0 1

O	 -0.988096	 -1.408613	 0.050699
C	 -0.676749	 -0.249230	 -0.009274
C	 -1.746085	 0.827156	 -0.009539
N	 0.623947	 0.147590	 -0.102813
H	 -1.701500	 1.431508	 -0.908902
H	 -2.703425	 0.330732	 0.036390
H	 -1.647323	 1.487769	 0.845106
C	 1.645717	 -0.667916	 0.523934
C	 1.038827	 1.482419	 -0.474769
H	 2.528560	 -0.687613	 -0.105524
H	 1.275832	 -1.670284	 0.651941
H	 1.927237	 -0.270093	 1.496510
H	 1.988600	 1.426665	 -0.993289
H	 0.330094	 1.947139	 -1.141602
H	 1.168516	 2.124608	 0.394476

	symmetry c1
}
set optking {
	frozen_dihedral = ("
		2 4 8 10
	")
}

ee = energy('scf')
oeprop('DIPOLE', 'QUADRUPOLE', 'MULLIKEN_CHARGES')
f=open( 'psi4out.xyz', 'w' )
f.write( "15  " )
f.write( str(ee) + "\n" )
f.write( MOL.save_string_xyz() )
f.close()
--------------------------------------------------------------------------

    Molecular point group: c1

    Geometry (in Angstrom), charge = 0, multiplicity = 1:

       Center              X                  Y                   Z               Mass
    ------------   -----------------  -----------------  -----------------  -----------------
           O         -0.979649246112    -1.436333047785     0.050553013168    15.994914619560
           C         -0.668302246112    -0.276950047785    -0.009419986832    12.000000000000
           C         -1.737638246112     0.799435952215    -0.009684986832    12.000000000000
           N          0.632393753888     0.119869952215    -0.102958986832    14.003074004780
           H         -1.693053246112     1.403787952215    -0.909047986832     1.007825032070
           H         -2.694978246112     0.303011952215     0.036244013168     1.007825032070
           H         -1.638876246112     1.460048952215     0.844960013168     1.007825032070
           C          1.654163753888    -0.695636047785     0.523788013168    12.000000000000
           C          1.047273753888     1.454698952215    -0.474914986832    12.000000000000
           H          2.537006753888    -0.715333047785    -0.105669986832     1.007825032070
           H          1.284278753888    -1.698004047785     0.651795013168     1.007825032070
           H          1.935683753888    -0.297813047785     1.496364013168     1.007825032070
           H          1.997046753888     1.398944952215    -0.993434986832     1.007825032070
           H          0.338540753888     1.919418952215    -1.141747986832     1.007825032070
           H          1.176962753888     2.096887952215     0.394330013168     1.007825032070

  Charge       = 0
  Multiplicity = 1
  Basis Set: 6-31G*
  Basis Set:

    Orbital Energies (a.u.)
    -----------------------

    Doubly Occupied:

       1A    -20.516886     2A    -15.580035     3A    -11.342393
       4A    -11.265762     5A    -11.250634     6A    -11.227827
       7A     -1.384689     8A     -1.243566     9A     -1.013083
      10A     -0.973443    11A     -0.919777    12A     -0.738530
      13A     -0.680047    14A     -0.658996    15A     -0.651320
      16A     -0.590578    17A     -0.574295    18A     -0.570283
      19A     -0.561691    20A     -0.551269    21A     -0.531589
      22A     -0.499459    23A     -0.411242    24A     -0.363663

  @DF-RHF Final Energy:  -286.02379034957232

   => Energetics <=

    Nuclear Repulsion Energy =            252.2039064600047595
    One-Electron Energy =                -888.2530977562843191
    Two-Electron Energy =                 350.0254009467066680
    DFT Exchange-Correlation Energy =       0.0000000000000000
    Empirical Dispersion Energy =           0.0000000000000000
    PCM Polarization Energy =               0.0000000000000000
    EFP Energy =                            0.0000000000000000
    Total Energy =                       -286.0237903495728915

  Mulliken Charges: (a.u.)
   Center  Symbol    Alpha    Beta     Spin     Total
       1     O     4.29847  4.29847  0.00000 -0.59694
       2     C     2.62858  2.62858  0.00000  0.74283
       3     C     3.29535  3.29535  0.00000 -0.59070
       4     N     3.82163  3.82163  0.00000 -0.64327
       5     H     0.40863  0.40863  0.00000  0.18275
       6     H     0.39165  0.39165  0.00000  0.21671
       7     H     0.40694  0.40694  0.00000  0.18612
       8     C     3.14675  3.14675  0.00000 -0.29350
       9     C     3.14003  3.14003  0.00000 -0.28006
      10     H     0.41759  0.41759  0.00000  0.16482
      11     H     0.38521  0.38521  0.00000  0.22958
      12     H     0.42133  0.42133  0.00000  0.15734
      13     H     0.40875  0.40875  0.00000  0.18250
      14     H     0.40958  0.40958  0.00000  0.18084
      15     H     0.41951  0.41951  0.00000  0.16098

   Total alpha = 24.00000, Total beta = 24.00000, Total charge =  0.00000
