                              Psi4 1.0.54 Driver

  ==> Input File <==

--------------------------------------------------------------------------
set {
	reference rhf
	basis cc-pvtz
}

set_num_threads( 4 )
memory 2 gb

molecule MOL {
0 1

H	 -3.248967	 -0.381694	 -1.555864
O	 -3.458596	 0.315260	 -0.960865
C	 -3.176635	 -0.080824	 0.355601
C	 -1.763371	 0.265266	 0.799691
H	 -3.321825	 -1.153438	 0.379502
H	 -3.895468	 0.357385	 1.043382
C	 -0.673390	 -0.426948	 -0.013392
H	 -1.631049	 1.344913	 0.747560
H	 -1.664587	 -0.001624	 1.849167
C	 0.737842	 -0.043159	 0.423759
H	 -0.806103	 -0.190518	 -1.063345
H	 -0.797221	 -1.503753	 0.074146
C	 1.824000	 -0.743224	 -0.390623
H	 0.850588	 1.033777	 0.343840
H	 0.868587	 -0.286314	 1.476203
C	 3.255957	 -0.453067	 0.062319
H	 1.718250	 -0.470599	 -1.438164
H	 1.658105	 -1.815850	 -0.339904
C	 3.707029	 0.992337	 -0.133857
H	 3.928201	 -1.104096	 -0.488158
H	 3.362667	 -0.724561	 1.109374
H	 3.605811	 1.294044	 -1.171549
H	 4.748333	 1.111029	 0.143343
H	 3.129882	 1.683078	 0.468956

	symmetry c1
}
set optking {
	frozen_dihedral = ("
		1 2 3 5
	")
}

ee,wfn = optimize('scf', return_wfn=True)
oeprop( wfn, 'DIPOLE', 'QUADRUPOLE', 'MULLIKEN_CHARGES')
f=open( 'psi4out.xyz', 'w' )
f.write( "24  " )
f.write( str(ee) + "\n" )
f.write( MOL.save_string_xyz() )
f.close()
--------------------------------------------------------------------------

    Molecular point group: c1
  Charge       = 0
  Multiplicity = 1
  Basis Set: CC-PVTZ
  Basis Set:
  @DF-RHF Final Energy:  -349.37827593973213
    Total Energy =                       -349.3782759397317932
    Molecular point group: c1
  Basis Set: CC-PVTZ
  Basis Set:
  Basis Set: CC-PVTZ
  Basis Set:
  @DF-RHF Final Energy:  -349.37917225076006
    Total Energy =                       -349.3791722507601207
  Basis Set: CC-PVTZ
  Basis Set:
  Basis Set: CC-PVTZ
  Basis Set:
  @DF-RHF Final Energy:  -349.37972442002695
    Total Energy =                       -349.3797244200271734
  Basis Set: CC-PVTZ
  Basis Set:
  Basis Set: CC-PVTZ
  Basis Set:
  @DF-RHF Final Energy:  -349.37972823084164
    Total Energy =                       -349.3797282308413514
  Basis Set: CC-PVTZ
  Basis Set:
  Charge       = 0
  Multiplicity = 1
  Basis Set: CC-PVTZ
  Basis Set:

    Orbital Energies (a.u.)
    -----------------------

    Doubly Occupied:

       1A    -20.545388     2A    -11.265681     3A    -11.213430
       4A    -11.213271     5A    -11.211772     6A    -11.211206
       7A    -11.211133     8A    -11.205712     9A     -1.362913
      10A     -1.091323    11A     -1.049994    12A     -0.987727
      13A     -0.917983    14A     -0.850944    15A     -0.794381
      16A     -0.778290    17A     -0.703156    18A     -0.648699
      19A     -0.629448    20A     -0.608953    21A     -0.601175
      22A     -0.583976    23A     -0.561623    24A     -0.539482
      25A     -0.519366    26A     -0.510845    27A     -0.496694
      28A     -0.476372    29A     -0.473283    30A     -0.460121
      31A     -0.457638    32A     -0.450241    33A     -0.421739

  @DF-RHF Final Energy:  -349.37972861039350

   => Energetics <=

    Nuclear Repulsion Energy =            384.8639237079665918
    One-Electron Energy =               -1236.3793808328659907
    Two-Electron Energy =                 502.1357285145054448
    DFT Exchange-Correlation Energy =       0.0000000000000000
    Empirical Dispersion Energy =           0.0000000000000000
    PCM Polarization Energy =               0.0000000000000000
    EFP Energy =                            0.0000000000000000
    Total Energy =                       -349.3797286103939541
    Molecular point group: c1
  Basis Set: CC-PVTZ
  Basis Set:

  -Total Gradient:
     Atom            X                  Y                   Z
    ------   -----------------  -----------------  -----------------
       1       -0.000870457774    -0.000327377937     0.000144678763
       2        0.001258384259     0.000343027942    -0.000288188915
       3       -0.001134217104     0.000115220583     0.000430050878
       4       -0.000025009391    -0.000003269896     0.000019935425
       5        0.000742651928    -0.000131295602    -0.000308735164
       6        0.000004410467    -0.000001941929     0.000005447767
       7       -0.000033085642     0.000041586581    -0.000029186131
       8        0.000000943227     0.000001094789     0.000000742901
       9        0.000012649882     0.000008204786     0.000018759722
      10       -0.000008794724    -0.000005827294     0.000012469040
      11       -0.000010958595    -0.000012800741    -0.000003121657
      12        0.000015199256    -0.000007171694    -0.000011523797
      13        0.000006229112    -0.000012240401     0.000005234195
      14        0.000005758707     0.000034769699     0.000007283392
      15        0.000016472590     0.000009752424     0.000000762168
      16        0.000028373028    -0.000029795169    -0.000031125641
      17       -0.000006160225    -0.000015198417    -0.000002205075
      18        0.000003300809    -0.000011750579     0.000000167723
      19       -0.000025239459    -0.000015494173     0.000019336249
      20        0.000016386263     0.000007495394    -0.000007485304
      21        0.000021934831    -0.000001511590     0.000002142946
      22        0.000005977425    -0.000009782261    -0.000007121143
      23        0.000005166821     0.000000785286     0.000010177281
      24       -0.000029915694     0.000023520200     0.000011504377

  **** Optimization is complete! (in 5 steps) ****
    Final optimized geometry and variables:
    Molecular point group: c1

    Geometry (in Angstrom), charge = 0, multiplicity = 1:

    H           -3.390593964799    -0.353651173862    -1.356258680695
    O           -3.535034165895     0.325111976866    -0.725034377709
    C           -3.147597485965    -0.104211697226     0.556019295671
    C           -1.713388873724     0.274901073458     0.890807231682
    H           -3.277513501535    -1.179569486502     0.651416042703
    H           -3.822166764966     0.366681380373     1.259381434537
    C           -0.669357697349    -0.411378755229     0.014837542280
    H           -1.614091593085     1.352560010341     0.802619717929
    H           -1.533593685863     0.025853466998     1.934235223043
    C            0.764252963283    -0.029883254453     0.375273784460
    H           -0.851610907134    -0.158894082159    -1.025482342875
    H           -0.783821010087    -1.490705186106     0.097756133998
    C            1.804891843821    -0.716619552657    -0.507132598957
    H            0.868031188405     1.047985768804     0.302602875741
    H            0.953146437458    -0.285964234563     1.415496565599
    C            3.259117517586    -0.427655404371    -0.130442594932
    H            1.641072113483    -0.430624182903    -1.543720341776
    H            1.645102913492    -1.790606926143    -0.461105238549
    C            3.692666377371     1.023076525776    -0.326520781533
    H            3.901818937943    -1.066107727217    -0.728894993142
    H            3.425370300963    -0.716514217516     0.904109530684
    H            3.532532936273     1.341930994375    -1.351566082737
    H            4.747331778308     1.141958575832    -0.105762315812
    H            3.147334628922     1.700654970085     0.319215472778

  Mulliken Charges: (a.u.)
   Center  Symbol    Alpha    Beta     Spin     Total
       1     H     0.39095  0.39095  0.00000  0.21809
       2     O     4.20797  4.20797  0.00000 -0.41594
       3     C     2.98444  2.98444  0.00000  0.03111
       4     C     3.08127  3.08127  0.00000 -0.16254
       5     H     0.46877  0.46877  0.00000  0.06246
       6     H     0.44951  0.44951  0.00000  0.10099
       7     C     3.10061  3.10061  0.00000 -0.20123
       8     H     0.45239  0.45239  0.00000  0.09523
       9     H     0.45616  0.45616  0.00000  0.08767
      10     C     3.09163  3.09163  0.00000 -0.18327
      11     H     0.45301  0.45301  0.00000  0.09398
      12     H     0.45649  0.45649  0.00000  0.08702
      13     C     3.09461  3.09461  0.00000 -0.18923
      14     H     0.45082  0.45082  0.00000  0.09836
      15     H     0.45525  0.45525  0.00000  0.08950
      16     C     3.09029  3.09029  0.00000 -0.18058
      17     H     0.45421  0.45421  0.00000  0.09157
      18     H     0.45062  0.45062  0.00000  0.09876
      19     C     3.15236  3.15236  0.00000 -0.30472
      20     H     0.44874  0.44874  0.00000  0.10251
      21     H     0.45500  0.45500  0.00000  0.09001
      22     H     0.45475  0.45475  0.00000  0.09050
      23     H     0.44661  0.44661  0.00000  0.10677
      24     H     0.45352  0.45352  0.00000  0.09297

   Total alpha = 33.00000, Total beta = 33.00000, Total charge = -0.00000

*** Psi4 exiting successfully. Buy a developer a beer!
