                              Psi4 1.0.54 Driver

  ==> Input File <==

--------------------------------------------------------------------------
set {
	reference rhf
	basis cc-pvtz
}

set_num_threads( 4 )
memory 2 gb

molecule MOL {
0 1

H	 3.889604	 0.356866	 -0.089510
N	 3.091268	 -0.241216	 -0.065538
C	 1.860978	 0.530248	 0.016256
H	 3.192566	 -0.835836	 0.730398
C	 0.644130	 -0.381765	 -0.031064
H	 1.835721	 1.204666	 -0.833114
H	 1.808789	 1.151975	 0.911067
C	 -0.678115	 0.376691	 0.025731
H	 0.693998	 -0.977147	 -0.936845
H	 0.693309	 -1.082142	 0.800523
C	 -1.837914	 -0.468558	 0.544983
H	 -0.923480	 0.746318	 -0.967307
H	 -0.566622	 1.255046	 0.657344
C	 -3.159208	 0.291336	 0.594182
H	 -1.950672	 -1.346878	 -0.084407
H	 -1.596863	 -0.836033	 1.538778
H	 -3.445784	 0.642330	 -0.391676
H	 -3.960309	 -0.336760	 0.966657
H	 -3.088967	 1.157438	 1.244005

	symmetry c1
}
set optking {
	frozen_dihedral = ("
		12 8 5 9
	")
}

ee,wfn = optimize('scf', return_wfn=True)
oeprop( wfn, 'DIPOLE', 'QUADRUPOLE', 'MULLIKEN_CHARGES')
f=open( 'psi4out.xyz', 'w' )
f.write( "19  " )
f.write( str(ee) + "\n" )
f.write( MOL.save_string_xyz() )
f.close()
--------------------------------------------------------------------------

    Molecular point group: c1
  Charge       = 0
  Multiplicity = 1
  Basis Set: CC-PVTZ
  Basis Set:
  @DF-RHF Final Energy:  -251.44641922980000
    Total Energy =                       -251.4464192297998579
    Molecular point group: c1
  Basis Set: CC-PVTZ
  Basis Set:
  Basis Set: CC-PVTZ
  Basis Set:
  @DF-RHF Final Energy:  -251.44657702100872
    Total Energy =                       -251.4465770210088067
  Basis Set: CC-PVTZ
  Basis Set:
  Basis Set: CC-PVTZ
  Basis Set:
  @DF-RHF Final Energy:  -251.44665206337106
    Total Energy =                       -251.4466520633712889
  Basis Set: CC-PVTZ
  Basis Set:
  Basis Set: CC-PVTZ
  Basis Set:
  @DF-RHF Final Energy:  -251.44665439012203
    Total Energy =                       -251.4466543901221485
  Basis Set: CC-PVTZ
  Basis Set:
  Charge       = 0
  Multiplicity = 1
  Basis Set: CC-PVTZ
  Basis Set:

    Orbital Energies (a.u.)
    -----------------------

    Doubly Occupied:

       1A    -15.526336     2A    -11.237867     3A    -11.211994
       4A    -11.210464     5A    -11.207636     6A    -11.205426
       7A     -1.178084     8A     -1.073822     9A     -0.999292
      10A     -0.900866    11A     -0.813361    12A     -0.789445
      13A     -0.665408    14A     -0.643925    15A     -0.615946
      16A     -0.593201    17A     -0.562861    18A     -0.548228
      19A     -0.535382    20A     -0.493975    21A     -0.484755
      22A     -0.464869    23A     -0.460848    24A     -0.449236
      25A     -0.383839

  @DF-RHF Final Energy:  -251.44665496488290

   => Energetics <=

    Nuclear Repulsion Energy =            246.0902048290606672
    One-Electron Energy =                -826.5595923598179979
    Two-Electron Energy =                 329.0227325658744348
    DFT Exchange-Correlation Energy =       0.0000000000000000
    Empirical Dispersion Energy =           0.0000000000000000
    PCM Polarization Energy =               0.0000000000000000
    EFP Energy =                            0.0000000000000000
    Total Energy =                       -251.4466549648828959
    Molecular point group: c1
  Basis Set: CC-PVTZ
  Basis Set:

  -Total Gradient:
     Atom            X                  Y                   Z
    ------   -----------------  -----------------  -----------------
       1        0.000037160968     0.000002736197    -0.000003118335
       2        0.000060238235    -0.000042953453    -0.000004166454
       3       -0.000046927239     0.000017171907     0.000019929549
       4        0.000015527890    -0.000005462753     0.000000845072
       5       -0.002221083310    -0.003909410180     0.001896797326
       6       -0.000019522123    -0.000008386448     0.000013994009
       7       -0.000011830469     0.000002045928    -0.000014574983
       8        0.002444122271     0.004165969955     0.000420436250
       9        0.001463367936     0.002638970778    -0.001640558916
      10        0.000005718429     0.000019948516    -0.000010174734
      11       -0.000009403195    -0.000003800899    -0.000017905742
      12       -0.001709565962    -0.002881405707    -0.000659975281
      13        0.000002356009    -0.000015762894    -0.000006927331
      14       -0.000022640819     0.000017859986     0.000010047084
      15        0.000006986572     0.000009374412     0.000008888193
      16        0.000008706020    -0.000000048610    -0.000021924884
      17        0.000004064320    -0.000004281795     0.000018553141
      18       -0.000000900891     0.000005911536     0.000003061171
      19       -0.000006374640    -0.000008476477    -0.000013225136

  **** Optimization is complete! (in 5 steps) ****
    Final optimized geometry and variables:
    Molecular point group: c1

    Geometry (in Angstrom), charge = 0, multiplicity = 1:

    H            3.869353505984     0.338576557856    -0.359829290452
    N            3.072603769311    -0.260768833712    -0.318468229092
    C            1.847140556636     0.505677947368    -0.158466277153
    H            3.209440735027    -0.879252587239     0.453724704899
    C            0.627934742648    -0.407157448369    -0.167778479177
    H            1.779124888935     1.200573735155    -0.989219513390
    H            1.837426916956     1.105682674932     0.752390131249
    C           -0.691717271546     0.364377588624    -0.113303778894
    H            0.673854235439    -1.000802600578    -1.073993221348
    H            0.693029337760    -1.093522175061     0.672997564018
    C           -1.866088079301    -0.486826047264     0.366316619444
    H           -0.927895042333     0.735424294642    -1.106933475167
    H           -0.592714131518     1.230580981002     0.535568098652
    C           -3.194371648431     0.261983897746     0.356154016077
    H           -1.945922997051    -1.371387626925    -0.259945088321
    H           -1.661732452146    -0.844292130760     1.371802834139
    H           -3.447738861261     0.596565180142    -0.644331457080
    H           -4.003583013382    -0.367361762672     0.708579696498
    H           -3.154587608143     1.137937702024     0.995393161583

  Mulliken Charges: (a.u.)
   Center  Symbol    Alpha    Beta     Spin     Total
       1     H     0.43018  0.43018  0.00000  0.13963
       2     N     3.68965  3.68965  0.00000 -0.37929
       3     C     3.02503  3.02503  0.00000 -0.05006
       4     H     0.43110  0.43110  0.00000  0.13779
       5     C     3.08319  3.08319  0.00000 -0.16638
       6     H     0.45715  0.45715  0.00000  0.08570
       7     H     0.46888  0.46888  0.00000  0.06224
       8     C     3.09383  3.09383  0.00000 -0.18766
       9     H     0.44817  0.44817  0.00000  0.10366
      10     H     0.46018  0.46018  0.00000  0.07965
      11     C     3.08370  3.08370  0.00000 -0.16741
      12     H     0.45337  0.45337  0.00000  0.09326
      13     H     0.45707  0.45707  0.00000  0.08586
      14     C     3.14988  3.14988  0.00000 -0.29976
      15     H     0.45369  0.45369  0.00000  0.09262
      16     H     0.45557  0.45557  0.00000  0.08885
      17     H     0.45507  0.45507  0.00000  0.08985
      18     H     0.44864  0.44864  0.00000  0.10272
      19     H     0.45563  0.45563  0.00000  0.08873

   Total alpha = 25.00000, Total beta = 25.00000, Total charge = -0.00000

*** Psi4 exiting successfully. Buy a developer a beer!
