  ==> Input File <==

--------------------------------------------------------------------------
set {
	reference rhf
	basis 6-31G*
}

set_num_threads( 4 )
memory 2 gb

molecule MOL {
0 1

H	 -2.482706	 -0.933654	 0.471341
O	 -2.315789	 -0.143634	 -0.024262
C	 -0.945151	 -0.064130	 -0.333158
H	 -0.813375	 -0.223047	 -1.403232
C	 -0.232801	 -1.184051	 0.407206
C	 -0.355424	 1.302939	 0.054523
H	 -0.318824	 -0.992899	 1.473524
H	 -0.742411	 -2.122033	 0.217954
C	 1.248522	 -1.270719	 -0.013048
H	 -0.546144	 2.018388	 -0.742941
H	 -0.890929	 1.656788	 0.930149
C	 1.156425	 1.235120	 0.355905
H	 1.825384	 -1.683246	 0.809111
H	 1.357782	 -1.965923	 -0.840362
C	 1.828244	 0.099899	 -0.419275
H	 1.626109	 2.185622	 0.123525
H	 1.309438	 1.071213	 1.419539
H	 2.901447	 0.112642	 -0.255830
H	 1.681817	 0.263413	 -1.484607

	symmetry c1
}
set optking {
	frozen_dihedral = ("
		1 2 3 4
	")
}

ee = optimize('scf')
oeprop('DIPOLE', 'QUADRUPOLE', 'MULLIKEN_CHARGES')
f=open( 'psi4out.xyz', 'w' )
f.write( "19  " )
f.write( str(ee) + "\n" )
f.write( MOL.save_string_xyz() )
f.close()
--------------------------------------------------------------------------

    Molecular point group: c1
  Charge       = 0
  Multiplicity = 1
  Basis Set: 6-31G*
  Basis Set:
  @DF-RHF Final Energy:  -309.04433469305621
    Total Energy =                       -309.0443346930564417
    Molecular point group: c1
  Basis Set: 6-31G*
  Basis Set:
  Basis Set: 6-31G*
  Basis Set:
  @DF-RHF Final Energy:  -309.04579364510005
    Total Energy =                       -309.0457936451001046
  Basis Set: 6-31G*
  Basis Set:
  Basis Set: 6-31G*
  Basis Set:
  @DF-RHF Final Energy:  -309.04612499905096
    Total Energy =                       -309.0461249990508463
  Basis Set: 6-31G*
  Basis Set:
  Basis Set: 6-31G*
  Basis Set:
  @DF-RHF Final Energy:  -309.04613237858899
    Total Energy =                       -309.0461323785892773
  Basis Set: 6-31G*
  Basis Set:
  Charge       = 0
  Multiplicity = 1
  Basis Set: 6-31G*
  Basis Set:

    Orbital Energies (a.u.)
    -----------------------

    Doubly Occupied:

       1A    -20.547080     2A    -11.268649     3A    -11.221965
       4A    -11.221298     5A    -11.217549     6A    -11.215605
       7A    -11.207626     8A     -1.356466     9A     -1.110577
      10A     -1.004815    11A     -0.988983    12A     -0.852159
      13A     -0.833082    14A     -0.742922    15A     -0.683963
      16A     -0.664037    17A     -0.621081    18A     -0.605109
      19A     -0.575899    20A     -0.548506    21A     -0.530937
      22A     -0.522218    23A     -0.500040    24A     -0.489652
      25A     -0.465602    26A     -0.449012    27A     -0.426694
      28A     -0.412126

  @DF-RHF Final Energy:  -309.04613308570561

   => Energetics <=

    Nuclear Repulsion Energy =            331.3168476968398863
    One-Electron Energy =               -1076.1586564781503057
    Two-Electron Energy =                 435.7956756956050413
    DFT Exchange-Correlation Energy =       0.0000000000000000
    Empirical Dispersion Energy =           0.0000000000000000
    PCM Polarization Energy =               0.0000000000000000
    EFP Energy =                            0.0000000000000000
    Total Energy =                       -309.0461330857053781
    Molecular point group: c1
  Basis Set: 6-31G*
  Basis Set:

  -Total Gradient:
     Atom            X                  Y                   Z
    ------   -----------------  -----------------  -----------------
       1        0.000200328216     0.000546044702     0.001007411075
       2       -0.000250074410    -0.000460305782    -0.001266417777
       3        0.000076535395    -0.001109278917     0.000425769450
       4       -0.000012449025     0.000991606797    -0.000140100240
       5       -0.000018609828     0.000024489475    -0.000037444845
       6        0.000039386829     0.000014902846     0.000014915262
       7        0.000010441289    -0.000010305088    -0.000009049959
       8        0.000012325327    -0.000000459943     0.000003680603
       9       -0.000011179380    -0.000011579439     0.000046141795
      10        0.000020583249     0.000007379473    -0.000019063376
      11       -0.000003345265    -0.000001182733    -0.000007777747
      12       -0.000022890990     0.000016907093    -0.000013114132
      13        0.000019276330    -0.000017975886     0.000004164320
      14       -0.000013892641     0.000000820009     0.000000641640
      15       -0.000021211562     0.000015687412    -0.000021647327
      16       -0.000020434400     0.000013015123     0.000014274688
      17        0.000002788451    -0.000003047061     0.000003818326
      18       -0.000010435119    -0.000026747551    -0.000000863544
      19        0.000002857537     0.000010029467    -0.000005338213

  **** Optimization is complete! (in 5 steps) ****
    Final optimized geometry and variables:
    Molecular point group: c1

    Geometry (in Angstrom), charge = 0, multiplicity = 1:

    H           -2.582706921477    -0.843474135293     0.406886609989
    O           -2.334009921163    -0.063674713149    -0.067023785633
    C           -0.947859198336    -0.071615312043    -0.325900872316
    H           -0.816770576972    -0.222519175859    -1.394819038608
    C           -0.216611566439    -1.187811610515     0.410862320776
    C           -0.366397470061     1.297069755266     0.059865669978
    H           -0.292436733740    -1.001240130932     1.480384282455
    H           -0.705860393910    -2.141197185004     0.223419097073
    C            1.263104439749    -1.263304437124    -0.018350764692
    H           -0.577588964065     2.006227701721    -0.734690679397
    H           -0.900526822211     1.645736352171     0.937039227681
    C            1.148729173476     1.241294302825     0.345719782366
    H            1.848510197587    -1.666772348475     0.802100053511
    H            1.370788696415    -1.961152325645    -0.843155454820
    C            1.824196492418     0.111738538425    -0.434277842732
    H            1.608434529505     2.195009954281     0.106904776384
    H            1.317348780096     1.080820847468     1.408088447991
    H            2.898810296847     0.132492495749    -0.281839195006
    H            1.664530152695     0.270044358892    -1.498088634545

  Mulliken Charges: (a.u.)
   Center  Symbol    Alpha    Beta     Spin     Total
       1     H     0.27978  0.27978  0.00000  0.44043
       2     O     4.38673  4.38673  0.00000 -0.77346
       3     C     2.89312  2.89312  0.00000  0.21377
       4     H     0.42562  0.42562  0.00000  0.14876
       5     C     3.19300  3.19300  0.00000 -0.38599
       6     C     3.16233  3.16233  0.00000 -0.32466
       7     H     0.41760  0.41760  0.00000  0.16480
       8     H     0.41902  0.41902  0.00000  0.16196
       9     C     3.15759  3.15759  0.00000 -0.31518
      10     H     0.41582  0.41582  0.00000  0.16836
      11     H     0.41212  0.41212  0.00000  0.17575
      12     C     3.16585  3.16585  0.00000 -0.33171
      13     H     0.41719  0.41719  0.00000  0.16562
      14     H     0.41703  0.41703  0.00000  0.16594
      15     C     3.16429  3.16429  0.00000 -0.32859
      16     H     0.41589  0.41589  0.00000  0.16822
      17     H     0.42101  0.42101  0.00000  0.15798
      18     H     0.41627  0.41627  0.00000  0.16746
      19     H     0.41973  0.41973  0.00000  0.16054

   Total alpha = 28.00000, Total beta = 28.00000, Total charge =  0.00000
