  ==> Input File <==

--------------------------------------------------------------------------
set {
	reference rhf
	basis cc-pvtz
}

set_num_threads( 4 )
memory 2 gb

molecule MOL {
0 1

H	 -1.981769	 0.205979	 -0.372950
N	 -1.173824	 -0.310545	 -0.096857
C	 -0.022588	 0.563366	 0.065815
H	 -1.396362	 -0.769696	 0.761787
C	 1.270420	 -0.230572	 -0.014245
H	 -0.045354	 1.293678	 -0.735129
H	 -0.043155	 1.123061	 1.001180
H	 1.336273	 -0.754933	 -0.959364
H	 2.130728	 0.422015	 0.082222
H	 1.323344	 -0.967006	 0.781773

	symmetry c1
}
set optking {
	frozen_dihedral = ("
		1 2 3 6
	")
}

ee = optimize('scf')
oeprop('DIPOLE', 'QUADRUPOLE', 'MULLIKEN_CHARGES')
f=open( 'psi4out.xyz', 'w' )
f.write( "10  " )
f.write( str(ee) + "\n" )
f.write( MOL.save_string_xyz() )
f.close()
--------------------------------------------------------------------------

    Molecular point group: c1
  Charge       = 0
  Multiplicity = 1
  Basis Set: CC-PVTZ
  Basis Set:
  @DF-RHF Final Energy:  -134.30405840499915
    Total Energy =                       -134.3040584049991253
    Molecular point group: c1
  Basis Set: CC-PVTZ
  Basis Set:
  Basis Set: CC-PVTZ
  Basis Set:
  @DF-RHF Final Energy:  -134.30415048284371
    Total Energy =                       -134.3041504828436814
  Basis Set: CC-PVTZ
  Basis Set:
  Basis Set: CC-PVTZ
  Basis Set:
  @DF-RHF Final Energy:  -134.30416723618873
    Total Energy =                       -134.3041672361887322
  Basis Set: CC-PVTZ
  Basis Set:
  Charge       = 0
  Multiplicity = 1
  Basis Set: CC-PVTZ
  Basis Set:

    Orbital Energies (a.u.)
    -----------------------

    Doubly Occupied:

       1A    -15.526049     2A    -11.241111     3A    -11.202484
       4A     -1.176677     5A     -0.987815     6A     -0.822996
       7A     -0.668946     8A     -0.628720     9A     -0.578370
      10A     -0.517432    11A     -0.513004    12A     -0.483707
      13A     -0.382798

  @DF-RHF Final Energy:  -134.30416783391993

   => Energetics <=

    Nuclear Repulsion Energy =             83.3587228755868921
    One-Electron Energy =                -345.8655611703513273
    Two-Electron Energy =                 128.2026704608446153
    DFT Exchange-Correlation Energy =       0.0000000000000000
    Empirical Dispersion Energy =           0.0000000000000000
    PCM Polarization Energy =               0.0000000000000000
    EFP Energy =                            0.0000000000000000
    Total Energy =                       -134.3041678339197915
    Molecular point group: c1
  Basis Set: CC-PVTZ
  Basis Set:

  -Total Gradient:
     Atom            X                  Y                   Z
    ------   -----------------  -----------------  -----------------
       1        0.000504534842    -0.000276385680    -0.002028960300
       2       -0.000916502871     0.000527029346     0.002800565751
       3        0.001485044432    -0.001429929023    -0.001879126031
       4        0.000010686055     0.000005644443    -0.000008364473
       5       -0.000041310273    -0.000002209977     0.000038264895
       6       -0.001011959403     0.001168442952     0.001093517148
       7        0.000012294417    -0.000023255285    -0.000009877994
       8       -0.000019993458     0.000017410397     0.000002496288
       9       -0.000015679441     0.000009598988    -0.000001989516
      10       -0.000007114299     0.000003653839    -0.000006525767

  **** Optimization is complete! (in 4 steps) ****
    Final optimized geometry and variables:
    Molecular point group: c1

    Geometry (in Angstrom), charge = 0, multiplicity = 1:

    H           -1.987339588716     0.205912134218    -0.352097550095
    N           -1.176171185367    -0.308802239695    -0.087281914698
    C           -0.016707749346     0.557299600588     0.061662287641
    H           -1.381756019620    -0.800612560575     0.755713550906
    C            1.275669979001    -0.238430420744    -0.008994001728
    H           -0.043890995213     1.288981418497    -0.737571063719
    H           -0.037013217732     1.126579946573     0.991130114022
    H            1.347582076800    -0.761998747269    -0.953935573995
    H            2.137230594916     0.411960230957     0.097140762893
    H            1.317073986822    -0.976936637340     0.785232997458

  Mulliken Charges: (a.u.)
   Center  Symbol    Alpha    Beta     Spin     Total
       1     H     0.42698  0.42698  0.00000  0.14605
       2     N     3.69354  3.69354  0.00000 -0.38708
       3     C     3.02359  3.02359  0.00000 -0.04717
       4     H     0.42912  0.42912  0.00000  0.14176
       5     C     3.13255  3.13255  0.00000 -0.26510
       6     H     0.45751  0.45751  0.00000  0.08498
       7     H     0.46790  0.46790  0.00000  0.06420
       8     H     0.45134  0.45134  0.00000  0.09732
       9     H     0.45798  0.45798  0.00000  0.08405
      10     H     0.45950  0.45950  0.00000  0.08100

   Total alpha = 13.00000, Total beta = 13.00000, Total charge =  0.00000
