  ==> Input File <==

--------------------------------------------------------------------------
set {
	reference rhf
	basis 6-31G*
}

set_num_threads( 4 )
memory 2 gb

molecule MOL {
0 1

H	 -4.236494	 0.538104	 0.039757
O	 -3.517110	 -0.026191	 -0.205115
C	 -2.306886	 0.532354	 0.237577
C	 -1.177863	 -0.397191	 -0.171080
H	 -2.156308	 1.517575	 -0.201710
H	 -2.315015	 0.655684	 1.319734
C	 0.198102	 0.111031	 0.262842
H	 -1.208843	 -0.518759	 -1.250427
H	 -1.368741	 -1.376554	 0.258909
C	 1.331804	 -0.827780	 -0.158768
H	 0.361943	 1.100838	 -0.156218
H	 0.217265	 0.229072	 1.345532
C	 2.723619	 -0.410569	 0.329459
H	 1.342964	 -0.912588	 -1.244120
H	 1.116806	 -1.824343	 0.220779
C	 3.115745	 1.026425	 -0.019284
H	 3.456591	 -1.086471	 -0.104127
H	 2.783497	 -0.550150	 1.407001
H	 3.052921	 1.198912	 -1.090424
H	 2.476107	 1.752941	 0.470832
H	 4.136358	 1.232660	 0.288237

	symmetry c1
}
set optking {
	frozen_dihedral = ("
		16 13 10 14
	")
}

ee = optimize('scf')
oeprop('DIPOLE', 'QUADRUPOLE', 'MULLIKEN_CHARGES')
f=open( 'psi4out.xyz', 'w' )
f.write( "21  " )
f.write( str(ee) + "\n" )
f.write( MOL.save_string_xyz() )
f.close()
--------------------------------------------------------------------------

    Molecular point group: c1
  Charge       = 0
  Multiplicity = 1
  Basis Set: 6-31G*
  Basis Set:
  @DF-RHF Final Energy:  -310.21213209368085
    Total Energy =                       -310.2121320936807365
    Molecular point group: c1
  Basis Set: 6-31G*
  Basis Set:
  Basis Set: 6-31G*
  Basis Set:
  @DF-RHF Final Energy:  -310.21204348610684
    Total Energy =                       -310.2120434861067793
  Basis Set: 6-31G*
  Basis Set:
  Basis Set: 6-31G*
  Basis Set:
  @DF-RHF Final Energy:  -310.21227791983961
    Total Energy =                       -310.2122779198391527
  Basis Set: 6-31G*
  Basis Set:
  Basis Set: 6-31G*
  Basis Set:
  @DF-RHF Final Energy:  -310.21228622446642
    Total Energy =                       -310.2122862244663111
  Basis Set: 6-31G*
  Basis Set:
  Basis Set: 6-31G*
  Basis Set:
  @DF-RHF Final Energy:  -310.21228754642613
    Total Energy =                       -310.2122875464260687
  Basis Set: 6-31G*
  Basis Set:
  Basis Set: 6-31G*
  Basis Set:
  @DF-RHF Final Energy:  -310.21228898945168
    Total Energy =                       -310.2122889894521904
  Basis Set: 6-31G*
  Basis Set:
  Charge       = 0
  Multiplicity = 1
  Basis Set: 6-31G*
  Basis Set:

    Orbital Energies (a.u.)
    -----------------------

    Doubly Occupied:

       1A    -20.551878     2A    -11.267093     3A    -11.215893
       4A    -11.215228     5A    -11.213575     6A    -11.210743
       7A    -11.208140     8A     -1.358703     9A     -1.086273
      10A     -1.032943    11A     -0.954092    12A     -0.877345
      13A     -0.808088    14A     -0.776588    15A     -0.692429
      16A     -0.661658    17A     -0.624494    18A     -0.604054
      19A     -0.586244    20A     -0.571428    21A     -0.535506
      22A     -0.521241    23A     -0.510375    24A     -0.486608
      25A     -0.480389    26A     -0.457437    27A     -0.456525
      28A     -0.444020    29A     -0.434010

  @DF-RHF Final Energy:  -310.21228899597793

   => Energetics <=

    Nuclear Repulsion Energy =            312.8788458478938992
    One-Electron Energy =               -1040.4962707366541963
    Two-Electron Energy =                 417.4051358927825959
    DFT Exchange-Correlation Energy =       0.0000000000000000
    Empirical Dispersion Energy =           0.0000000000000000
    PCM Polarization Energy =               0.0000000000000000
    EFP Energy =                            0.0000000000000000
    Total Energy =                       -310.2122889959777012
    Molecular point group: c1
  Basis Set: 6-31G*
  Basis Set:

  -Total Gradient:
     Atom            X                  Y                   Z
    ------   -----------------  -----------------  -----------------
       1        0.000001161874     0.000000162000     0.000001056753
       2        0.000002495285    -0.000002648938     0.000001034938
       3        0.000000179721     0.000002295709    -0.000000185866
       4       -0.000000603894     0.000003406203    -0.000003852095
       5        0.000000257899    -0.000001259636    -0.000000472458
       6       -0.000000240741     0.000000851375     0.000000978165
       7       -0.000011808396     0.000004257262     0.000014067020
       8       -0.000002949150     0.000001479369    -0.000002938286
       9        0.000003446346    -0.000001261400    -0.000002365491
      10       -0.001109197079     0.003360407884     0.000430591795
      11        0.000002052304     0.000000667525     0.000000610069
      12       -0.000007723785     0.000003607914     0.000001428872
      13        0.001258606904    -0.001481758379    -0.002301510790
      14        0.000634862404    -0.002515864907     0.000214880273
      15        0.000009188414     0.000000487667    -0.000004056978
      16       -0.000779363345     0.000626189057     0.001650489125
      17        0.000005114691    -0.000004930079     0.000005336844
      18       -0.000007911186     0.000004716155    -0.000003673385
      19       -0.000003289077    -0.000000285209     0.000000056058
      20        0.000005205658     0.000001737846     0.000000862448
      21        0.000000515160    -0.000002257420    -0.000002337010

  **** Optimization is complete! (in 7 steps) ****
    Final optimized geometry and variables:
    Molecular point group: c1

    Geometry (in Angstrom), charge = 0, multiplicity = 1:

    H           -4.230000712812     0.490073855935     0.020855163472
    O           -3.507441093441    -0.071481313460    -0.220965726688
    C           -2.298566825049     0.506909106344     0.199333182155
    C           -1.164453621951    -0.418718164243    -0.204061728809
    H           -2.162325725527     1.485485284949    -0.259047265359
    H           -2.297121450371     0.649610851644     1.279153480012
    C            0.210364831185     0.110055226116     0.208410079366
    H           -1.203867209354    -0.558691336563    -1.280925019930
    H           -1.341998546124    -1.392415276888     0.243948772534
    C            1.347673156495    -0.820848809682    -0.217210730611
    H            0.358182865110     1.096536568554    -0.223683757792
    H            0.240356615607     0.240641447139     1.289629206027
    C            2.740419019457    -0.427028612716     0.290501250189
    H            1.369207607181    -0.906081319480    -1.302408564291
    H            1.129581770583    -1.823076056419     0.146815954669
    C            3.170966437304     1.001732592722    -0.046724370456
    H            3.465626650641    -1.125259871657    -0.119296040383
    H            2.773076629271    -0.556290438450     1.370668471631
    H            3.109764089534     1.190968393320    -1.115456567164
    H            2.553488869281     1.738401601362     0.455733892800
    H            4.198109858814     1.174877770056     0.259379004780

  Mulliken Charges: (a.u.)
   Center  Symbol    Alpha    Beta     Spin     Total
       1     H     0.28117  0.28117  0.00000  0.43767
       2     O     4.37180  4.37180  0.00000 -0.74359
       3     C     2.98971  2.98971  0.00000  0.02058
       4     C     3.15906  3.15906  0.00000 -0.31812
       5     H     0.43290  0.43290  0.00000  0.13420
       6     H     0.43291  0.43291  0.00000  0.13419
       7     C     3.16253  3.16253  0.00000 -0.32506
       8     H     0.41473  0.41473  0.00000  0.17054
       9     H     0.41470  0.41470  0.00000  0.17060
      10     C     3.15191  3.15191  0.00000 -0.30382
      11     H     0.42083  0.42083  0.00000  0.15833
      12     H     0.42408  0.42408  0.00000  0.15185
      13     C     3.15168  3.15168  0.00000 -0.30337
      14     H     0.42279  0.42279  0.00000  0.15442
      15     H     0.42133  0.42133  0.00000  0.15734
      16     C     3.24203  3.24203  0.00000 -0.48407
      17     H     0.42052  0.42052  0.00000  0.15895
      18     H     0.42367  0.42367  0.00000  0.15267
      19     H     0.42233  0.42233  0.00000  0.15535
      20     H     0.42010  0.42010  0.00000  0.15980
      21     H     0.41923  0.41923  0.00000  0.16153

   Total alpha = 29.00000, Total beta = 29.00000, Total charge =  0.00000
