                              Psi4 1.0.54 Driver

  ==> Input File <==

--------------------------------------------------------------------------
set {
	reference rhf
	basis cc-pvtz
}

set_num_threads( 4 )
memory 2 gb

molecule MOL {
0 1

H	 -2.644180	 -0.653737	 1.272255
C	 -2.092774	 -0.380414	 0.391915
O	 -0.808934	 -0.154049	 0.752536
F	 -2.163230	 -1.351640	 -0.507133
F	 -2.627232	 0.691260	 -0.169301
C	 -0.532695	 0.100112	 2.078581
C	 0.449591	 1.268105	 2.125307
Cl	 0.173159	 -1.321131	 2.870651
H	 -1.409107	 0.377338	 2.637772
F	 0.743133	 1.570590	 3.364403
F	 -0.110134	 2.319088	 1.574438
F	 1.556010	 1.010222	 1.483759

	symmetry c1
}
set optking {
	frozen_dihedral = ("
		6 3 2 4
	")
}

ee,wfn = optimize('scf', return_wfn=True)
oeprop( wfn, 'DIPOLE', 'QUADRUPOLE', 'MULLIKEN_CHARGES')
f=open( 'psi4out.xyz', 'w' )
f.write( "12  " )
f.write( str(ee) + "\n" )
f.write( MOL.save_string_xyz() )
f.close()
--------------------------------------------------------------------------

    Molecular point group: c1
  Charge       = 0
  Multiplicity = 1
  Basis Set: CC-PVTZ
  Basis Set:
  @DF-RHF Final Energy: -1146.61419086802653
    Total Energy =                      -1146.6141908680265260
    Molecular point group: c1
  Basis Set: CC-PVTZ
  Basis Set:
  Basis Set: CC-PVTZ
  Basis Set:
  @DF-RHF Final Energy: -1146.61574084961421
    Total Energy =                      -1146.6157408496133030
  Basis Set: CC-PVTZ
  Basis Set:
  Basis Set: CC-PVTZ
  Basis Set:
  @DF-RHF Final Energy: -1146.61672958815279
    Total Energy =                      -1146.6167295881530208
  Basis Set: CC-PVTZ
  Basis Set:
  Basis Set: CC-PVTZ
  Basis Set:
  @DF-RHF Final Energy: -1146.61638306947407
    Total Energy =                      -1146.6163830694733861
  Basis Set: CC-PVTZ
  Basis Set:
  @DF-RHF Final Energy: -1146.61312806845172
    Total Energy =                      -1146.6131280684503508
  @DF-RHF Final Energy: -1146.61721705801210
    Total Energy =                      -1146.6172170580114198
  Basis Set: CC-PVTZ
  Basis Set:
  @DF-RHF Final Energy: -1146.61726737114714
    Total Energy =                      -1146.6172673711466814
  Basis Set: CC-PVTZ
  Basis Set:
  Basis Set: CC-PVTZ
  Basis Set:
  @DF-RHF Final Energy: -1146.61726591903926
    Total Energy =                      -1146.6172659190399372
  Basis Set: CC-PVTZ
  Basis Set:
  Basis Set: CC-PVTZ
  Basis Set:
  @DF-RHF Final Energy: -1146.61727222173226
    Total Energy =                      -1146.6172722217320370
  Basis Set: CC-PVTZ
  Basis Set:
  Charge       = 0
  Multiplicity = 1
  Basis Set: CC-PVTZ
  Basis Set:

    Orbital Energies (a.u.)
    -----------------------

    Doubly Occupied:

       1A   -104.866216     2A    -26.359665     3A    -26.357938
       4A    -26.357401     5A    -26.339642     6A    -26.338693
       7A    -20.642439     8A    -11.526190     9A    -11.484061
      10A    -11.410307    11A    -10.591757    12A     -8.058512
      13A     -8.056594    14A     -8.056506    15A     -1.772703
      16A     -1.721892    17A     -1.667568    18A     -1.665872
      19A     -1.643141    20A     -1.492065    21A     -1.181425
      22A     -1.061384    23A     -0.987794    24A     -0.934581
      25A     -0.867958    26A     -0.864049    27A     -0.856744
      28A     -0.823523    29A     -0.820556    30A     -0.796894
      31A     -0.738300    32A     -0.735004    33A     -0.705279
      34A     -0.697545    35A     -0.690785    36A     -0.683691
      37A     -0.671748    38A     -0.668288    39A     -0.661789
      40A     -0.647655    41A     -0.605197    42A     -0.569075
      43A     -0.525577    44A     -0.489012    45A     -0.479671

  @DF-RHF Final Energy: -1146.61727453254889

   => Energetics <=

    Nuclear Repulsion Energy =            726.7962032326092867
    One-Electron Energy =               -3036.4815946926814831
    Two-Electron Energy =                1163.0681169275230786
    DFT Exchange-Correlation Energy =       0.0000000000000000
    Empirical Dispersion Energy =           0.0000000000000000
    PCM Polarization Energy =               0.0000000000000000
    EFP Energy =                            0.0000000000000000
    Total Energy =                      -1146.6172745325493452
    Molecular point group: c1
  Basis Set: CC-PVTZ
  Basis Set:

  -Total Gradient:
     Atom            X                  Y                   Z
    ------   -----------------  -----------------  -----------------
       1        0.000004330837    -0.000000589878    -0.000013893016
       2       -0.000108425090     0.001062939030    -0.001075373090
       3       -0.000982974526     0.001617427744     0.000699139466
       4        0.000315325180    -0.001302849443     0.000762502964
       5       -0.000009835241    -0.000008501577    -0.000029362023
       6        0.000772225993    -0.001354942702    -0.000366863188
       7        0.000001949764    -0.000081174399    -0.000023898240
       8        0.000008473506    -0.000044946822     0.000013145568
       9       -0.000001564678    -0.000001756126     0.000002595708
      10        0.000007218396     0.000020225800     0.000030306256
      11        0.000008036410     0.000070613052    -0.000001051109
      12       -0.000014760542     0.000023555248     0.000002750726

  **** Optimization is complete! (in 9 steps) ****
    Final optimized geometry and variables:
    Molecular point group: c1

    Geometry (in Angstrom), charge = 0, multiplicity = 1:

    H           -1.934189790488    -1.267293506717    -0.704821948855
    C           -1.508985848439    -0.507783543105    -1.342005589635
    O           -0.367608961984     0.028856453530    -0.832533003681
    F           -1.224802000898    -1.025330610213    -2.513273419604
    F           -2.399975911317     0.450455504336    -1.524063397293
    C           -0.121405804097    -0.128019151238     0.502149348168
    C            0.928974240409     0.909888628637     0.892160786873
    CL           0.460673620374    -1.768772917127     0.886698963409
    H           -0.995550176439     0.040900837010     1.111253569488
    F            1.195790751524     0.823194198537     2.170999054060
    F            0.452187433728     2.108092415689     0.659035000869
    F            2.036821624760     0.766869978892     0.221545306564

  Mulliken Charges: (a.u.)
   Center  Symbol    Alpha    Beta     Spin     Total
       1     H     0.48084  0.48084  0.00000  0.03831
       2     C     2.73616  2.73616  0.00000  0.52767
       3     O     4.13921  4.13921  0.00000 -0.27842
       4     F     4.60164  4.60164  0.00000 -0.20327
       5     F     4.61138  4.61138  0.00000 -0.22276
       6     C     2.94899  2.94899  0.00000  0.10201
       7     C     2.66806  2.66806  0.00000  0.66388
       8    CL     8.57794  8.57794  0.00000 -0.15588
       9     H     0.43295  0.43295  0.00000  0.13409
      10     F     4.60246  4.60246  0.00000 -0.20491
      11     F     4.60233  4.60233  0.00000 -0.20466
      12     F     4.59803  4.59803  0.00000 -0.19607

   Total alpha = 45.00000, Total beta = 45.00000, Total charge = -0.00000

*** Psi4 exiting successfully. Buy a developer a beer!
