  ==> Input File <==

--------------------------------------------------------------------------
set {
	reference rhf
	basis 6-31G*
}

set_num_threads( 1 )
memory 2 gb

molecule MOL {
0 1

H	 -3.420663	 1.227371	 -1.044276
O	 -3.452007	 0.283848	 -0.965577
C	 -3.181085	 -0.079926	 0.364119
C	 -1.765924	 0.277073	 0.805136
H	 -3.327791	 -1.152017	 0.410903
H	 -3.905698	 0.375695	 1.036898
C	 -0.677594	 -0.417312	 -0.014550
H	 -1.637766	 1.358238	 0.744969
H	 -1.659588	 0.017670	 1.857098
C	 0.738335	 -0.034840	 0.421385
H	 -0.814977	 -0.178223	 -1.064632
H	 -0.802730	 -1.495410	 0.071702
C	 1.181574	 -0.756291	 1.696976
H	 1.429318	 -0.254641	 -0.388953
H	 0.789354	 1.041260	 0.582662
C	 2.559750	 -0.339895	 2.223666
H	 1.174139	 -1.831207	 1.523203
H	 0.444477	 -0.570764	 2.475489
C	 3.728543	 -0.709408	 1.308359
H	 2.714309	 -0.809352	 3.192176
H	 2.566911	 0.733403	 2.403062
H	 3.739409	 -1.776212	 1.101113
H	 4.676687	 -0.454252	 1.771775
H	 3.681148	 -0.188203	 0.357957

	symmetry c1
}
set optking {
	frozen_dihedral = ("
		20 16 13 17,
		17 13 10 7,
		11 7 4 3,
		1 2 3 5,
		7 4 3 2
	")
}

ee = energy('scf')
oeprop('DIPOLE', 'QUADRUPOLE', 'MULLIKEN_CHARGES')
f=open( 'psi4out.xyz', 'w' )
f.write( "24  " )
f.write( str(ee) + "\n" )
f.write( MOL.save_string_xyz() )
f.close()
--------------------------------------------------------------------------

    Molecular point group: c1

    Geometry (in Angstrom), charge = 0, multiplicity = 1:

       Center              X                  Y                   Z               Mass
    ------------   -----------------  -----------------  -----------------  -----------------
           H         -3.261167413372     1.435557741062    -1.744977471342     1.007825032070
           O         -3.292511413372     0.492034741062    -1.666278471342    15.994914619560
           C         -3.021589413372     0.128260741062    -0.336582471342    12.000000000000
           C         -1.606428413372     0.485259741062     0.104434528658    12.000000000000
           H         -3.168295413372    -0.943830258938    -0.289798471342     1.007825032070
           H         -3.746202413372     0.583881741062     0.336196528658     1.007825032070
           C         -0.518098413372    -0.209125258938    -0.715251471342    12.000000000000
           H         -1.478270413372     1.566424741062     0.044267528658     1.007825032070
           H         -1.500092413372     0.225856741062     1.156396528658     1.007825032070
           C          0.897830586628     0.173346741062    -0.279316471342    12.000000000000
           H         -0.655481413372     0.029963741062    -1.765333471342     1.007825032070
           H         -0.643234413372    -1.287223258938    -0.628999471342     1.007825032070
           C          1.341069586628    -0.548104258938     0.996274528658    12.000000000000
           H          1.588813586628    -0.046454258938    -1.089654471342     1.007825032070
           H          0.948849586628     1.249446741062    -0.118039471342     1.007825032070
           C          2.719245586628    -0.131708258938     1.522964528658    12.000000000000
           H          1.333634586628    -1.623020258938     0.822501528658     1.007825032070
           H          0.603972586628    -0.362577258938     1.774787528658     1.007825032070
           C          3.888038586628    -0.501221258938     0.607657528658    12.000000000000
           H          2.873804586628    -0.601165258938     2.491474528658     1.007825032070
           H          2.726406586628     0.941589741062     1.702360528658     1.007825032070
           H          3.898904586628    -1.568025258938     0.400411528658     1.007825032070
           H          4.836182586628    -0.246065258938     1.071073528658     1.007825032070
           H          3.840643586628     0.019983741062    -0.342744471342     1.007825032070

  Charge       = 0
  Multiplicity = 1
  Basis Set: 6-31G*
  Basis Set:

    Orbital Energies (a.u.)
    -----------------------

    Doubly Occupied:

       1A    -20.553423     2A    -11.267533     3A    -11.217016
       4A    -11.214754     5A    -11.212691     6A    -11.211865
       7A    -11.210757     8A    -11.207504     9A     -1.360000
      10A     -1.090250    11A     -1.047186    12A     -0.984640
      13A     -0.915793    14A     -0.852743    15A     -0.804215
      16A     -0.773031    17A     -0.679934    18A     -0.644452
      19A     -0.629751    20A     -0.618697    21A     -0.596168
      22A     -0.586971    23A     -0.563442    24A     -0.541183
      25A     -0.518389    26A     -0.509136    27A     -0.494623
      28A     -0.482676    29A     -0.467314    30A     -0.458333
      31A     -0.456164    32A     -0.437460    33A     -0.423587

  @DF-RHF Final Energy:  -349.24525845936938

   => Energetics <=

    Nuclear Repulsion Energy =            387.5488336490540746
    One-Electron Energy =               -1241.5249286120777015
    Two-Electron Energy =                 504.7308365036541318
    DFT Exchange-Correlation Energy =       0.0000000000000000
    Empirical Dispersion Energy =           0.0000000000000000
    PCM Polarization Energy =               0.0000000000000000
    EFP Energy =                            0.0000000000000000
    Total Energy =                       -349.2452584593694382

  Mulliken Charges: (a.u.)
   Center  Symbol    Alpha    Beta     Spin     Total
       1     H     0.28340  0.28340  0.00000  0.43321
       2     O     4.36836  4.36836  0.00000 -0.73671
       3     C     2.99553  2.99553  0.00000  0.00894
       4     C     3.17068  3.17068  0.00000 -0.34136
       5     H     0.41632  0.41632  0.00000  0.16736
       6     H     0.42831  0.42831  0.00000  0.14338
       7     C     3.15449  3.15449  0.00000 -0.30898
       8     H     0.42821  0.42821  0.00000  0.14358
       9     H     0.42123  0.42123  0.00000  0.15755
      10     C     3.15637  3.15637  0.00000 -0.31275
      11     H     0.40992  0.40992  0.00000  0.18016
      12     H     0.42306  0.42306  0.00000  0.15388
      13     C     3.15428  3.15428  0.00000 -0.30857
      14     H     0.41835  0.41835  0.00000  0.16331
      15     H     0.42545  0.42545  0.00000  0.14909
      16     C     3.15170  3.15170  0.00000 -0.30339
      17     H     0.42373  0.42373  0.00000  0.15255
      18     H     0.42248  0.42248  0.00000  0.15504
      19     C     3.24110  3.24110  0.00000 -0.48220
      20     H     0.42154  0.42154  0.00000  0.15692
      21     H     0.42391  0.42391  0.00000  0.15217
      22     H     0.42214  0.42214  0.00000  0.15572
      23     H     0.41951  0.41951  0.00000  0.16097
      24     H     0.41993  0.41993  0.00000  0.16014

   Total alpha = 33.00000, Total beta = 33.00000, Total charge =  0.00000
