  ==> Input File <==

--------------------------------------------------------------------------
set {
	reference rhf
	basis 6-31G*
}

set_num_threads( 1 )
memory 2 gb

molecule MOL {
0 1

O	 3.225979	 0.970355	 -0.599647
C	 2.701189	 0.057885	 -0.047330
C	 1.245376	 -0.013843	 0.345420
O	 3.347903	 -1.046386	 0.304773
C	 0.455112	 1.231400	 -0.050772
H	 0.838542	 -0.913825	 -0.103701
H	 1.208210	 -0.175333	 1.419774
C	 -0.998893	 1.219485	 0.433193
H	 0.482531	 1.345121	 -1.130325
H	 0.957290	 2.103070	 0.354729
C	 -1.883438	 0.145884	 -0.207175
H	 -1.431207	 2.195402	 0.224832
H	 -1.019646	 1.105716	 1.516076
C	 -1.076464	 -0.977880	 -0.860587
H	 -2.539103	 -0.277164	 0.552399
H	 -2.532677	 0.593242	 -0.956396
C	 -1.949976	 -2.053772	 -1.508326
H	 -0.433225	 -1.440065	 -0.113684
H	 -0.412834	 -0.554237	 -1.612797
C	 -1.136486	 -3.174251	 -2.155211
H	 -2.614452	 -2.477463	 -0.758260
H	 -2.590562	 -1.594393	 -2.258260
H	 -1.783249	 -3.920953	 -2.605476
H	 -0.510541	 -3.677015	 -1.423353
H	 -0.486062	 -2.786956	 -2.934459
C	 4.728119	 -1.109107	 -0.004993
H	 4.882018	 -1.033965	 -1.071845
H	 5.068212	 -2.067527	 0.355250
H	 5.265056	 -0.311663	 0.488280

	symmetry c1
}
set optking {
	frozen_dihedral = ("
		21 17 14 11,
		17 14 11 15,
		6 3 5 9,
		11 8 5 9,
		2 4 26 27,
		1 2 4 26,
		6 3 2 1
	")
}

ee = energy('scf')
oeprop('DIPOLE', 'QUADRUPOLE', 'MULLIKEN_CHARGES')
f=open( 'psi4out.xyz', 'w' )
f.write( "29  " )
f.write( str(ee) + "\n" )
f.write( MOL.save_string_xyz() )
f.close()
--------------------------------------------------------------------------

    Molecular point group: c1

    Geometry (in Angstrom), charge = 0, multiplicity = 1:

       Center              X                  Y                   Z               Mass
    ------------   -----------------  -----------------  -----------------  -----------------
           O          2.387875818545     1.421268001476    -0.197942722468    15.994914619560
           C          1.863085818545     0.508798001476     0.354374277532    12.000000000000
           C          0.407272818545     0.437070001476     0.747124277532    12.000000000000
           O          2.509799818545    -0.595472998524     0.706477277532    15.994914619560
           C         -0.382991181455     1.682313001476     0.350932277532    12.000000000000
           H          0.000438818545    -0.462911998524     0.298003277532     1.007825032070
           H          0.370106818545     0.275580001476     1.821478277532     1.007825032070
           C         -1.836996181455     1.670398001476     0.834897277532    12.000000000000
           H         -0.355572181455     1.796034001476    -0.728620722468     1.007825032070
           H          0.119186818545     2.553983001476     0.756433277532     1.007825032070
           C         -2.721541181455     0.596797001476     0.194529277532    12.000000000000
           H         -2.269310181455     2.646315001476     0.626536277532     1.007825032070
           H         -1.857749181455     1.556629001476     1.917780277532     1.007825032070
           C         -1.914567181455    -0.526966998524    -0.458882722468    12.000000000000
           H         -3.377206181455     0.173749001476     0.954103277532     1.007825032070
           H         -3.370780181455     1.044155001476    -0.554691722468     1.007825032070
           C         -2.788079181455    -1.602858998524    -1.106621722468    12.000000000000
           H         -1.271328181455    -0.989151998524     0.288020277532     1.007825032070
           H         -1.250937181455    -0.103323998524    -1.211092722468     1.007825032070
           C         -1.974589181455    -2.723337998524    -1.753506722468    12.000000000000
           H         -3.452555181455    -2.026549998524    -0.356555722468     1.007825032070
           H         -3.428665181455    -1.143479998524    -1.856555722468     1.007825032070
           H         -2.621352181455    -3.470039998524    -2.203771722468     1.007825032070
           H         -1.348644181455    -3.226101998524    -1.021648722468     1.007825032070
           H         -1.324165181455    -2.336042998524    -2.532754722468     1.007825032070
           C          3.890015818545    -0.658193998524     0.396711277532    12.000000000000
           H          4.043914818545    -0.583051998524    -0.670140722468     1.007825032070
           H          4.230108818545    -1.616613998524     0.756954277532     1.007825032070
           H          4.426952818545     0.139250001476     0.889984277532     1.007825032070

  Charge       = 0
  Multiplicity = 1
  Basis Set: 6-31G*
  Basis Set:

    Orbital Energies (a.u.)
    -----------------------

    Doubly Occupied:

       1A    -20.601340     2A    -20.541767     3A    -11.368118
       4A    -11.279349     5A    -11.224784     6A    -11.218316
       7A    -11.217033     8A    -11.216317     9A    -11.215985
      10A    -11.214604    11A    -11.210502    12A     -1.466582
      13A     -1.359773    14A     -1.107712    15A     -1.059920
      16A     -1.019491    17A     -0.973587    18A     -0.938745
      19A     -0.864192    20A     -0.813559    21A     -0.781891
      22A     -0.764302    23A     -0.696767    24A     -0.681156
      25A     -0.670059    26A     -0.651284    27A     -0.636223
      28A     -0.608131    29A     -0.594130    30A     -0.580013
      31A     -0.568994    32A     -0.554269    33A     -0.541029
      34A     -0.525475    35A     -0.519733    36A     -0.505639
      37A     -0.496162    38A     -0.484371    39A     -0.473868
      40A     -0.455036    41A     -0.453175    42A     -0.452339
      43A     -0.439034    44A     -0.421359

  @DF-RHF Final Energy:  -501.00646460524854

   => Energetics <=

    Nuclear Repulsion Energy =            647.2262657941594171
    One-Electron Energy =               -1965.5330675218067427
    Two-Electron Energy =                 817.3003371223991280
    DFT Exchange-Correlation Energy =       0.0000000000000000
    Empirical Dispersion Energy =           0.0000000000000000
    PCM Polarization Energy =               0.0000000000000000
    EFP Energy =                            0.0000000000000000
    Total Energy =                       -501.0064646052481976

  Mulliken Charges: (a.u.)
   Center  Symbol    Alpha    Beta     Spin     Total
       1     O     4.28783  4.28783  0.00000 -0.57566
       2     C     2.60269  2.60269  0.00000  0.79462
       3     C     3.21431  3.21431  0.00000 -0.42863
       4     O     4.30787  4.30787  0.00000 -0.61574
       5     C     3.16101  3.16101  0.00000 -0.32202
       6     H     0.39478  0.39478  0.00000  0.21044
       7     H     0.40276  0.40276  0.00000  0.19448
       8     C     3.15964  3.15964  0.00000 -0.31929
       9     H     0.41175  0.41175  0.00000  0.17651
      10     H     0.40676  0.40676  0.00000  0.18647
      11     C     3.15094  3.15094  0.00000 -0.30188
      12     H     0.41565  0.41565  0.00000  0.16869
      13     H     0.42189  0.42189  0.00000  0.15622
      14     C     3.17165  3.17165  0.00000 -0.34331
      15     H     0.41987  0.41987  0.00000  0.16026
      16     H     0.41933  0.41933  0.00000  0.16134
      17     C     3.14702  3.14702  0.00000 -0.29404
      18     H     0.41703  0.41703  0.00000  0.16594
      19     H     0.41803  0.41803  0.00000  0.16395
      20     C     3.24076  3.24076  0.00000 -0.48152
      21     H     0.42321  0.42321  0.00000  0.15358
      22     H     0.42317  0.42317  0.00000  0.15367
      23     H     0.41818  0.41818  0.00000  0.16363
      24     H     0.42240  0.42240  0.00000  0.15519
      25     H     0.42162  0.42162  0.00000  0.15675
      26     C     3.09206  3.09206  0.00000 -0.18412
      27     H     0.40946  0.40946  0.00000  0.18107
      28     H     0.40900  0.40900  0.00000  0.18199
      29     H     0.40931  0.40931  0.00000  0.18137

   Total alpha = 44.00000, Total beta = 44.00000, Total charge = -0.00000
