                              Psi4 1.0.54 Driver

  ==> Input File <==

--------------------------------------------------------------------------
set {
	reference rhf
	basis cc-pvtz
}

set_num_threads( 4 )
memory 2 gb

molecule MOL {
0 1

O	 -2.071633	 -1.227563	 -0.223463
C	 -1.652164	 -0.152425	 0.058082
C	 -0.327811	 0.006324	 0.778296
C	 -2.402515	 1.108629	 -0.298924
C	 0.795979	 0.357888	 -0.204009
H	 -0.404270	 0.775156	 1.539989
H	 -0.104614	 -0.934618	 1.264762
C	 2.151189	 0.508680	 0.480752
H	 0.554098	 1.281005	 -0.724627
H	 0.852367	 -0.418502	 -0.959260
C	 3.274198	 0.845943	 -0.494065
H	 2.087146	 1.283128	 1.240129
H	 2.390857	 -0.412813	 1.003197
H	 3.079914	 1.781814	 -1.007324
H	 3.383159	 0.073099	 -1.247197
H	 4.222837	 0.942366	 0.020899
H	 -3.240910	 0.874416	 -0.936711
H	 -1.747554	 1.818823	 -0.790984
H	 -2.760419	 1.579708	 0.610998

	symmetry c1
}
set optking {
	frozen_dihedral = ("
		5 3 2 4
	")
}

ee,wfn = optimize('scf', return_wfn=True)
oeprop( wfn, 'DIPOLE', 'QUADRUPOLE', 'MULLIKEN_CHARGES')
f=open( 'psi4out.xyz', 'w' )
f.write( "19  " )
f.write( str(ee) + "\n" )
f.write( MOL.save_string_xyz() )
f.close()
--------------------------------------------------------------------------

    Molecular point group: c1
  Charge       = 0
  Multiplicity = 1
  Basis Set: CC-PVTZ
  Basis Set:
  @DF-RHF Final Energy:  -309.17704417452023
    Total Energy =                       -309.1770441745202902
    Molecular point group: c1
  Basis Set: CC-PVTZ
  Basis Set:
  Basis Set: CC-PVTZ
  Basis Set:
  @DF-RHF Final Energy:  -309.17702854802661
    Total Energy =                       -309.1770285480265557
  Basis Set: CC-PVTZ
  Basis Set:
  Basis Set: CC-PVTZ
  Basis Set:
  @DF-RHF Final Energy:  -309.17704874501675
    Total Energy =                       -309.1770487450164637
  Basis Set: CC-PVTZ
  Basis Set:
  Basis Set: CC-PVTZ
  Basis Set:
  @DF-RHF Final Energy:  -309.17709729620145
    Total Energy =                       -309.1770972962014525
  Basis Set: CC-PVTZ
  Basis Set:
  Basis Set: CC-PVTZ
  Basis Set:
  @DF-RHF Final Energy:  -309.17711126896768
    Total Energy =                       -309.1771112689677921
  Basis Set: CC-PVTZ
  Basis Set:
  Basis Set: CC-PVTZ
  Basis Set:
  @DF-RHF Final Energy:  -309.17713866899140
    Total Energy =                       -309.1771386689913470
  Basis Set: CC-PVTZ
  Basis Set:
  Charge       = 0
  Multiplicity = 1
  Basis Set: CC-PVTZ
  Basis Set:

    Orbital Energies (a.u.)
    -----------------------

    Doubly Occupied:

       1A    -20.537310     2A    -11.319334     3A    -11.230304
       4A    -11.228166     5A    -11.226452     6A    -11.224078
       7A    -11.214204     8A     -1.397008     9A     -1.094275
      10A     -1.030444    11A     -0.984042    12A     -0.892675
      13A     -0.808832    14A     -0.734601    15A     -0.665564
      16A     -0.648333    17A     -0.626325    18A     -0.615489
      19A     -0.582520    20A     -0.575922    21A     -0.554236
      22A     -0.537061    23A     -0.511160    24A     -0.504710
      25A     -0.484693    26A     -0.477447    27A     -0.472311
      28A     -0.399485

  @DF-RHF Final Energy:  -309.17713878902350

   => Energetics <=

    Nuclear Repulsion Energy =            301.7461574851151909
    One-Electron Energy =               -1016.6926311028319105
    Two-Electron Energy =                 405.7693348286933315
    DFT Exchange-Correlation Energy =       0.0000000000000000
    Empirical Dispersion Energy =           0.0000000000000000
    PCM Polarization Energy =               0.0000000000000000
    EFP Energy =                            0.0000000000000000
    Total Energy =                       -309.1771387890233882
    Molecular point group: c1
  Basis Set: CC-PVTZ
  Basis Set:

  -Total Gradient:
     Atom            X                  Y                   Z
    ------   -----------------  -----------------  -----------------
       1       -0.000011370583    -0.000040965633    -0.000009908848
       2       -0.000496239589     0.000263121535     0.000925892561
       3        0.000312358753    -0.000879679398    -0.000384294267
       4        0.000311354418     0.000005935789    -0.000594729823
       5       -0.000113749352     0.000628086326     0.000077952217
       6        0.000001216022     0.000004905326     0.000003949852
       7       -0.000002158900     0.000001463335    -0.000004497469
       8       -0.000006954684     0.000021772189     0.000001769075
       9        0.000001452950     0.000005396426     0.000009268319
      10        0.000003414330    -0.000010200962    -0.000014113748
      11       -0.000006012249    -0.000013239902    -0.000004990397
      12       -0.000004279127     0.000006558904     0.000010988025
      13       -0.000003355738    -0.000004083904    -0.000000073385
      14       -0.000001705778     0.000006606313    -0.000000210062
      15        0.000003759597    -0.000004468669    -0.000011822671
      16        0.000005397494    -0.000001482742     0.000004949572
      17        0.000003611284    -0.000003556759    -0.000002925272
      18        0.000000855942     0.000001033488    -0.000005743042
      19        0.000002405210     0.000012798336    -0.000001460635

  **** Optimization is complete! (in 7 steps) ****
    Final optimized geometry and variables:
    Molecular point group: c1

    Geometry (in Angstrom), charge = 0, multiplicity = 1:

    O           -2.050245159326    -1.443598204854    -0.205473404774
    C           -1.629200767991    -0.364445325773     0.058596157007
    C           -0.296495276516    -0.192159442260     0.759030025519
    C           -2.397669639301     0.887376962152    -0.298115884245
    C            0.830588874475     0.161835033691    -0.218810386414
    H           -0.380103388630     0.587132297055     1.510945955555
    H           -0.070755291115    -1.124447557098     1.258976501758
    C            2.185593169277     0.288123104435     0.472022768635
    H            0.603167160665     1.093712864111    -0.727663829487
    H            0.885693803253    -0.605324360709    -0.985010838845
    C            3.314829135945     0.630229000814    -0.493809683081
    H            2.125755324336     1.051109527411     1.243252366152
    H            2.414842338413    -0.643487171198     0.980648067620
    H            3.130903518960     1.575628248611    -0.993281600899
    H            3.419876092614    -0.131988620204    -1.258327482540
    H            4.262395432508     0.710184366310     0.025860701488
    H           -3.243564732624     0.633995834608    -0.918370221901
    H           -1.765161357754     1.602496601968    -0.809646851111
    H           -2.748861372998     1.361888015184     0.612659996413

  Mulliken Charges: (a.u.)
   Center  Symbol    Alpha    Beta     Spin     Total
       1     O     4.17554  4.17554  0.00000 -0.35108
       2     C     2.85860  2.85860  0.00000  0.28279
       3     C     3.09519  3.09519  0.00000 -0.19037
       4     C     3.15589  3.15589  0.00000 -0.31179
       5     C     3.10108  3.10108  0.00000 -0.20217
       6     H     0.45046  0.45046  0.00000  0.09908
       7     H     0.43862  0.43862  0.00000  0.12276
       8     C     3.08544  3.08544  0.00000 -0.17088
       9     H     0.45170  0.45170  0.00000  0.09661
      10     H     0.44339  0.44339  0.00000  0.11323
      11     C     3.14923  3.14923  0.00000 -0.29847
      12     H     0.45380  0.45380  0.00000  0.09239
      13     H     0.45046  0.45046  0.00000  0.09908
      14     H     0.45526  0.45526  0.00000  0.08948
      15     H     0.45294  0.45294  0.00000  0.09412
      16     H     0.44700  0.44700  0.00000  0.10601
      17     H     0.43529  0.43529  0.00000  0.12943
      18     H     0.45092  0.45092  0.00000  0.09816
      19     H     0.44918  0.44918  0.00000  0.10164

   Total alpha = 28.00000, Total beta = 28.00000, Total charge = -0.00000

*** Psi4 exiting successfully. Buy a developer a beer!
