  ==> Input File <==

--------------------------------------------------------------------------
set {
	reference rhf
	basis 6-31G*
}

set_num_threads( 1 )
memory 2 gb

molecule MOL {
0 1

O	 2.875748	 1.109241	 0.479205
C	 2.701189	 0.057885	 -0.047330
C	 1.740465	 -0.210407	 -1.180388
O	 3.347903	 -1.046386	 0.304773
C	 0.980258	 1.035402	 -1.630008
H	 2.316087	 -0.649486	 -1.988510
H	 1.056620	 -0.986906	 -0.847067
C	 -0.074040	 0.759703	 -2.707478
H	 1.687557	 1.777135	 -1.988729
H	 0.497083	 1.476541	 -0.764930
C	 0.486979	 0.306167	 -4.058282
H	 -0.647997	 1.671085	 -2.858076
H	 -0.780319	 0.015804	 -2.341701
C	 -0.594261	 0.150615	 -5.129600
H	 1.228509	 1.027637	 -4.398037
H	 1.010396	 -0.640818	 -3.947707
C	 -0.045843	 -0.307289	 -6.482261
H	 -1.114484	 1.098575	 -5.255987
H	 -1.341764	 -0.562688	 -4.785887
C	 -1.131465	 -0.456481	 -7.547563
H	 0.701994	 0.403858	 -6.826720
H	 0.470753	 -1.256846	 -6.358773
H	 -0.711903	 -0.782045	 -8.494443
H	 -1.644029	 0.485796	 -7.719570
H	 -1.877315	 -1.187259	 -7.247652
C	 4.728119	 -1.109107	 -0.004993
H	 4.882018	 -1.033965	 -1.071845
H	 5.068212	 -2.067527	 0.355250
H	 5.265056	 -0.311663	 0.488280

	symmetry c1
}
set optking {
	frozen_dihedral = ("
		21 17 14 11,
		17 14 11 15,
		15 11 8 5,
		6 3 5 9,
		11 8 5 9,
		2 4 26 27,
		6 3 2 1
	")
}

ee = energy('scf')
oeprop('DIPOLE', 'QUADRUPOLE', 'MULLIKEN_CHARGES')
f=open( 'psi4out.xyz', 'w' )
f.write( "29  " )
f.write( str(ee) + "\n" )
f.write( MOL.save_string_xyz() )
f.close()
--------------------------------------------------------------------------

    Molecular point group: c1

    Geometry (in Angstrom), charge = 0, multiplicity = 1:

       Center              X                  Y                   Z               Mass
    ------------   -----------------  -----------------  -----------------  -----------------
           O          1.476678740966     1.095400999937     3.005496160718    15.994914619560
           C          1.302119740966     0.044044999937     2.478961160718    12.000000000000
           C          0.341395740966    -0.224247000063     1.345903160718    12.000000000000
           O          1.948833740966    -1.060226000063     2.831064160718    15.994914619560
           C         -0.418811259034     1.021561999937     0.896283160718    12.000000000000
           H          0.917017740966    -0.663326000063     0.537781160718     1.007825032070
           H         -0.342449259034    -1.000746000063     1.679224160718     1.007825032070
           C         -1.473109259034     0.745862999937    -0.181186839282    12.000000000000
           H          0.288487740966     1.763294999937     0.537562160718     1.007825032070
           H         -0.901986259034     1.462700999937     1.761361160718     1.007825032070
           C         -0.912090259034     0.292326999937    -1.531990839282    12.000000000000
           H         -2.047066259034     1.657244999937    -0.331784839282     1.007825032070
           H         -2.179388259034     0.001963999937     0.184590160718     1.007825032070
           C         -1.993330259034     0.136774999937    -2.603308839282    12.000000000000
           H         -0.170560259034     1.013796999937    -1.871745839282     1.007825032070
           H         -0.388673259034    -0.654658000063    -1.421415839282     1.007825032070
           C         -1.444912259034    -0.321129000063    -3.955969839282    12.000000000000
           H         -2.513553259034     1.084734999937    -2.729695839282     1.007825032070
           H         -2.740833259034    -0.576528000063    -2.259595839282     1.007825032070
           C         -2.530534259034    -0.470321000063    -5.021271839282    12.000000000000
           H         -0.697075259034     0.390017999937    -4.300428839282     1.007825032070
           H         -0.928316259034    -1.270686000063    -3.832481839282     1.007825032070
           H         -2.110972259034    -0.795885000063    -5.968151839282     1.007825032070
           H         -3.043098259034     0.471955999937    -5.193278839282     1.007825032070
           H         -3.276384259034    -1.201099000063    -4.721360839282     1.007825032070
           C          3.329049740966    -1.122947000063     2.521298160718    12.000000000000
           H          3.482948740966    -1.047805000063     1.454446160718     1.007825032070
           H          3.669142740966    -2.081367000063     2.881541160718     1.007825032070
           H          3.865986740966    -0.325503000063     3.014571160718     1.007825032070

  Charge       = 0
  Multiplicity = 1
  Basis Set: 6-31G*
  Basis Set:

    Orbital Energies (a.u.)
    -----------------------

    Doubly Occupied:

       1A    -20.587988     2A    -20.552975     3A    -11.373087
       4A    -11.291719     5A    -11.235633     6A    -11.219375
       7A    -11.218327     8A    -11.217483     9A    -11.217221
      10A    -11.215710    11A    -11.210165    12A     -1.464325
      13A     -1.365333    14A     -1.098787    15A     -1.066820
      16A     -1.017287    17A     -0.979552    18A     -0.935096
      19A     -0.864978    20A     -0.801431    21A     -0.792190
      22A     -0.764670    23A     -0.699644    24A     -0.681052
      25A     -0.672082    26A     -0.652680    27A     -0.626676
      28A     -0.616274    29A     -0.596701    30A     -0.587036
      31A     -0.569258    32A     -0.548295    33A     -0.543570
      34A     -0.530535    35A     -0.517522    36A     -0.501982
      37A     -0.496760    38A     -0.479407    39A     -0.472627
      40A     -0.464043    41A     -0.463503    42A     -0.451069
      43A     -0.441763    44A     -0.431671

  @DF-RHF Final Energy:  -501.02627424595494

   => Energetics <=

    Nuclear Repulsion Energy =            612.7413129617614231
    One-Electron Energy =               -1896.4668903206832056
    Two-Electron Energy =                 782.6993031129679821
    DFT Exchange-Correlation Energy =       0.0000000000000000
    Empirical Dispersion Energy =           0.0000000000000000
    PCM Polarization Energy =               0.0000000000000000
    EFP Energy =                            0.0000000000000000
    Total Energy =                       -501.0262742459538003

  Mulliken Charges: (a.u.)
   Center  Symbol    Alpha    Beta     Spin     Total
       1     O     4.26446  4.26446  0.00000 -0.52893
       2     C     2.61084  2.61084  0.00000  0.77832
       3     C     3.21171  3.21171  0.00000 -0.42341
       4     O     4.31157  4.31157  0.00000 -0.62315
       5     C     3.15504  3.15504  0.00000 -0.31007
       6     H     0.40544  0.40544  0.00000  0.18913
       7     H     0.39938  0.39938  0.00000  0.20123
       8     C     3.15632  3.15632  0.00000 -0.31264
       9     H     0.41441  0.41441  0.00000  0.17117
      10     H     0.40772  0.40772  0.00000  0.18457
      11     C     3.15490  3.15490  0.00000 -0.30980
      12     H     0.41824  0.41824  0.00000  0.16353
      13     H     0.42355  0.42355  0.00000  0.15291
      14     C     3.15026  3.15026  0.00000 -0.30052
      15     H     0.42313  0.42313  0.00000  0.15374
      16     H     0.42458  0.42458  0.00000  0.15083
      17     C     3.15144  3.15144  0.00000 -0.30288
      18     H     0.42301  0.42301  0.00000  0.15397
      19     H     0.42369  0.42369  0.00000  0.15261
      20     C     3.23938  3.23938  0.00000 -0.47875
      21     H     0.42298  0.42298  0.00000  0.15404
      22     H     0.42380  0.42380  0.00000  0.15240
      23     H     0.41921  0.41921  0.00000  0.16157
      24     H     0.42136  0.42136  0.00000  0.15729
      25     H     0.42165  0.42165  0.00000  0.15669
      26     C     3.09384  3.09384  0.00000 -0.18767
      27     H     0.42036  0.42036  0.00000  0.15929
      28     H     0.40320  0.40320  0.00000  0.19359
      29     H     0.40453  0.40453  0.00000  0.19094

   Total alpha = 44.00000, Total beta = 44.00000, Total charge =  0.00000
