  ==> Input File <==

--------------------------------------------------------------------------
set {
	reference rhf
	basis 6-31G*
}

set_num_threads( 4 )
memory 2 gb

molecule MOL {
0 1

H	 -1.975968	 0.827152	 0.667278
N	 -1.852125	 0.165761	 -0.074816
C	 -0.563778	 -0.502042	 0.037919
H	 -1.907299	 0.680090	 -0.933406
C	 0.575259	 0.508231	 -0.048326
H	 -0.482092	 -1.204004	 -0.786564
H	 -0.460411	 -1.085169	 0.956626
C	 1.954651	 -0.143624	 0.035137
H	 0.475158	 1.060484	 -0.977307
H	 0.469181	 1.234488	 0.755973
H	 2.103292	 -0.853109	 -0.774172
H	 2.742821	 0.599562	 -0.030094
H	 2.083613	 -0.679371	 0.971560

	symmetry c1
}
set optking {
	frozen_dihedral = ("
		1 2 3 6
	")
}

ee = optimize('scf')
oeprop('DIPOLE', 'QUADRUPOLE', 'MULLIKEN_CHARGES')
f=open( 'psi4out.xyz', 'w' )
f.write( "13  " )
f.write( str(ee) + "\n" )
f.write( MOL.save_string_xyz() )
f.close()
--------------------------------------------------------------------------

    Molecular point group: c1
  Charge       = 0
  Multiplicity = 1
  Basis Set: 6-31G*
  Basis Set:
  @DF-RHF Final Energy:  -173.28013413382558
    Total Energy =                       -173.2801341338256123
    Molecular point group: c1
  Basis Set: 6-31G*
  Basis Set:
  Basis Set: 6-31G*
  Basis Set:
  @DF-RHF Final Energy:  -173.28214247626232
    Total Energy =                       -173.2821424762622655
  Basis Set: 6-31G*
  Basis Set:
  Basis Set: 6-31G*
  Basis Set:
  @DF-RHF Final Energy:  -173.28240726405670
    Total Energy =                       -173.2824072640567294
  Basis Set: 6-31G*
  Basis Set:
  Basis Set: 6-31G*
  Basis Set:
  @DF-RHF Final Energy:  -173.28241048955942
    Total Energy =                       -173.2824104895594246
  Basis Set: 6-31G*
  Basis Set:
  Charge       = 0
  Multiplicity = 1
  Basis Set: 6-31G*
  Basis Set:

    Orbital Energies (a.u.)
    -----------------------

    Doubly Occupied:

       1A    -15.533280     2A    -11.240240     3A    -11.216621
       4A    -11.212534     5A     -1.177889     6A     -1.037337
       7A     -0.899573     8A     -0.807618     9A     -0.677540
      10A     -0.607651    11A     -0.605584    12A     -0.561706
      13A     -0.521542    14A     -0.518559    15A     -0.487242
      16A     -0.471669    17A     -0.377671

  @DF-RHF Final Energy:  -173.28241110159195

   => Energetics <=

    Nuclear Repulsion Energy =            131.5962586370636132
    One-Electron Energy =                -493.8488272774114876
    Two-Electron Energy =                 188.9701575387558705
    DFT Exchange-Correlation Energy =       0.0000000000000000
    Empirical Dispersion Energy =           0.0000000000000000
    PCM Polarization Energy =               0.0000000000000000
    EFP Energy =                            0.0000000000000000
    Total Energy =                       -173.2824111015920039
    Molecular point group: c1
  Basis Set: 6-31G*
  Basis Set:

  -Total Gradient:
     Atom            X                  Y                   Z
    ------   -----------------  -----------------  -----------------
       1        0.000121741850     0.000233340096    -0.000208921062
       2       -0.000060926739    -0.000269087629     0.000168373820
       3       -0.000133867286    -0.000146785123     0.000175073137
       4        0.000037341770    -0.000020576192     0.000032079439
       5       -0.000139830039    -0.000037360279    -0.000011997086
       6        0.000088143370     0.000232703247    -0.000187813335
       7       -0.000004972988    -0.000010417781     0.000029826613
       8        0.000034279528     0.000016161980    -0.000025617322
       9        0.000013552426     0.000010063306     0.000032460682
      10       -0.000000026723    -0.000007522861    -0.000005228952
      11       -0.000009171654     0.000001123569     0.000023192004
      12        0.000057683776    -0.000016566030    -0.000007635661
      13       -0.000003947290     0.000014923697    -0.000013792276

  **** Optimization is complete! (in 5 steps) ****
    Final optimized geometry and variables:
    Molecular point group: c1

    Geometry (in Angstrom), charge = 0, multiplicity = 1:

    H           -2.033869233852     0.779907131167     0.685604639514
    N           -1.902063743286     0.103861934995    -0.042723347010
    C           -0.573381486095    -0.482142520255     0.035222562224
    H           -2.023119784687     0.588392138295    -0.911754537162
    C            0.592812543614     0.507088763764    -0.034396914844
    H           -0.483280481398    -1.203658931623    -0.771644982008
    H           -0.513636776510    -1.048509937786     0.960186400831
    C            1.957431676943    -0.176353044908     0.049866464503
    H            0.524681160704     1.073683610140    -0.961510649932
    H            0.496035107005     1.229626402592     0.774268983852
    H            2.092926500731    -0.883186365056    -0.763910605878
    H            2.764914840852     0.546775999009    -0.003477717221
    H            2.065122638641    -0.723349305283     0.982269324196

  Mulliken Charges: (a.u.)
   Center  Symbol    Alpha    Beta     Spin     Total
       1     H     0.33543  0.33543  0.00000  0.32914
       2     N     3.91698  3.91698  0.00000 -0.83397
       3     C     3.06085  3.06085  0.00000 -0.12170
       4     H     0.33537  0.33537  0.00000  0.32926
       5     C     3.15786  3.15786  0.00000 -0.31571
       6     H     0.41965  0.41965  0.00000  0.16070
       7     H     0.41936  0.41936  0.00000  0.16127
       8     C     3.24368  3.24368  0.00000 -0.48736
       9     H     0.42613  0.42613  0.00000  0.14774
      10     H     0.42614  0.42614  0.00000  0.14772
      11     H     0.42051  0.42051  0.00000  0.15899
      12     H     0.41763  0.41763  0.00000  0.16474
      13     H     0.42040  0.42040  0.00000  0.15919

   Total alpha = 17.00000, Total beta = 17.00000, Total charge =  0.00000
