                              Psi4 1.0.54 Driver

  ==> Input File <==

--------------------------------------------------------------------------
set {
	reference rhf
	basis cc-pvtz
}

set_num_threads( 4 )
memory 2 gb

molecule MOL {
0 1

O	 -1.278239	 1.034789	 -0.784693
C	 -1.204115	 0.062668	 -0.112312
C	 -2.386398	 -0.667698	 0.460323
O	 -0.068058	 -0.518372	 0.226882
H	 -2.382952	 -1.693172	 0.114333
H	 -3.296656	 -0.175702	 0.158400
H	 -2.312537	 -0.685191	 1.540100
C	 1.169086	 0.037484	 -0.230612
C	 1.317729	 -0.391463	 -1.676649
C	 2.307574	 -0.442886	 0.651260
H	 1.092476	 1.112376	 -0.168743
H	 0.485073	 -0.034520	 -2.269123
H	 2.232398	 0.014352	 -2.091867
H	 1.355209	 -1.471458	 -1.755016
H	 3.246745	 -0.032683	 0.298853
H	 2.162221	 -0.123698	 1.673825
H	 2.376716	 -1.524506	 0.626764

	symmetry c1
}
set optking {
	frozen_dihedral = ("
		11 8 4 2
	")
}

ee,wfn = optimize('scf', return_wfn=True)
oeprop( wfn, 'DIPOLE', 'QUADRUPOLE', 'MULLIKEN_CHARGES')
f=open( 'psi4out.xyz', 'w' )
f.write( "17  " )
f.write( str(ee) + "\n" )
f.write( MOL.save_string_xyz() )
f.close()
--------------------------------------------------------------------------

    Molecular point group: c1
  Charge       = 0
  Multiplicity = 1
  Basis Set: CC-PVTZ
  Basis Set:
  @DF-RHF Final Energy:  -345.04160486270547
    Total Energy =                       -345.0416048627056398
    Molecular point group: c1
  Basis Set: CC-PVTZ
  Basis Set:
  Basis Set: CC-PVTZ
  Basis Set:
  @DF-RHF Final Energy:  -345.04305417137499
    Total Energy =                       -345.0430541713752746
  Basis Set: CC-PVTZ
  Basis Set:
  Basis Set: CC-PVTZ
  Basis Set:
  @DF-RHF Final Energy:  -345.04331663335029
    Total Energy =                       -345.0433166333504573
  Basis Set: CC-PVTZ
  Basis Set:
  Basis Set: CC-PVTZ
  Basis Set:
  @DF-RHF Final Energy:  -345.04306629753825
    Total Energy =                       -345.0430662975379619
  Basis Set: CC-PVTZ
  Basis Set:
  Basis Set: CC-PVTZ
  Basis Set:
  @DF-RHF Final Energy:  -345.04333270681536
    Total Energy =                       -345.0433327068156473
  Basis Set: CC-PVTZ
  Basis Set:
  Basis Set: CC-PVTZ
  Basis Set:
  @DF-RHF Final Energy:  -345.04333404373358
    Total Energy =                       -345.0433340437338074
  Basis Set: CC-PVTZ
  Basis Set:
  Charge       = 0
  Multiplicity = 1
  Basis Set: CC-PVTZ
  Basis Set:

    Orbital Energies (a.u.)
    -----------------------

    Doubly Occupied:

       1A    -20.591379     2A    -20.531482     3A    -11.366671
       4A    -11.288544     5A    -11.230528     6A    -11.217614
       7A    -11.213602     8A     -1.468582     9A     -1.364498
      10A     -1.079642    11A     -1.005643    12A     -0.948566
      13A     -0.850337    14A     -0.766267    15A     -0.694698
      16A     -0.673974    17A     -0.661910    18A     -0.614537
      19A     -0.586942    20A     -0.579000    21A     -0.562934
      22A     -0.550616    23A     -0.538669    24A     -0.521448
      25A     -0.503983    26A     -0.483240    27A     -0.450862
      28A     -0.438776

  @DF-RHF Final Energy:  -345.04333427348536

   => Energetics <=

    Nuclear Repulsion Energy =            323.8373679169420711
    One-Electron Energy =               -1112.1915184724934988
    Two-Electron Energy =                 443.3108162820662415
    DFT Exchange-Correlation Energy =       0.0000000000000000
    Empirical Dispersion Energy =           0.0000000000000000
    PCM Polarization Energy =               0.0000000000000000
    EFP Energy =                            0.0000000000000000
    Total Energy =                       -345.0433342734851863
    Molecular point group: c1
  Basis Set: CC-PVTZ
  Basis Set:

  -Total Gradient:
     Atom            X                  Y                   Z
    ------   -----------------  -----------------  -----------------
       1        0.000003175526    -0.000030562306     0.000036338575
       2       -0.000032559955    -0.000430310395    -0.000586649874
       3       -0.000002781226    -0.000029114918    -0.000050292846
       4        0.000080378229     0.000632900123     0.001025950888
       5        0.000005549638     0.000026585259     0.000030339854
       6        0.000013902080    -0.000001698351     0.000007492353
       7       -0.000001606209     0.000014865003    -0.000008077681
       8       -0.000378209327    -0.000172899016    -0.001218100664
       9        0.000003114544    -0.000004585971     0.000009496964
      10        0.000009590046     0.000010823817     0.000001368010
      11        0.000314321272    -0.000020650680     0.000760833841
      12       -0.000005870871    -0.000001536294    -0.000001060395
      13        0.000006539120     0.000002192888    -0.000006410441
      14       -0.000003087490     0.000010771317    -0.000001344303
      15       -0.000008529654    -0.000006271645     0.000004908705
      16       -0.000001579775     0.000002918581    -0.000002371536
      17       -0.000002345947    -0.000003427409    -0.000002421451

  **** Optimization is complete! (in 7 steps) ****
    Final optimized geometry and variables:
    Molecular point group: c1

    Geometry (in Angstrom), charge = 0, multiplicity = 1:

    O           -1.279669975564     1.167180918293    -0.549282693455
    C           -1.187513801213     0.191120456122     0.115078837017
    C           -2.354044305600    -0.544290194840     0.712944800044
    O           -0.041899835659    -0.384660980360     0.429774561220
    H           -2.360376545905    -1.566040257705     0.356008920036
    H           -3.271906796324    -0.049383430001     0.440356254933
    H           -2.251217465130    -0.573431991133     1.789989529432
    C            1.182048874268     0.168443691304    -0.065055801269
    C            1.408839351419    -0.260917999249    -1.503409826637
    C            2.269571238229    -0.316024287012     0.873411020730
    H            1.104568797243     1.244189956879    -0.011138572526
    H            0.614836220193     0.096442468042    -2.143227643573
    H            2.345382085339     0.146686755495    -1.865636309385
    H            1.458245109617    -1.341758754556    -1.572582497770
    H            3.228051455124     0.087677243215     0.570236828561
    H            2.069130848205     0.003050455826     1.888151125660
    H            2.333625725611    -1.397537358914     0.861283689050

  Mulliken Charges: (a.u.)
   Center  Symbol    Alpha    Beta     Spin     Total
       1     O     4.19935  4.19935  0.00000 -0.39871
       2     C     2.80615  2.80615  0.00000  0.38769
       3     C     3.13890  3.13890  0.00000 -0.27780
       4     O     4.16343  4.16343  0.00000 -0.32686
       5     H     0.44625  0.44625  0.00000  0.10749
       6     H     0.43842  0.43842  0.00000  0.12316
       7     H     0.44584  0.44584  0.00000  0.10832
       8     C     2.93021  2.93021  0.00000  0.13957
       9     C     3.15552  3.15552  0.00000 -0.31104
      10     C     3.13823  3.13823  0.00000 -0.27647
      11     H     0.44322  0.44322  0.00000  0.11357
      12     H     0.43724  0.43724  0.00000  0.12551
      13     H     0.44981  0.44981  0.00000  0.10037
      14     H     0.45371  0.45371  0.00000  0.09258
      15     H     0.45427  0.45427  0.00000  0.09146
      16     H     0.44693  0.44693  0.00000  0.10615
      17     H     0.45251  0.45251  0.00000  0.09499

   Total alpha = 28.00000, Total beta = 28.00000, Total charge = -0.00000

*** Psi4 exiting successfully. Buy a developer a beer!
