  ==> Input File <==

--------------------------------------------------------------------------
set {
	reference rhf
	basis 6-31G*
}

set_num_threads( 4 )
memory 2 gb

molecule MOL {
0 1

O	 1.846825	 1.296220	 0.000415
C	 1.705091	 0.115954	 0.001797
C	 0.381791	 -0.609817	 0.001258
O	 2.721346	 -0.737485	 -0.000216
C	 -0.823008	 0.326187	 0.001381
H	 0.371250	 -1.265087	 -0.865474
H	 0.370908	 -1.265746	 0.867490
C	 -2.078556	 -0.343949	 0.561361
H	 -1.008741	 0.670073	 -1.011256
H	 -0.587353	 1.212362	 0.582303
C	 -3.297163	 0.580611	 0.568062
H	 -2.307537	 -1.233829	 -0.023170
H	 -1.885169	 -0.688688	 1.576072
C	 -4.551056	 -0.089137	 1.128814
H	 -3.493242	 0.923837	 -0.445294
H	 -3.070290	 1.469611	 1.152309
H	 -4.823976	 -0.963079	 0.544046
H	 -5.396985	 0.591147	 1.120611
H	 -4.397480	 -0.413401	 2.154279
C	 4.024888	 -0.184556	 -0.001949
H	 4.179030	 0.422472	 -0.882452
H	 4.701782	 -1.024608	 -0.003642
H	 4.181981	 0.421185	 0.878906

	symmetry c1
}
set optking {
	frozen_dihedral = ("
		9 5 3 6
	")
}

ee = optimize('scf')
oeprop('DIPOLE', 'QUADRUPOLE', 'MULLIKEN_CHARGES')
f=open( 'psi4out.xyz', 'w' )
f.write( "23  " )
f.write( str(ee) + "\n" )
f.write( MOL.save_string_xyz() )
f.close()
--------------------------------------------------------------------------

    Molecular point group: c1
  Charge       = 0
  Multiplicity = 1
  Basis Set: 6-31G*
  Basis Set:
  @DF-RHF Final Energy:  -422.97465985700558
    Total Energy =                       -422.9746598570052356
    Molecular point group: c1
  Basis Set: 6-31G*
  Basis Set:
  Basis Set: 6-31G*
  Basis Set:
  @DF-RHF Final Energy:  -422.97477338713497
    Total Energy =                       -422.9747733871352011
  Basis Set: 6-31G*
  Basis Set:
  Basis Set: 6-31G*
  Basis Set:
  @DF-RHF Final Energy:  -422.97462657178494
    Total Energy =                       -422.9746265717856204
  Basis Set: 6-31G*
  Basis Set:
  Basis Set: 6-31G*
  Basis Set:
  @DF-RHF Final Energy:  -422.97486577736981
    Total Energy =                       -422.9748657773702689
  Basis Set: 6-31G*
  Basis Set:
  Basis Set: 6-31G*
  Basis Set:
  @DF-RHF Final Energy:  -422.97486647283819
    Total Energy =                       -422.9748664728381300
  Basis Set: 6-31G*
  Basis Set:
  Basis Set: 6-31G*
  Basis Set:
  @DF-RHF Final Energy:  -422.97487078955260
    Total Energy =                       -422.9748707895520283
  Basis Set: 6-31G*
  Basis Set:
  Charge       = 0
  Multiplicity = 1
  Basis Set: 6-31G*
  Basis Set:

    Orbital Energies (a.u.)
    -----------------------

    Doubly Occupied:

       1A    -20.603544     2A    -20.545525     3A    -11.372235
       4A    -11.280805     5A    -11.235655     6A    -11.218806
       7A    -11.217540     8A    -11.216197     9A    -11.209480
      10A     -1.469306    11A     -1.362720    12A     -1.092533
      13A     -1.043326    14A     -0.986864    15A     -0.931808
      16A     -0.843593    17A     -0.794785    18A     -0.766949
      19A     -0.697091    20A     -0.683187    21A     -0.671572
      22A     -0.650604    23A     -0.610228    24A     -0.599183
      25A     -0.572115    26A     -0.557963    27A     -0.557177
      28A     -0.524450    29A     -0.522431    30A     -0.505718
      31A     -0.485366    32A     -0.468817    33A     -0.465621
      34A     -0.460251    35A     -0.455994    36A     -0.435327

  @DF-RHF Final Energy:  -422.97487110634495

   => Energetics <=

    Nuclear Repulsion Energy =            452.2581533095153645
    One-Electron Energy =               -1472.2365136523858382
    Two-Electron Energy =                 597.0034892365255246
    DFT Exchange-Correlation Energy =       0.0000000000000000
    Empirical Dispersion Energy =           0.0000000000000000
    PCM Polarization Energy =               0.0000000000000000
    EFP Energy =                            0.0000000000000000
    Total Energy =                       -422.9748711063449491
    Molecular point group: c1
  Basis Set: 6-31G*
  Basis Set:

  -Total Gradient:
     Atom            X                  Y                   Z
    ------   -----------------  -----------------  -----------------
       1       -0.000021687113     0.000020210595    -0.000016172876
       2        0.000007630415     0.000022456512     0.000037402433
       3       -0.002663924291    -0.003404909543     0.002042009102
       4       -0.000014300685    -0.000019598441     0.000005501293
       5        0.002931242437     0.003689935210     0.000116757730
       6        0.001720395504     0.002226541292    -0.001724217534
       7       -0.000008378160     0.000014085948    -0.000020214868
       8        0.000009920104    -0.000010400312     0.000071655708
       9       -0.001961542309    -0.002525053728    -0.000505092475
      10        0.000003127954    -0.000009529214     0.000009029154
      11        0.000004294201     0.000000305913    -0.000010377212
      12        0.000023797221     0.000022138992    -0.000012541516
      13       -0.000030904529    -0.000024582504     0.000018587677
      14        0.000004778888    -0.000003622251     0.000000947124
      15       -0.000015197790    -0.000005464116    -0.000001154878
      16        0.000010879064     0.000004241085    -0.000010261480
      17       -0.000002923677     0.000000170937     0.000000432987
      18        0.000003192440     0.000002322504     0.000002427024
      19        0.000002522039    -0.000000619620    -0.000000771131
      20        0.000002002753     0.000003752861    -0.000003310232
      21        0.000000486310    -0.000000000104     0.000000674505
      22       -0.000002753378    -0.000001491079    -0.000000303865
      23       -0.000002657405    -0.000000890937    -0.000001006668

  **** Optimization is complete! (in 7 steps) ****
    Final optimized geometry and variables:
    Molecular point group: c1

    Geometry (in Angstrom), charge = 0, multiplicity = 1:

    O            1.838505796167     1.258831666562    -0.234707061022
    C            1.682504472456     0.080415308886    -0.236940438066
    C            0.352784287590    -0.636936607714    -0.199263393285
    O            2.688982753517    -0.783997617861    -0.276057781508
    C           -0.849711764599     0.307471774713    -0.190000107442
    H            0.335150455195    -1.287416845966    -1.068764518435
    H            0.361989500840    -1.285390787805     0.671882837489
    C           -2.116269672229    -0.376689707761     0.331454969828
    H           -1.035819737993     0.656233746025    -1.201777912070
    H           -0.625057356561     1.180299699505     0.411103080317
    C           -3.345683861923     0.532269577712     0.293382923787
    H           -2.315233962207    -1.273157117201    -0.254276972962
    H           -1.950388098877    -0.712470266200     1.353983045563
    C           -4.606028701712    -0.145698312769     0.829359022150
    H           -3.519307578100     0.859950692791    -0.729258901260
    H           -3.145030383838     1.431561924338     0.871456421655
    H           -4.851928358483    -1.031216798621     0.249935993652
    H           -5.459879829234     0.523397818378     0.788619296997
    H           -4.476451020038    -0.453625038517     1.863095998422
    C            3.997956134563    -0.245396005046    -0.313916478503
    H            4.132240727164     0.365363102467    -1.195079420059
    H            4.665076339534    -1.092861336985    -0.341115854918
    H            4.188409219262     0.352990476975     0.565384811879

  Mulliken Charges: (a.u.)
   Center  Symbol    Alpha    Beta     Spin     Total
       1     O     4.28561  4.28561  0.00000 -0.57122
       2     C     2.60824  2.60824  0.00000  0.78351
       3     C     3.20795  3.20795  0.00000 -0.41590
       4     O     4.30678  4.30678  0.00000 -0.61356
       5     C     3.15434  3.15434  0.00000 -0.30867
       6     H     0.39956  0.39956  0.00000  0.20088
       7     H     0.39992  0.39992  0.00000  0.20017
       8     C     3.15437  3.15437  0.00000 -0.30874
       9     H     0.41648  0.41648  0.00000  0.16705
      10     H     0.40349  0.40349  0.00000  0.19303
      11     C     3.15178  3.15178  0.00000 -0.30356
      12     H     0.42437  0.42437  0.00000  0.15126
      13     H     0.42356  0.42356  0.00000  0.15289
      14     C     3.23950  3.23950  0.00000 -0.47899
      15     H     0.42208  0.42208  0.00000  0.15584
      16     H     0.42084  0.42084  0.00000  0.15831
      17     H     0.42196  0.42196  0.00000  0.15608
      18     H     0.41856  0.41856  0.00000  0.16288
      19     H     0.42167  0.42167  0.00000  0.15666
      20     C     3.09226  3.09226  0.00000 -0.18452
      21     H     0.40906  0.40906  0.00000  0.18187
      22     H     0.40849  0.40849  0.00000  0.18303
      23     H     0.40915  0.40915  0.00000  0.18171

   Total alpha = 36.00000, Total beta = 36.00000, Total charge = -0.00000
