                              Psi4 1.0.54 Driver

  ==> Input File <==

--------------------------------------------------------------------------
set {
	reference rhf
	basis cc-pvtz
}

set_num_threads( 4 )
memory 2 gb

molecule MOL {
0 1

H	 3.165513	 -0.881201	 0.696384
N	 3.091268	 -0.241216	 -0.065538
C	 1.860978	 0.530248	 0.016256
H	 3.118988	 -0.779658	 -0.906169
C	 0.644130	 -0.381765	 -0.031064
H	 1.835721	 1.204666	 -0.833114
H	 1.808789	 1.151975	 0.911067
C	 -0.678115	 0.376691	 0.025731
H	 0.693998	 -0.977147	 -0.936845
H	 0.693309	 -1.082142	 0.800523
C	 -1.900706	 -0.535531	 -0.022488
H	 -0.725296	 1.079516	 -0.802982
H	 -0.715474	 0.974884	 0.933278
C	 -3.220513	 0.226854	 0.028039
H	 -1.865036	 -1.134397	 -0.928236
H	 -1.857948	 -1.236381	 0.806820
H	 -3.309098	 0.911849	 -0.808725
H	 -4.066838	 -0.449485	 -0.008086
H	 -3.301685	 0.809374	 0.939860

	symmetry c1
}
set optking {
	frozen_dihedral = ("
		1 2 3 6
	")
}

ee,wfn = optimize('scf', return_wfn=True)
oeprop( wfn, 'DIPOLE', 'QUADRUPOLE', 'MULLIKEN_CHARGES')
f=open( 'psi4out.xyz', 'w' )
f.write( "19  " )
f.write( str(ee) + "\n" )
f.write( MOL.save_string_xyz() )
f.close()
--------------------------------------------------------------------------

    Molecular point group: c1
  Charge       = 0
  Multiplicity = 1
  Basis Set: CC-PVTZ
  Basis Set:
  @DF-RHF Final Energy:  -251.44612141185709
    Total Energy =                       -251.4461214118568932
    Molecular point group: c1
  Basis Set: CC-PVTZ
  Basis Set:
  Basis Set: CC-PVTZ
  Basis Set:
  @DF-RHF Final Energy:  -251.44784896266026
    Total Energy =                       -251.4478489626602595
  Basis Set: CC-PVTZ
  Basis Set:
  Basis Set: CC-PVTZ
  Basis Set:
  @DF-RHF Final Energy:  -251.44807277989648
    Total Energy =                       -251.4480727798961652
  Basis Set: CC-PVTZ
  Basis Set:
  Basis Set: CC-PVTZ
  Basis Set:
  @DF-RHF Final Energy:  -251.44807678209713
    Total Energy =                       -251.4480767820972460
  Basis Set: CC-PVTZ
  Basis Set:
  Charge       = 0
  Multiplicity = 1
  Basis Set: CC-PVTZ
  Basis Set:

    Orbital Energies (a.u.)
    -----------------------

    Doubly Occupied:

       1A    -15.526491     2A    -11.238012     3A    -11.214470
       4A    -11.213003     5A    -11.210847     6A    -11.207292
       7A     -1.178687     8A     -1.076413     9A     -1.000591
      10A     -0.901849    11A     -0.819477    12A     -0.792502
      13A     -0.679843    14A     -0.638811    15A     -0.601460
      16A     -0.581077    17A     -0.579502    18A     -0.558274
      19A     -0.518436    20A     -0.506879    21A     -0.477127
      22A     -0.475370    23A     -0.466743    24A     -0.463787
      25A     -0.378366

  @DF-RHF Final Energy:  -251.44807712539711

   => Energetics <=

    Nuclear Repulsion Energy =            245.8607870561546065
    One-Electron Energy =                -826.0071104527205534
    Two-Electron Energy =                 328.6982462711689550
    DFT Exchange-Correlation Energy =       0.0000000000000000
    Empirical Dispersion Energy =           0.0000000000000000
    PCM Polarization Energy =               0.0000000000000000
    EFP Energy =                            0.0000000000000000
    Total Energy =                       -251.4480771253970488
    Molecular point group: c1
  Basis Set: CC-PVTZ
  Basis Set:

  -Total Gradient:
     Atom            X                  Y                   Z
    ------   -----------------  -----------------  -----------------
       1       -0.000140145138    -0.000261053197    -0.000193372335
       2        0.000158887114     0.000274760456     0.000195529922
       3        0.000076433286     0.000222433978     0.000174809457
       4       -0.000002976933    -0.000011349826    -0.000006643565
       5        0.000059802727     0.000012340429     0.000014833927
       6       -0.000114085279    -0.000226765527    -0.000185537397
       7        0.000001601880    -0.000002035531     0.000004441032
       8        0.000002292955    -0.000008570677    -0.000002107888
       9       -0.000007081257     0.000006385713     0.000015024586
      10       -0.000006378666    -0.000005136394    -0.000005681651
      11       -0.000029343945     0.000005647262    -0.000014726644
      12       -0.000001714458    -0.000003829405     0.000005200069
      13        0.000003201468    -0.000005156479    -0.000003488523
      14       -0.000006151887    -0.000007430843     0.000003941711
      15        0.000003112859    -0.000000897898    -0.000001993420
      16        0.000003708857     0.000007732883    -0.000001214281
      17       -0.000000206890    -0.000001419137    -0.000002710402
      18        0.000000180111     0.000001562101     0.000001671179
      19       -0.000001136808     0.000002782091     0.000002024223

  **** Optimization is complete! (in 5 steps) ****
    Final optimized geometry and variables:
    Molecular point group: c1

    Geometry (in Angstrom), charge = 0, multiplicity = 1:

    H            3.234629176572    -0.835442017664     0.707897408132
    N            3.148944451921    -0.179970607880    -0.040725916003
    C            1.868253726921     0.504157423701     0.010229700013
    H            3.245339149497    -0.693874231555    -0.891520216822
    C            0.636161574138    -0.396904930318    -0.027349043018
    H            1.830880818113     1.199766980318    -0.821662703011
    H            1.847426109390     1.107167761035     0.912102418191
    C           -0.677825746609     0.376636704245     0.027869738637
    H            0.665431940962    -0.999590619619    -0.932673072209
    H            0.681959857163    -1.094772165371     0.806187516956
    C           -1.913297234165    -0.518646874340    -0.009258546949
    H           -0.718805620107     1.075806943897    -0.804207193120
    H           -0.701902783699     0.980609529564     0.932007859551
    C           -3.222072403416     0.262149050615     0.046111584359
    H           -1.891884144245    -1.121629266703    -0.912931809694
    H           -1.875148939727    -1.216541328854     0.822691847792
    H           -3.306401193360     0.944671525177    -0.793063443382
    H           -4.077805102284    -0.402652658598     0.018374590313
    H           -3.289178856952     0.849544079053     0.955851017259

  Mulliken Charges: (a.u.)
   Center  Symbol    Alpha    Beta     Spin     Total
       1     H     0.43265  0.43265  0.00000  0.13471
       2     N     3.68829  3.68829  0.00000 -0.37657
       3     C     3.03004  3.03004  0.00000 -0.06008
       4     H     0.43265  0.43265  0.00000  0.13470
       5     C     3.08738  3.08738  0.00000 -0.17476
       6     H     0.45313  0.45313  0.00000  0.09373
       7     H     0.45289  0.45289  0.00000  0.09422
       8     C     3.09404  3.09404  0.00000 -0.18807
       9     H     0.45959  0.45959  0.00000  0.08081
      10     H     0.45959  0.45959  0.00000  0.08082
      11     C     3.08277  3.08277  0.00000 -0.16553
      12     H     0.45473  0.45473  0.00000  0.09055
      13     H     0.45469  0.45469  0.00000  0.09062
      14     C     3.14986  3.14986  0.00000 -0.29973
      15     H     0.45456  0.45456  0.00000  0.09089
      16     H     0.45454  0.45454  0.00000  0.09093
      17     H     0.45507  0.45507  0.00000  0.08985
      18     H     0.44849  0.44849  0.00000  0.10302
      19     H     0.45506  0.45506  0.00000  0.08989

   Total alpha = 25.00000, Total beta = 25.00000, Total charge =  0.00000

*** Psi4 exiting successfully. Buy a developer a beer!
