                              Psi4 1.0.54 Driver

  ==> Input File <==

--------------------------------------------------------------------------
set {
	reference rhf
	basis cc-pvtz
}

set_num_threads( 4 )
memory 2 gb

molecule MOL {
0 1

O	 0.395927	 1.296676	 -0.000076
C	 0.503051	 0.114301	 -0.000074
C	 -0.701422	 -0.805636	 -0.000109
C	 1.858118	 -0.556123	 0.000212
C	 -0.614739	 -1.940523	 1.008157
H	 -1.581338	 -0.193424	 0.179830
H	 -0.818902	 -1.191686	 -1.009368
H	 -0.521818	 -1.557964	 2.015749
H	 -1.503500	 -2.558029	 0.956713
H	 0.247370	 -2.565089	 0.816020
H	 1.961106	 -1.191101	 -0.872843
H	 2.636688	 0.191085	 -0.000109
H	 1.961070	 -1.190284	 0.873873

	symmetry c1
}
set optking {
	frozen_dihedral = ("
		6 3 2 1
	")
}

ee,wfn = optimize('scf', return_wfn=True)
oeprop( wfn, 'DIPOLE', 'QUADRUPOLE', 'MULLIKEN_CHARGES')
f=open( 'psi4out.xyz', 'w' )
f.write( "13  " )
f.write( str(ee) + "\n" )
f.write( MOL.save_string_xyz() )
f.close()
--------------------------------------------------------------------------

    Molecular point group: c1
  Charge       = 0
  Multiplicity = 1
  Basis Set: CC-PVTZ
  Basis Set:
  @DF-RHF Final Energy:  -231.07963605522033
    Total Energy =                       -231.0796360552205897
    Molecular point group: c1
  Basis Set: CC-PVTZ
  Basis Set:
  Basis Set: CC-PVTZ
  Basis Set:
  @DF-RHF Final Energy:  -230.69965114222086
    Total Energy =                       -230.6996511422209153
  Basis Set: CC-PVTZ
  Basis Set:
  Basis Set: CC-PVTZ
  Basis Set:
  @DF-RHF Final Energy:  -230.85538942217582
    Total Energy =                       -230.8553894221757332
  Basis Set: CC-PVTZ
  Basis Set:
  Basis Set: CC-PVTZ
  Basis Set:
  @DF-RHF Final Energy:  -231.03711561243648
    Total Energy =                       -231.0371156124366507
  Basis Set: CC-PVTZ
  Basis Set:
  @DF-RHF Final Energy:  -231.07733427020256
    Total Energy =                       -231.0773342702025275
  @DF-RHF Final Energy:  -231.08005664994343
    Total Energy =                       -231.0800566499435149
  @DF-RHF Final Energy:  -231.08056890384523
    Total Energy =                       -231.0805689038453181
  @DF-RHF Final Energy:  -231.08037572448305
    Total Energy =                       -231.0803757244830763
  Basis Set: CC-PVTZ
  Basis Set:
  @DF-RHF Final Energy:  -231.08084110388333
    Total Energy =                       -231.0808411038833015
  Basis Set: CC-PVTZ
  Basis Set:
  Basis Set: CC-PVTZ
  Basis Set:
  @DF-RHF Final Energy:  -231.08085980527034
    Total Energy =                       -231.0808598052703644
  Basis Set: CC-PVTZ
  Basis Set:
  Basis Set: CC-PVTZ
  Basis Set:
  @DF-RHF Final Energy:  -231.08086701995265
    Total Energy =                       -231.0808670199526205
  Basis Set: CC-PVTZ
  Basis Set:
  Charge       = 0
  Multiplicity = 1
  Basis Set: CC-PVTZ
  Basis Set:

    Orbital Energies (a.u.)
    -----------------------

    Doubly Occupied:

       1A    -20.538190     2A    -11.320690     3A    -11.232635
       4A    -11.228181     5A    -11.227346     6A     -1.398205
       7A     -1.069141     8A     -0.994963     9A     -0.890335
      10A     -0.733905    11A     -0.655240    12A     -0.649148
      13A     -0.620113    14A     -0.591245    15A     -0.560311
      16A     -0.544762    17A     -0.529852    18A     -0.507057
      19A     -0.485548    20A     -0.402368

  @DF-RHF Final Energy:  -231.08086794485595

   => Energetics <=

    Nuclear Repulsion Energy =            177.2257980279119636
    One-Electron Energy =                -664.2548555617577222
    Two-Electron Energy =                 255.9481895889899192
    DFT Exchange-Correlation Energy =       0.0000000000000000
    Empirical Dispersion Energy =           0.0000000000000000
    PCM Polarization Energy =               0.0000000000000000
    EFP Energy =                            0.0000000000000000
    Total Energy =                       -231.0808679448558109
    Molecular point group: c1
  Basis Set: CC-PVTZ
  Basis Set:

  -Total Gradient:
     Atom            X                  Y                   Z
    ------   -----------------  -----------------  -----------------
       1       -0.000443738519    -0.000130730421    -0.000627408916
       2        0.000684835164     0.000249032834     0.001007255559
       3       -0.000762469278    -0.000060649273    -0.000904983298
       4        0.000057762655    -0.000028309442    -0.000023223033
       5       -0.000032248738     0.000004403782    -0.000009476395
       6        0.000525561056     0.000007068849     0.000535635558
       7       -0.000006913182    -0.000007495009     0.000002985844
       8        0.000000064215     0.000005495745    -0.000000979143
       9        0.000013355070    -0.000008096987    -0.000002682682
      10        0.000000837421    -0.000013679574     0.000001754222
      11       -0.000004550305    -0.000006847015     0.000007120743
      12       -0.000020584571    -0.000003656671     0.000020458090
      13       -0.000011910987    -0.000006536812    -0.000006456548

  **** Optimization is complete! (in 12 steps) ****
    Final optimized geometry and variables:
    Molecular point group: c1

    Geometry (in Angstrom), charge = 0, multiplicity = 1:

    O           -0.403801123992     1.632135933545    -0.168607384296
    C           -0.057519268504     0.501292570078    -0.279194549996
    C           -0.800324815004    -0.614970787329     0.429843066894
    C            1.116082996602     0.127777914363    -1.156774231274
    C            0.088927121147    -1.617626859922     1.165524312760
    H           -1.492266480197    -0.146852437371     1.115628275197
    H           -1.386571816518    -1.134929515301    -0.323958162375
    H            0.709377847158    -1.123067465729     1.904363245682
    H           -0.523285213403    -2.344573061185     1.683829968081
    H            0.738659077433    -2.159386634407     0.489616296009
    H            0.874622777074    -0.717956827049    -1.790481350103
    H            1.394929275162     0.976555231332    -1.761798644988
    H            1.959504907783    -0.160047750271    -0.539209886750

  Mulliken Charges: (a.u.)
   Center  Symbol    Alpha    Beta     Spin     Total
       1     O     4.17113  4.17113  0.00000 -0.34226
       2     C     2.85586  2.85586  0.00000  0.28828
       3     C     3.09790  3.09790  0.00000 -0.19581
       4     C     3.16188  3.16188  0.00000 -0.32376
       5     C     3.15709  3.15709  0.00000 -0.31418
       6     H     0.43708  0.43708  0.00000  0.12584
       7     H     0.44835  0.44835  0.00000  0.10331
       8     H     0.44757  0.44757  0.00000  0.10486
       9     H     0.44179  0.44179  0.00000  0.11643
      10     H     0.45256  0.45256  0.00000  0.09488
      11     H     0.44908  0.44908  0.00000  0.10183
      12     H     0.43233  0.43233  0.00000  0.13534
      13     H     0.44738  0.44738  0.00000  0.10524

   Total alpha = 20.00000, Total beta = 20.00000, Total charge = -0.00000

*** Psi4 exiting successfully. Buy a developer a beer!
