  ==> Input File <==

--------------------------------------------------------------------------
set {
	reference rhf
	basis 6-31G*
}

set_num_threads( 4 )
memory 2 gb

molecule MOL {
0 1

O	 3.225979	 0.970355	 -0.599647
C	 2.701189	 0.057885	 -0.047330
C	 1.245376	 -0.013843	 0.345420
O	 3.347903	 -1.046386	 0.304773
C	 0.455112	 1.231400	 -0.050772
H	 0.838542	 -0.913825	 -0.103701
H	 1.208210	 -0.175333	 1.419774
C	 -0.998893	 1.219485	 0.433193
H	 0.482531	 1.345121	 -1.130325
H	 0.957290	 2.103070	 0.354729
C	 -1.572147	 -0.171231	 0.720248
H	 -1.611179	 1.697202	 -0.328133
H	 -1.089348	 1.838383	 1.324704
C	 -3.055604	 -0.137853	 1.093397
H	 -1.436199	 -0.802161	 -0.156829
H	 -1.017884	 -0.645789	 1.526820
C	 -3.637908	 -1.521526	 1.387510
H	 -3.619646	 0.323995	 0.284825
H	 -3.193643	 0.501510	 1.963949
C	 -5.120637	 -1.479811	 1.755579
H	 -3.499910	 -2.162019	 0.518968
H	 -3.078180	 -1.982992	 2.198396
H	 -5.504182	 -2.475000	 1.958311
H	 -5.712754	 -1.055055	 0.949865
H	 -5.287736	 -0.874133	 2.641866
C	 4.728119	 -1.109107	 -0.004993
H	 4.882018	 -1.033965	 -1.071845
H	 5.068212	 -2.067527	 0.355250
H	 5.265056	 -0.311663	 0.488280

	symmetry c1
}
set optking {
	frozen_dihedral = ("
		11 8 5 9
	")
}

ee = optimize('scf')
oeprop('DIPOLE', 'QUADRUPOLE', 'MULLIKEN_CHARGES')
f=open( 'psi4out.xyz', 'w' )
f.write( "29  " )
f.write( str(ee) + "\n" )
f.write( MOL.save_string_xyz() )
f.close()
--------------------------------------------------------------------------

    Molecular point group: c1
  Charge       = 0
  Multiplicity = 1
  Basis Set: 6-31G*
  Basis Set:
  @DF-RHF Final Energy:  -501.03683262108621
    Total Energy =                       -501.0368326210866599
    Molecular point group: c1
  Basis Set: 6-31G*
  Basis Set:
  Basis Set: 6-31G*
  Basis Set:
  @DF-RHF Final Energy:  -501.03735777456927
    Total Energy =                       -501.0373577745685907
  Basis Set: 6-31G*
  Basis Set:
  Basis Set: 6-31G*
  Basis Set:
  @DF-RHF Final Energy:  -501.03827407643348
    Total Energy =                       -501.0382740764338223
  Basis Set: 6-31G*
  Basis Set:
  Basis Set: 6-31G*
  Basis Set:
  @DF-RHF Final Energy:  -501.03744980000704
    Total Energy =                       -501.0374498000070389
  Basis Set: 6-31G*
  Basis Set:
  Basis Set: 6-31G*
  Basis Set:
  @DF-RHF Final Energy:  -501.03832529453757
    Total Energy =                       -501.0383252945377990
  Basis Set: 6-31G*
  Basis Set:
  Basis Set: 6-31G*
  Basis Set:
  @DF-RHF Final Energy:  -501.03833045871465
    Total Energy =                       -501.0383304587148814
  Basis Set: 6-31G*
  Basis Set:
  Basis Set: 6-31G*
  Basis Set:
  @DF-RHF Final Energy:  -501.03833940624952
    Total Energy =                       -501.0383394062492926
  Basis Set: 6-31G*
  Basis Set:
  Charge       = 0
  Multiplicity = 1
  Basis Set: 6-31G*
  Basis Set:

    Orbital Energies (a.u.)
    -----------------------

    Doubly Occupied:

       1A    -20.603316     2A    -20.545248     3A    -11.372030
       4A    -11.280646     5A    -11.235204     6A    -11.218755
       7A    -11.217683     8A    -11.216655     9A    -11.216150
      10A    -11.214674    11A    -11.209274    12A     -1.469082
      13A     -1.362537    14A     -1.096691    15A     -1.066203
      16A     -1.018748    17A     -0.976998    18A     -0.928832
      19A     -0.864633    20A     -0.798974    21A     -0.791075
      22A     -0.759780    23A     -0.699557    24A     -0.683021
      25A     -0.671106    26A     -0.655724    27A     -0.628246
      28A     -0.603179    29A     -0.591887    30A     -0.580163
      31A     -0.567168    32A     -0.552338    33A     -0.531278
      34A     -0.526126    35A     -0.519953    36A     -0.512718
      37A     -0.498635    38A     -0.480445    39A     -0.467356
      40A     -0.461043    41A     -0.457754    42A     -0.450928
      43A     -0.439553    44A     -0.437094

  @DF-RHF Final Energy:  -501.03833945298823

   => Energetics <=

    Nuclear Repulsion Energy =            612.1462970337823890
    One-Electron Energy =               -1895.4123520373054816
    Two-Electron Energy =                 782.2277155505348674
    DFT Exchange-Correlation Energy =       0.0000000000000000
    Empirical Dispersion Energy =           0.0000000000000000
    PCM Polarization Energy =               0.0000000000000000
    EFP Energy =                            0.0000000000000000
    Total Energy =                       -501.0383394529881116
    Molecular point group: c1
  Basis Set: 6-31G*
  Basis Set:

  -Total Gradient:
     Atom            X                  Y                   Z
    ------   -----------------  -----------------  -----------------
       1        0.000018004674    -0.000008974919     0.000011998486
       2       -0.000018631861     0.000002311081    -0.000017210050
       3       -0.000006441810     0.000006538872    -0.000015344766
       4        0.000003470407     0.000015835269    -0.000008836576
       5        0.000390202980    -0.007302602309     0.000957261662
       6       -0.000003433877    -0.000000242198     0.000004702709
       7       -0.000007714743     0.000006319447     0.000002483907
       8       -0.001913352483     0.001152691341    -0.005978396467
       9        0.000189402937     0.005938415739     0.000772264420
      10        0.000000407118    -0.000003952409    -0.000002916900
      11        0.001352955462     0.000201504537     0.004273478161
      12       -0.000003882581     0.000000248955     0.000003054350
      13       -0.000006700234    -0.000007516542     0.000004307543
      14       -0.000001877291     0.000004279814    -0.000008312342
      15        0.000006956721     0.000005160536    -0.000001829671
      16       -0.000001347021    -0.000000632932     0.000000443855
      17       -0.000001702634     0.000003087060    -0.000001422342
      18       -0.000000694104    -0.000001334480    -0.000002359079
      19       -0.000004632452     0.000000785782    -0.000003607519
      20       -0.000000137019    -0.000004421297     0.000007056836
      21       -0.000004268640     0.000001021107    -0.000000356450
      22        0.000001325570    -0.000001995513    -0.000002873540
      23       -0.000002888822    -0.000000290587     0.000002442795
      24        0.000002948386    -0.000001037984     0.000000343289
      25       -0.000000931373     0.000000541337    -0.000000205587
      26        0.000007046802    -0.000004958771     0.000007229988
      27       -0.000000854865     0.000000154300    -0.000000130997
      28        0.000005610075     0.000000091746    -0.000002095486
      29        0.000001160672    -0.000001026982    -0.000001170228

  **** Optimization is complete! (in 8 steps) ****
    Final optimized geometry and variables:
    Molecular point group: c1

    Geometry (in Angstrom), charge = 0, multiplicity = 1:

    O            3.061108537931     1.182704770520    -1.127813284669
    C            2.592683999778     0.265771083147    -0.533882723670
    C            1.152240135761     0.138335945733    -0.098831535447
    O            3.298351545822    -0.796397856137    -0.165478114246
    C            0.303847608929     1.336883289881    -0.512875206633
    H            0.776257100332    -0.792200955607    -0.510263609252
    H            1.155526267783     0.006599906006     0.979490593537
    C           -1.170434532171     1.319853374253    -0.045889809148
    H            0.353350875480     1.475057312030    -1.587639676883
    H            0.773808240629     2.230290649225    -0.115043980496
    C           -1.800388776875    -0.052808617228     0.214564176327
    H           -1.769173434679     1.855175501174    -0.777069812582
    H           -1.248582998043     1.892283710040     0.876012555200
    C           -3.273450003026     0.048862588518     0.615975503738
    H           -1.718287839826    -0.676758768874    -0.674345922531
    H           -1.255359658281    -0.567119679077     1.001673205333
    C           -3.918651751704    -1.308579039826     0.901199179299
    H           -3.828617003587     0.550663476307    -0.174669138487
    H           -3.363237164526     0.680720407126     1.498228928294
    C           -5.389392819109    -1.198429676481     1.301891311068
    H           -3.831527407774    -1.940964951486     0.020200556859
    H           -3.366252095183    -1.810842909984     1.692626161760
    H           -5.818486009024    -2.176271541179     1.497644564792
    H           -5.975923448600    -0.731295997470     0.515787411948
    H           -5.507091475425    -0.599700050774     2.200725433367
    C            4.671493918943    -0.806869622528    -0.510730249273
    H            4.794144599316    -0.759077896178    -1.583199710036
    H            5.064341246654    -1.737004366551    -0.130564852865
    H            5.183939064461     0.029299954639    -0.057117229707

  Mulliken Charges: (a.u.)
   Center  Symbol    Alpha    Beta     Spin     Total
       1     O     4.28585  4.28585  0.00000 -0.57169
       2     C     2.60410  2.60410  0.00000  0.79181
       3     C     3.21123  3.21123  0.00000 -0.42246
       4     O     4.30775  4.30775  0.00000 -0.61550
       5     C     3.15725  3.15725  0.00000 -0.31450
       6     H     0.39826  0.39826  0.00000  0.20348
       7     H     0.40050  0.40050  0.00000  0.19900
       8     C     3.15554  3.15554  0.00000 -0.31108
       9     H     0.41052  0.41052  0.00000  0.17896
      10     H     0.40948  0.40948  0.00000  0.18104
      11     C     3.15767  3.15767  0.00000 -0.31534
      12     H     0.41786  0.41786  0.00000  0.16427
      13     H     0.42178  0.42178  0.00000  0.15643
      14     C     3.15017  3.15017  0.00000 -0.30033
      15     H     0.42376  0.42376  0.00000  0.15247
      16     H     0.42257  0.42257  0.00000  0.15487
      17     C     3.15137  3.15137  0.00000 -0.30273
      18     H     0.42326  0.42326  0.00000  0.15347
      19     H     0.42372  0.42372  0.00000  0.15256
      20     C     3.23934  3.23934  0.00000 -0.47869
      21     H     0.42309  0.42309  0.00000  0.15383
      22     H     0.42334  0.42334  0.00000  0.15331
      23     H     0.41923  0.41923  0.00000  0.16154
      24     H     0.42156  0.42156  0.00000  0.15688
      25     H     0.42170  0.42170  0.00000  0.15660
      26     C     3.09236  3.09236  0.00000 -0.18472
      27     H     0.40909  0.40909  0.00000  0.18181
      28     H     0.40850  0.40850  0.00000  0.18301
      29     H     0.40915  0.40915  0.00000  0.18171

   Total alpha = 44.00000, Total beta = 44.00000, Total charge =  0.00000
