  ==> Input File <==

--------------------------------------------------------------------------
set {
	reference rhf
	basis 6-31G*
}

set_num_threads( 4 )
memory 2 gb

molecule MOL {
0 1

H	 -2.698709	 -0.000305	 0.034435
C	 -1.693833	 0.000034	 0.434417
O	 -0.828952	 -0.000968	 -0.659236
H	 -1.574200	 0.882896	 1.055746
H	 -1.574147	 -0.881698	 1.057355
C	 0.559449	 -0.000018	 -0.420814
C	 1.039437	 -1.287038	 0.247098
C	 1.367910	 0.341739	 -1.670835
H	 0.687006	 0.809257	 0.288294
H	 0.412286	 -1.524994	 1.099511
H	 2.059261	 -1.164854	 0.598191
H	 1.028124	 -2.132334	 -0.433718
H	 0.967687	 1.230669	 -2.146314
H	 2.401863	 0.535296	 -1.402614
H	 1.364965	 -0.465920	 -2.395762

	symmetry c1
}
set optking {
	frozen_dihedral = ("
		9 6 3 2
	")
}

ee = optimize('scf')
oeprop('DIPOLE', 'QUADRUPOLE', 'MULLIKEN_CHARGES')
f=open( 'psi4out.xyz', 'w' )
f.write( "15  " )
f.write( str(ee) + "\n" )
f.write( MOL.save_string_xyz() )
f.close()
--------------------------------------------------------------------------

    Molecular point group: c1
  Charge       = 0
  Multiplicity = 1
  Basis Set: 6-31G*
  Basis Set:
  @DF-RHF Final Energy:  -232.13642644667539
    Total Energy =                       -232.1364264466753866
    Molecular point group: c1
  Basis Set: 6-31G*
  Basis Set:
  Basis Set: 6-31G*
  Basis Set:
  @DF-RHF Final Energy:  -232.14047773695864
    Total Energy =                       -232.1404777369585304
  Basis Set: 6-31G*
  Basis Set:
  Basis Set: 6-31G*
  Basis Set:
  @DF-RHF Final Energy:  -232.14136685935318
    Total Energy =                       -232.1413668593531838
  Basis Set: 6-31G*
  Basis Set:
  Basis Set: 6-31G*
  Basis Set:
  @DF-RHF Final Energy:  -232.14139515530096
    Total Energy =                       -232.1413951553008701
  Basis Set: 6-31G*
  Basis Set:
  Basis Set: 6-31G*
  Basis Set:
  @DF-RHF Final Energy:  -232.14140627636758
    Total Energy =                       -232.1414062763676043
  Basis Set: 6-31G*
  Basis Set:
  Charge       = 0
  Multiplicity = 1
  Basis Set: 6-31G*
  Basis Set:

    Orbital Energies (a.u.)
    -----------------------

    Doubly Occupied:

       1A    -20.550543     2A    -11.274464     3A    -11.262873
       4A    -11.209629     5A    -11.205832     6A     -1.374872
       7A     -1.052367     8A     -0.942587     9A     -0.914821
      10A     -0.792228    11A     -0.673349    12A     -0.638259
      13A     -0.636136    14A     -0.589825    15A     -0.550371
      16A     -0.541697    17A     -0.528063    18A     -0.497700
      19A     -0.491214    20A     -0.453394    21A     -0.408695

  @DF-RHF Final Energy:  -232.14140668168253

   => Energetics <=

    Nuclear Repulsion Energy =            197.5147012771668358
    One-Electron Energy =                -706.1343800640578365
    Two-Electron Energy =                 276.4782721052084753
    DFT Exchange-Correlation Energy =       0.0000000000000000
    Empirical Dispersion Energy =           0.0000000000000000
    PCM Polarization Energy =               0.0000000000000000
    EFP Energy =                            0.0000000000000000
    Total Energy =                       -232.1414066816824970
    Molecular point group: c1
  Basis Set: 6-31G*
  Basis Set:

  -Total Gradient:
     Atom            X                  Y                   Z
    ------   -----------------  -----------------  -----------------
       1       -0.000017330081    -0.000001132430     0.000015113655
       2       -0.000029629062    -0.000512314701     0.000003569789
       3        0.000004254999     0.000853795151    -0.000131071854
       4        0.000013108332    -0.000005734851     0.000000035048
       5        0.000034404066    -0.000006697564    -0.000014505622
       6       -0.000149752749    -0.000760321812     0.000574475275
       7        0.000019683678     0.000005664267     0.000050659459
       8        0.000052998687     0.000049741816    -0.000019409711
       9        0.000131029842     0.000387173470    -0.000491819282
      10       -0.000007912025    -0.000022319475     0.000023632630
      11       -0.000013966094    -0.000008832853     0.000011141768
      12       -0.000005168843     0.000024468171    -0.000018602917
      13        0.000003678658     0.000001193682    -0.000016664561
      14       -0.000018086698     0.000001450088    -0.000009773783
      15       -0.000017312707    -0.000006132957     0.000023220109

  **** Optimization is complete! (in 6 steps) ****
    Final optimized geometry and variables:
    Molecular point group: c1

    Geometry (in Angstrom), charge = 0, multiplicity = 1:

    H           -2.760438658253     0.269182003012     0.327031851374
    C           -1.773471819140     0.160626113424     0.756259458295
    O           -0.863448193288     0.156868256031    -0.297764106082
    H           -1.594423297212     0.993610506237     1.434110412305
    H           -1.747429125017    -0.762083345031     1.328851678300
    C            0.497592368665     0.224839717877     0.046339867699
    C            0.994559536069    -1.066745292853     0.691249580966
    C            1.246937220170     0.538021527072    -1.239638256653
    H            0.641741940464     1.049791444410     0.745046078201
    H            0.498046469410    -1.269368840837     1.633837938992
    H            2.059747338374    -1.003509448006     0.890417180794
    H            0.818632164377    -1.906905295922     0.026926934717
    H            0.871533983086     1.455142398082    -1.678456973184
    H            2.309470265920     0.653148593033    -1.050339741869
    H            1.109228501506    -0.262873391230    -1.958535576807

  Mulliken Charges: (a.u.)
   Center  Symbol    Alpha    Beta     Spin     Total
       1     H     0.41243  0.41243  0.00000  0.17513
       2     C     3.07943  3.07943  0.00000 -0.15886
       3     O     4.30930  4.30930  0.00000 -0.61860
       4     H     0.43158  0.43158  0.00000  0.13684
       5     H     0.42865  0.42865  0.00000  0.14269
       6     C     2.91211  2.91211  0.00000  0.17577
       7     C     3.25017  3.25017  0.00000 -0.50033
       8     C     3.23943  3.23943  0.00000 -0.47885
       9     H     0.43152  0.43152  0.00000  0.13696
      10     H     0.41870  0.41870  0.00000  0.16261
      11     H     0.42034  0.42034  0.00000  0.15933
      12     H     0.41467  0.41467  0.00000  0.17066
      13     H     0.41264  0.41264  0.00000  0.17471
      14     H     0.42363  0.42363  0.00000  0.15274
      15     H     0.41540  0.41540  0.00000  0.16920

   Total alpha = 21.00000, Total beta = 21.00000, Total charge = -0.00000
