  ==> Input File <==

--------------------------------------------------------------------------
set {
	reference rhf
	basis 6-31G*
}

set_num_threads( 1 )
memory 2 gb

molecule MOL {
0 1

H	 2.591676	 2.013956	 0.335017
O	 3.341076	 1.666752	 -0.126416
C	 3.569581	 0.339145	 0.272707
C	 2.539767	 -0.640285	 -0.279495
H	 4.553106	 0.084646	 -0.100901
H	 3.608576	 0.269204	 1.359154
C	 1.115811	 -0.397273	 0.226630
H	 2.556196	 -0.582511	 -1.364741
H	 2.852081	 -1.648031	 -0.010655
C	 1.050547	 -0.220042	 1.746218
H	 0.484701	 -1.230784	 -0.068878
H	 0.707281	 0.491538	 -0.254472
C	 -0.341463	 0.111061	 2.296691
H	 1.422846	 -1.122240	 2.228172
H	 1.732261	 0.578593	 2.031085
C	 -1.376224	 -1.007676	 2.147775
H	 -0.242527	 0.353390	 3.352771
H	 -0.713645	 1.013335	 1.813764
C	 -2.716640	 -0.671184	 2.804658
H	 -0.981524	 -1.922610	 2.587340
H	 -1.545319	 -1.223475	 1.095568
C	 -3.753398	 -1.783599	 2.651920
H	 -2.558553	 -0.468360	 3.861710
H	 -3.107886	 0.248027	 2.373539
H	 -3.405051	 -2.708733	 3.102482
H	 -4.691105	 -1.516160	 3.129223
H	 -3.961388	 -1.985196	 1.604799

	symmetry c1
}
set optking {
	frozen_dihedral = ("
		14 10 7 4,
		14 10 13 16,
		8 4 3 2,
		10 13 16 20,
		20 16 19 22,
		4 3 2 1
	")
}

ee = energy('scf')
oeprop('DIPOLE', 'QUADRUPOLE', 'MULLIKEN_CHARGES')
f=open( 'psi4out.xyz', 'w' )
f.write( "27  " )
f.write( str(ee) + "\n" )
f.write( MOL.save_string_xyz() )
f.close()
--------------------------------------------------------------------------

    Molecular point group: c1

    Geometry (in Angstrom), charge = 0, multiplicity = 1:

       Center              X                  Y                   Z               Mass
    ------------   -----------------  -----------------  -----------------  -----------------
           H          2.178321075935     2.275277685147    -0.953407240509     1.007825032070
           O          2.927721075935     1.928073685147    -1.414840240509    15.994914619560
           C          3.156226075935     0.600466685147    -1.015717240509    12.000000000000
           C          2.126412075935    -0.378963314853    -1.567919240509    12.000000000000
           H          4.139751075935     0.345967685147    -1.389325240509     1.007825032070
           H          3.195221075935     0.530525685147     0.070729759491     1.007825032070
           C          0.702456075935    -0.135951314853    -1.061794240509    12.000000000000
           H          2.142841075935    -0.321189314853    -2.653165240509     1.007825032070
           H          2.438726075935    -1.386709314853    -1.299079240509     1.007825032070
           C          0.637192075935     0.041279685147     0.457793759491    12.000000000000
           H          0.071346075935    -0.969462314853    -1.357302240509     1.007825032070
           H          0.293926075935     0.752859685147    -1.542896240509     1.007825032070
           C         -0.754817924065     0.372382685147     1.008266759491    12.000000000000
           H          1.009491075935    -0.860918314853     0.939747759491     1.007825032070
           H          1.318906075935     0.839914685147     0.742660759491     1.007825032070
           C         -1.789578924065    -0.746354314853     0.859350759491    12.000000000000
           H         -0.655881924065     0.614711685147     2.064346759491     1.007825032070
           H         -1.126999924065     1.274656685147     0.525339759491     1.007825032070
           C         -3.129994924065    -0.409862314853     1.516233759491    12.000000000000
           H         -1.394878924065    -1.661288314853     1.298915759491     1.007825032070
           H         -1.958673924065    -0.962153314853    -0.192856240509     1.007825032070
           C         -4.166752924065    -1.522277314853     1.363495759491    12.000000000000
           H         -2.971907924065    -0.207038314853     2.573285759491     1.007825032070
           H         -3.521240924065     0.509348685147     1.085114759491     1.007825032070
           H         -3.818405924065    -2.447411314853     1.814057759491     1.007825032070
           H         -5.104459924065    -1.254838314853     1.840798759491     1.007825032070
           H         -4.374742924065    -1.723874314853     0.316374759491     1.007825032070

  Charge       = 0
  Multiplicity = 1
  Basis Set: 6-31G*
  Basis Set:

    Orbital Energies (a.u.)
    -----------------------

    Doubly Occupied:

       1A    -20.552288     2A    -11.264982     3A    -11.220962
       4A    -11.219193     5A    -11.218661     6A    -11.217331
       7A    -11.215960     8A    -11.214900     9A    -11.210309
      10A     -1.358995    11A     -1.098242    12A     -1.063188
      13A     -1.011089    14A     -0.946481    15A     -0.894307
      16A     -0.829240    17A     -0.798951    18A     -0.772758
      19A     -0.694773    20A     -0.651247    21A     -0.645383
      22A     -0.610752    23A     -0.601072    24A     -0.586085
      25A     -0.572443    26A     -0.566419    27A     -0.544100
      28A     -0.527459    29A     -0.512201    30A     -0.498238
      31A     -0.485582    32A     -0.473610    33A     -0.465853
      34A     -0.462229    35A     -0.453518    36A     -0.443143
      37A     -0.421610

  @DF-RHF Final Energy:  -388.27726499771251

   => Energetics <=

    Nuclear Repulsion Energy =            466.2253258014386006
    One-Electron Energy =               -1450.3581317358316483
    Two-Electron Energy =                 595.8555409366799722
    DFT Exchange-Correlation Energy =       0.0000000000000000
    Empirical Dispersion Energy =           0.0000000000000000
    PCM Polarization Energy =               0.0000000000000000
    EFP Energy =                            0.0000000000000000
    Total Energy =                       -388.2772649977130186

  Mulliken Charges: (a.u.)
   Center  Symbol    Alpha    Beta     Spin     Total
       1     H     0.27942  0.27942  0.00000  0.44116
       2     O     4.37230  4.37230  0.00000 -0.74460
       3     C     3.00406  3.00406  0.00000 -0.00811
       4     C     3.16105  3.16105  0.00000 -0.32211
       5     H     0.41384  0.41384  0.00000  0.17231
       6     H     0.42726  0.42726  0.00000  0.14549
       7     C     3.16499  3.16499  0.00000 -0.32998
       8     H     0.41296  0.41296  0.00000  0.17408
       9     H     0.42418  0.42418  0.00000  0.15163
      10     C     3.16039  3.16039  0.00000 -0.32079
      11     H     0.41473  0.41473  0.00000  0.17055
      12     H     0.42245  0.42245  0.00000  0.15510
      13     C     3.15116  3.15116  0.00000 -0.30232
      14     H     0.42140  0.42140  0.00000  0.15719
      15     H     0.42611  0.42611  0.00000  0.14778
      16     C     3.15318  3.15318  0.00000 -0.30636
      17     H     0.42116  0.42116  0.00000  0.15768
      18     H     0.42475  0.42475  0.00000  0.15049
      19     C     3.15138  3.15138  0.00000 -0.30276
      20     H     0.42421  0.42421  0.00000  0.15159
      21     H     0.42156  0.42156  0.00000  0.15688
      22     C     3.23932  3.23932  0.00000 -0.47863
      23     H     0.42295  0.42295  0.00000  0.15410
      24     H     0.42282  0.42282  0.00000  0.15437
      25     H     0.42172  0.42172  0.00000  0.15657
      26     H     0.41897  0.41897  0.00000  0.16205
      27     H     0.42168  0.42168  0.00000  0.15664

   Total alpha = 37.00000, Total beta = 37.00000, Total charge = -0.00000
