  ==> Input File <==

--------------------------------------------------------------------------
set {
	reference rhf
	basis 6-31G*
}

set_num_threads( 4 )
memory 2 gb

molecule MOL {
0 1

H	 -2.273092	 1.173159	 0.000295
O	 -1.438904	 1.618192	 0.000114
C	 -0.409536	 0.736003	 0.000030
C	 0.465426	 0.801649	 -1.072971
C	 -0.226216	 -0.195837	 1.019348
H	 0.287272	 1.535217	 -1.837254
C	 1.538643	 -0.066131	 -1.141341
C	 0.861217	 -1.055787	 0.924673
C	 -1.182063	 -0.265961	 2.189155
H	 2.213844	 -0.010056	 -1.976477
C	 1.742930	 -1.002073	 -0.140213
H	 1.016715	 -1.781487	 1.704111
H	 -2.198249	 -0.490075	 1.871223
H	 -0.885065	 -1.045089	 2.879609
H	 -1.207780	 0.666213	 2.749857
H	 2.575533	 -1.680155	 -0.186874

	symmetry c1
}
set optking {
	frozen_dihedral = ("
		4 3 2 1
	")
}

ee = optimize('scf')
oeprop('DIPOLE', 'QUADRUPOLE', 'MULLIKEN_CHARGES')
f=open( 'psi4out.xyz', 'w' )
f.write( "16  " )
f.write( str(ee) + "\n" )
f.write( MOL.save_string_xyz() )
f.close()
--------------------------------------------------------------------------

    Molecular point group: c1
  Charge       = 0
  Multiplicity = 1
  Basis Set: 6-31G*
  Basis Set:
  @DF-RHF Final Energy:  -344.59099193962152
    Total Energy =                       -344.5909919396215741
    Molecular point group: c1
  Basis Set: 6-31G*
  Basis Set:
  Basis Set: 6-31G*
  Basis Set:
  @DF-RHF Final Energy:  -344.59156004853293
    Total Energy =                       -344.5915600485330970
  Basis Set: 6-31G*
  Basis Set:
  Basis Set: 6-31G*
  Basis Set:
  @DF-RHF Final Energy:  -344.59163313815583
    Total Energy =                       -344.5916331381559417
  Basis Set: 6-31G*
  Basis Set:
  Basis Set: 6-31G*
  Basis Set:
  @DF-RHF Final Energy:  -344.59164956518663
    Total Energy =                       -344.5916495651866285
  Basis Set: 6-31G*
  Basis Set:
  Basis Set: 6-31G*
  Basis Set:
  @DF-RHF Final Energy:  -344.59165231385680
    Total Energy =                       -344.5916523138567982
  Basis Set: 6-31G*
  Basis Set:
  Charge       = 0
  Multiplicity = 1
  Basis Set: 6-31G*
  Basis Set:

    Orbital Energies (a.u.)
    -----------------------

    Doubly Occupied:

       1A    -20.578491     2A    -11.285049     3A    -11.235200
       4A    -11.229419     5A    -11.229152     6A    -11.224931
       7A    -11.224216     8A    -11.222811     9A     -1.393606
      10A     -1.148680    11A     -1.045937    12A     -1.003390
      13A     -0.935859    14A     -0.825283    15A     -0.810765
      16A     -0.725706    17A     -0.670627    18A     -0.648950
      19A     -0.620642    20A     -0.592122    21A     -0.571639
      22A     -0.568794    23A     -0.548088    24A     -0.523046
      25A     -0.500621    26A     -0.482884    27A     -0.464964
      28A     -0.328618    29A     -0.315093

  @DF-RHF Final Energy:  -344.59165264044452

   => Energetics <=

    Nuclear Repulsion Energy =            349.8173634849562177
    One-Electron Energy =               -1160.9088638872797219
    Two-Electron Energy =                 466.4998477618791526
    DFT Exchange-Correlation Energy =       0.0000000000000000
    Empirical Dispersion Energy =           0.0000000000000000
    PCM Polarization Energy =               0.0000000000000000
    EFP Energy =                            0.0000000000000000
    Total Energy =                       -344.5916526404443516
    Molecular point group: c1
  Basis Set: 6-31G*
  Basis Set:

  -Total Gradient:
     Atom            X                  Y                   Z
    ------   -----------------  -----------------  -----------------
       1       -0.000021063122     0.000070236905    -0.001530140673
       2       -0.000303843732    -0.000400750582     0.001628980692
       3        0.000991278282     0.001019954590     0.000459159370
       4       -0.000691386056    -0.000645681794    -0.000580705220
       5        0.000010776164    -0.000022869174     0.000027383936
       6        0.000000798583    -0.000011483268     0.000008427240
       7        0.000029132588    -0.000047970765     0.000020992510
       8       -0.000057857792     0.000050011083     0.000034718683
       9       -0.000007653854    -0.000006894567    -0.000032961417
      10        0.000005355783    -0.000000281420    -0.000006283071
      11        0.000025489067     0.000009230052    -0.000053138703
      12        0.000002290316    -0.000007905421     0.000005973801
      13        0.000008251923     0.000004534013    -0.000005243820
      14        0.000005975136    -0.000005366937     0.000018720725
      15        0.000010639890    -0.000005861939     0.000000300928
      16       -0.000008183172     0.000001099224     0.000003815019

  **** Optimization is complete! (in 6 steps) ****
    Final optimized geometry and variables:
    Molecular point group: c1

    Geometry (in Angstrom), charge = 0, multiplicity = 1:

    H           -2.359810802398     1.077529896856    -0.196715288454
    O           -1.525270123086     1.526895284896    -0.193808940573
    C           -0.495967916445     0.625587320914    -0.250602607417
    C            0.377014541471     0.696938582188    -1.320174079540
    C           -0.320358571358    -0.313036470344     0.763702865528
    H            0.204081305931     1.438464727271    -2.078146170302
    C            1.453428682759    -0.172197343123    -1.393279874693
    C            0.758571321793    -1.180731608160     0.664465949888
    C           -1.279990677602    -0.368272066114     1.927994715461
    H            2.133658446048    -0.112108302033    -2.223914514672
    C            1.643584825896    -1.116964243631    -0.400714332938
    H            0.912464821137    -1.913230213807     1.437723951008
    H           -2.269762433121    -0.699053461306     1.619409573910
    H           -0.930130253463    -1.060940036748     2.683745899759
    H           -1.393971088260     0.607903361952     2.386279064926
    H            2.474267465775    -1.797772378872    -0.450007580487

  Mulliken Charges: (a.u.)
   Center  Symbol    Alpha    Beta     Spin     Total
       1     H     0.27177  0.27177  0.00000  0.45645
       2     O     4.38624  4.38624  0.00000 -0.77248
       3     C     2.83172  2.83172  0.00000  0.33655
       4     C     3.11323  3.11323  0.00000 -0.22646
       5     C     3.00065  3.00065  0.00000 -0.00130
       6     H     0.39282  0.39282  0.00000  0.21436
       7     C     3.10061  3.10061  0.00000 -0.20123
       8     C     3.11174  3.11174  0.00000 -0.22347
       9     C     3.25449  3.25449  0.00000 -0.50897
      10     H     0.39893  0.39893  0.00000  0.20215
      11     C     3.10230  3.10230  0.00000 -0.20459
      12     H     0.40116  0.40116  0.00000  0.19768
      13     H     0.42007  0.42007  0.00000  0.15986
      14     H     0.41145  0.41145  0.00000  0.17710
      15     H     0.40252  0.40252  0.00000  0.19495
      16     H     0.40030  0.40030  0.00000  0.19941

   Total alpha = 29.00000, Total beta = 29.00000, Total charge =  0.00000
