  ==> Input File <==

--------------------------------------------------------------------------
set {
	reference rhf
	basis 6-31G*
}

set_num_threads( 4 )
memory 2 gb

molecule MOL {
0 1

O	 -2.821601	 1.309235	 -0.001213
C	 -2.668563	 0.129746	 -0.000350
C	 -3.801572	 -0.864014	 -0.000442
O	 -1.481751	 -0.454642	 0.000584
H	 -4.417280	 -0.689587	 -0.874708
H	 -3.443784	 -1.883046	 -0.000565
H	 -4.417179	 -0.689832	 0.873954
C	 -0.334255	 0.388708	 0.000906
C	 0.891947	 -0.504646	 0.000751
H	 -0.365390	 1.025305	 -0.873475
H	 -0.365484	 1.024911	 0.875569
C	 2.191998	 0.301789	 0.000897
H	 0.855148	 -1.151283	 -0.871571
H	 0.855132	 -1.151660	 0.872805
C	 3.441114	 -0.581407	 0.000108
H	 2.215074	 0.954890	 -0.869742
H	 2.215465	 0.953923	 0.872248
C	 3.572120	 -1.425907	 -1.266590
H	 3.419693	 -1.234708	 0.869484
H	 4.323767	 0.044613	 0.110073
H	 2.719215	 -2.087833	 -1.386677
H	 4.466195	 -2.040742	 -1.237543
H	 3.630425	 -0.798917	 -2.151742

	symmetry c1
}
set optking {
	frozen_dihedral = ("
		19 15 12 16
	")
}

ee = optimize('scf')
oeprop('DIPOLE', 'QUADRUPOLE', 'MULLIKEN_CHARGES')
f=open( 'psi4out.xyz', 'w' )
f.write( "23  " )
f.write( str(ee) + "\n" )
f.write( MOL.save_string_xyz() )
f.close()
--------------------------------------------------------------------------

    Molecular point group: c1
  Charge       = 0
  Multiplicity = 1
  Basis Set: 6-31G*
  Basis Set:
  @DF-RHF Final Energy:  -422.97736339922346
    Total Energy =                       -422.9773633992234636
    Molecular point group: c1
  Basis Set: 6-31G*
  Basis Set:
  Basis Set: 6-31G*
  Basis Set:
  @DF-RHF Final Energy:  -422.97762376166048
    Total Energy =                       -422.9776237616601975
  Basis Set: 6-31G*
  Basis Set:
  Basis Set: 6-31G*
  Basis Set:
  @DF-RHF Final Energy:  -422.97797019312662
    Total Energy =                       -422.9779701931261116
  Basis Set: 6-31G*
  Basis Set:
  Basis Set: 6-31G*
  Basis Set:
  @DF-RHF Final Energy:  -422.97793066904632
    Total Energy =                       -422.9779306690460317
  Basis Set: 6-31G*
  Basis Set:
  @DF-RHF Final Energy:  -422.97796498237625
    Total Energy =                       -422.9779649823759655
  Basis Set: 6-31G*
  Basis Set:
  @DF-RHF Final Energy:  -422.97798238639336
    Total Energy =                       -422.9779823863940464
  Basis Set: 6-31G*
  Basis Set:
  Basis Set: 6-31G*
  Basis Set:
  @DF-RHF Final Energy:  -422.97798704211726
    Total Energy =                       -422.9779870421168653
  Basis Set: 6-31G*
  Basis Set:
  Basis Set: 6-31G*
  Basis Set:
  @DF-RHF Final Energy:  -422.97798917227271
    Total Energy =                       -422.9779891722724869
  Basis Set: 6-31G*
  Basis Set:
  Charge       = 0
  Multiplicity = 1
  Basis Set: 6-31G*
  Basis Set:

    Orbital Energies (a.u.)
    -----------------------

    Doubly Occupied:

       1A    -20.602996     2A    -20.540534     3A    -11.374089
       4A    -11.281494     5A    -11.232400     6A    -11.224453
       7A    -11.223668     8A    -11.222036     9A    -11.213000
      10A     -1.467953    11A     -1.360738    12A     -1.094124
      13A     -1.041133    14A     -1.001961    15A     -0.931189
      16A     -0.853620    17A     -0.793389    18A     -0.771653
      19A     -0.691340    20A     -0.685091    21A     -0.669804
      22A     -0.635436    23A     -0.616764    24A     -0.599386
      25A     -0.576170    26A     -0.571539    27A     -0.547001
      28A     -0.537564    29A     -0.525605    30A     -0.507837
      31A     -0.497107    32A     -0.472160    33A     -0.466980
      34A     -0.466419    35A     -0.451218    36A     -0.435320

  @DF-RHF Final Energy:  -422.97798935214564

   => Energetics <=

    Nuclear Repulsion Energy =            454.0056172543570483
    One-Electron Energy =               -1475.6008739793028326
    Two-Electron Energy =                 598.6172673728002565
    DFT Exchange-Correlation Energy =       0.0000000000000000
    Empirical Dispersion Energy =           0.0000000000000000
    PCM Polarization Energy =               0.0000000000000000
    EFP Energy =                            0.0000000000000000
    Total Energy =                       -422.9779893521455278
    Molecular point group: c1
  Basis Set: 6-31G*
  Basis Set:

  -Total Gradient:
     Atom            X                  Y                   Z
    ------   -----------------  -----------------  -----------------
       1        0.000001025872    -0.000000765463     0.000003666781
       2       -0.000001877386    -0.000000963675    -0.000004229960
       3       -0.000001900985    -0.000000504519     0.000005758340
       4        0.000004969669     0.000002356384     0.000000350043
       5        0.000000590541    -0.000001843977    -0.000001667100
       6       -0.000000240877     0.000000529326    -0.000000483578
       7       -0.000002404311     0.000001075637    -0.000001745470
       8        0.000002233513     0.000002622711     0.000005069361
       9        0.000005552946     0.000000111556    -0.000006394182
      10        0.000002736822    -0.000004116383     0.000002488999
      11       -0.000004792633     0.000004148113     0.000002075254
      12        0.000048457202     0.000072595678     0.000043804631
      13        0.000002209605    -0.000003384918    -0.000001629254
      14       -0.000001285781     0.000000427851    -0.000000858017
      15        0.000046692272     0.000065923993     0.000070850488
      16       -0.000047309247    -0.000069336156    -0.000060155637
      17        0.000002951637    -0.000005570857    -0.000002059367
      18       -0.000007756168     0.000009463526    -0.000000923939
      19       -0.000043847798    -0.000076867693    -0.000047372451
      20       -0.000005627325     0.000001237343    -0.000002580005
      21        0.000001341865     0.000000945860    -0.000000055826
      22       -0.000004518386     0.000002108131     0.000003990750
      23        0.000002798956    -0.000000192465    -0.000007899861

  **** Optimization is complete! (in 9 steps) ****
    Final optimized geometry and variables:
    Molecular point group: c1

    Geometry (in Angstrom), charge = 0, multiplicity = 1:

    O           -2.688566494680     1.515204122520     0.217543464696
    C           -2.547548882826     0.335057960858     0.172855376096
    C           -3.690596153498    -0.646991557846     0.154803194804
    O           -1.366939977920    -0.260484440708     0.133691004427
    H           -4.319003995415    -0.433802355799    -0.701639231222
    H           -3.343399773973    -1.668722901624     0.110434782256
    H           -4.289681549277    -0.499928150639     1.045512782292
    C           -0.210875050951     0.571075999141     0.146536651297
    C            1.006029187385    -0.333797589464     0.094426107559
    H           -0.248702676327     1.239218310746    -0.703785797474
    H           -0.222378206900     1.175452054762     1.043909683829
    C            2.309909647683     0.468994107836     0.091890555266
    H            0.935347439726    -0.955378482486    -0.791998684786
    H            0.983496735492    -1.002163889225     0.951175269667
    C            3.578534450707    -0.390273682846     0.136861105343
    H            2.341349319514     1.106968776136    -0.789733781671
    H            2.314892527381     1.136328463738     0.951211459184
    C            3.805853034645    -1.250331494174    -1.107459169656
    H            3.548602463512    -1.028407809568     1.017403645167
    H            4.433294388330     0.268150284175     0.267663581659
    H            3.028246545527    -1.996196502306    -1.234178138653
    H            4.752997905093    -1.776639529667    -1.042534073604
    H            3.829194606036    -0.639111335887    -2.005644392183

  Mulliken Charges: (a.u.)
   Center  Symbol    Alpha    Beta     Spin     Total
       1     O     4.28390  4.28390  0.00000 -0.56780
       2     C     2.61536  2.61536  0.00000  0.76928
       3     C     3.28774  3.28774  0.00000 -0.57547
       4     O     4.31277  4.31277  0.00000 -0.62553
       5     H     0.39749  0.39749  0.00000  0.20501
       6     H     0.39990  0.39990  0.00000  0.20019
       7     H     0.39750  0.39750  0.00000  0.20500
       8     C     2.99531  2.99531  0.00000  0.00938
       9     C     3.16660  3.16660  0.00000 -0.33320
      10     H     0.41067  0.41067  0.00000  0.17866
      11     H     0.41069  0.41069  0.00000  0.17862
      12     C     3.16172  3.16172  0.00000 -0.32344
      13     H     0.41215  0.41215  0.00000  0.17570
      14     H     0.41484  0.41484  0.00000  0.17032
      15     C     3.15241  3.15241  0.00000 -0.30481
      16     H     0.42084  0.42084  0.00000  0.15832
      17     H     0.41923  0.41923  0.00000  0.16154
      18     C     3.24213  3.24213  0.00000 -0.48426
      19     H     0.42162  0.42162  0.00000  0.15675
      20     H     0.41884  0.41884  0.00000  0.16232
      21     H     0.41925  0.41925  0.00000  0.16150
      22     H     0.41773  0.41773  0.00000  0.16455
      23     H     0.42132  0.42132  0.00000  0.15736

   Total alpha = 36.00000, Total beta = 36.00000, Total charge = -0.00000
