  ==> Input File <==

--------------------------------------------------------------------------
set {
	reference rhf
	basis cc-pvtz
}

set_num_threads( 4 )
memory 2 gb

molecule MOL {
0 1

H	 -3.162190	 0.493205	 -0.000107
C	 -2.363908	 -0.234727	 0.000005
O	 -1.158738	 0.454634	 -0.000087
H	 -2.464314	 -0.863616	 -0.882153
H	 -2.464327	 -0.863359	 0.882345
C	 -0.028611	 -0.359694	 0.000037
C	 0.360928	 -0.672764	 1.430645
H	 0.793223	 0.141247	 -0.512099
H	 -0.232366	 -1.282075	 -0.544334
C	 1.594960	 -1.563919	 1.516428
H	 0.537497	 0.261091	 1.952817
H	 -0.479916	 -1.150958	 1.920812
H	 2.455493	 -1.093355	 1.052597
H	 1.850647	 -1.771351	 2.548231
H	 1.431184	 -2.514943	 1.020646

	symmetry c1
}
set optking {
	frozen_dihedral = ("
		8 6 3 2
	")
}

ee = optimize('scf')
oeprop('DIPOLE', 'QUADRUPOLE', 'MULLIKEN_CHARGES')
f=open( 'psi4out.xyz', 'w' )
f.write( "15  " )
f.write( str(ee) + "\n" )
f.write( MOL.save_string_xyz() )
f.close()
--------------------------------------------------------------------------

    Molecular point group: c1
  Charge       = 0
  Multiplicity = 1
  Basis Set: CC-PVTZ
  Basis Set:
  @DF-RHF Final Energy:  -232.22387298599432
    Total Energy =                       -232.2238729859942623
    Molecular point group: c1
  Basis Set: CC-PVTZ
  Basis Set:
  Basis Set: CC-PVTZ
  Basis Set:
  @DF-RHF Final Energy:  -232.22496556306217
    Total Energy =                       -232.2249655630621419
  Basis Set: CC-PVTZ
  Basis Set:
  Basis Set: CC-PVTZ
  Basis Set:
  @DF-RHF Final Energy:  -232.22522675143156
    Total Energy =                       -232.2252267514315349
  Basis Set: CC-PVTZ
  Basis Set:
  Charge       = 0
  Multiplicity = 1
  Basis Set: CC-PVTZ
  Basis Set:

    Orbital Energies (a.u.)
    -----------------------

    Doubly Occupied:

       1A    -20.545457     2A    -11.264175     3A    -11.261674
       4A    -11.214201     5A    -11.212196     6A     -1.377889
       7A     -1.057227     8A     -0.958947     9A     -0.881831
      10A     -0.807158    11A     -0.670387    12A     -0.657387
      13A     -0.638153    14A     -0.600510    15A     -0.567738
      16A     -0.533816    17A     -0.516332    18A     -0.497541
      19A     -0.484208    20A     -0.460030    21A     -0.408118

  @DF-RHF Final Energy:  -232.22523088231563

   => Energetics <=

    Nuclear Repulsion Energy =            191.3232125645643862
    One-Electron Energy =                -693.8669401394273564
    Two-Electron Energy =                 270.3184966925473418
    DFT Exchange-Correlation Energy =       0.0000000000000000
    Empirical Dispersion Energy =           0.0000000000000000
    PCM Polarization Energy =               0.0000000000000000
    EFP Energy =                            0.0000000000000000
    Total Energy =                       -232.2252308823156000
    Molecular point group: c1
  Basis Set: CC-PVTZ
  Basis Set:

  -Total Gradient:
     Atom            X                  Y                   Z
    ------   -----------------  -----------------  -----------------
       1        0.000007269993     0.000007055045     0.000002869469
       2        0.000019190777    -0.000022913886    -0.000524735443
       3       -0.000138382118     0.000081007779     0.000650258763
       4        0.000016925768     0.000002110564    -0.000006382108
       5        0.000006839784    -0.000000010618    -0.000013108049
       6        0.000100699465     0.000195803673     0.000437875187
       7        0.000157202766     0.000006936964    -0.000027427521
       8       -0.000182727998    -0.000298638693    -0.000480679546
       9        0.000043987614    -0.000015429282    -0.000026029539
      10       -0.000057375885     0.000001020851     0.000012292523
      11       -0.000018800811     0.000041104377     0.000010141545
      12        0.000012928132     0.000015986749    -0.000056800959
      13       -0.000003274734    -0.000015328163     0.000000678271
      14        0.000013429468    -0.000011769069     0.000022542831
      15        0.000022087777     0.000013063709    -0.000001495424

  **** Optimization is complete! (in 4 steps) ****
    Final optimized geometry and variables:
    Molecular point group: c1

    Geometry (in Angstrom), charge = 0, multiplicity = 1:

    H           -2.823794231848     1.035108632634    -0.663128270064
    C           -2.055081999332     0.277169837013    -0.616415069430
    O           -0.825510129735     0.925269226927    -0.601552398947
    H           -2.150668059713    -0.369713227639    -1.485558126395
    H           -2.216684305344    -0.320874369621     0.276517421494
    C            0.298415188518     0.097320304532    -0.540481324319
    C            0.725309130432    -0.216481457746     0.885937845091
    H            1.096766373036     0.620065978802    -1.053935453570
    H            0.116954721483    -0.825374509923    -1.089815606873
    C            1.984054951778    -1.076055210477     0.934978117633
    H            0.892269702193     0.720473410124     1.406275300007
    H           -0.081723735255    -0.722443979433     1.405791597365
    H            2.816518641693    -0.582372900599     0.444686337508
    H            2.277847595264    -1.278130078367     1.957820563395
    H            1.830354917393    -2.030410321830     0.442052093846

  Mulliken Charges: (a.u.)
   Center  Symbol    Alpha    Beta     Spin     Total
       1     H     0.44690  0.44690  0.00000  0.10620
       2     C     3.03227  3.03227  0.00000 -0.06454
       3     O     4.17886  4.17886  0.00000 -0.35771
       4     H     0.47025  0.47025  0.00000  0.05950
       5     H     0.47269  0.47269  0.00000  0.05463
       6     C     2.97554  2.97554  0.00000  0.04892
       7     C     3.08259  3.08259  0.00000 -0.16517
       8     H     0.44923  0.44923  0.00000  0.10153
       9     H     0.47406  0.47406  0.00000  0.05187
      10     C     3.15364  3.15364  0.00000 -0.30729
      11     H     0.45091  0.45091  0.00000  0.09818
      12     H     0.45677  0.45677  0.00000  0.08647
      13     H     0.45412  0.45412  0.00000  0.09176
      14     H     0.44669  0.44669  0.00000  0.10662
      15     H     0.45548  0.45548  0.00000  0.08904

   Total alpha = 21.00000, Total beta = 21.00000, Total charge = -0.00000
