  ==> Input File <==

--------------------------------------------------------------------------
set {
	reference rhf
	basis 6-31G*
}

set_num_threads( 1 )
memory 2 gb

molecule MOL {
0 1

H	 -3.892951	 0.981613	 -0.358725
C	 -3.196921	 0.361773	 0.172313
C	 -2.076860	 -0.007332	 -0.404944
H	 -3.439953	 0.057760	 1.173024
O	 -1.991514	 -1.137491	 -1.154823
H	 -1.170563	 0.568081	 -0.336228
C	 -0.738576	 -1.549171	 -1.582041
C	 -0.050025	 -2.410705	 -0.547658
H	 -0.087000	 -0.714019	 -1.813700
H	 -0.873547	 -2.145141	 -2.472596
F	 1.124075	 -2.808214	 -1.015932
F	 0.169364	 -1.747781	 0.575833
F	 -0.752899	 -3.483950	 -0.250161

	symmetry c1
}
set optking {
	frozen_dihedral = ("
		11 8 7 9,
		3 5 7 9,
		6 3 5 7
	")
}

ee = energy('scf')
oeprop('DIPOLE', 'QUADRUPOLE', 'MULLIKEN_CHARGES')
f=open( 'psi4out.xyz', 'w' )
f.write( "13  " )
f.write( str(ee) + "\n" )
f.write( MOL.save_string_xyz() )
f.close()
--------------------------------------------------------------------------

    Molecular point group: c1

    Geometry (in Angstrom), charge = 0, multiplicity = 1:

       Center              X                  Y                   Z               Mass
    ------------   -----------------  -----------------  -----------------  -----------------
           H         -3.068766501721     2.691270956474     0.147277518107     1.007825032070
           C         -2.372736501721     2.071430956474     0.678315518107    12.000000000000
           C         -1.252675501721     1.702325956474     0.101058518107    12.000000000000
           H         -2.615768501721     1.767417956474     1.679026518107     1.007825032070
           O         -1.167329501721     0.572166956474    -0.648820481893    15.994914619560
           H         -0.346378501721     2.277738956474     0.169774518107     1.007825032070
           C          0.085608498279     0.160486956474    -1.076038481893    12.000000000000
           C          0.774159498279    -0.701047043526    -0.041655481893    12.000000000000
           H          0.737184498279     0.995638956474    -1.307697481893     1.007825032070
           H         -0.049362501721    -0.435483043526    -1.966593481893     1.007825032070
           F          1.948259498279    -1.098556043526    -0.509929481893    18.998403224000
           F          0.993548498279    -0.038123043526     1.081835518107    18.998403224000
           F          0.071285498279    -1.774292043526     0.255841518107    18.998403224000

  Charge       = 0
  Multiplicity = 1
  Basis Set: 6-31G*
  Basis Set:

    Orbital Energies (a.u.)
    -----------------------

    Doubly Occupied:

       1A    -26.362703     2A    -26.359023     3A    -26.355156
       4A    -20.660754     5A    -11.522066     6A    -11.391331
       7A    -11.336334     8A    -11.127175     9A     -1.757760
      10A     -1.656537    11A     -1.653111    12A     -1.483055
      13A     -1.104033    14A     -1.022789    15A     -0.941088
      16A     -0.853747    17A     -0.847242    18A     -0.837527
      19A     -0.815542    20A     -0.744355    21A     -0.725969
      22A     -0.715603    23A     -0.685668    24A     -0.675459
      25A     -0.666609    26A     -0.658371    27A     -0.653243
      28A     -0.585965    29A     -0.565575    30A     -0.552745
      31A     -0.507578    32A     -0.248923

  @DF-RHF Final Energy:  -527.38076448117999

   => Energetics <=

    Nuclear Repulsion Energy =            413.4882019676776963
    One-Electron Energy =               -1549.5922205802789904
    Two-Electron Energy =                 608.7232541314208447
    DFT Exchange-Correlation Energy =       0.0000000000000000
    Empirical Dispersion Energy =           0.0000000000000000
    PCM Polarization Energy =               0.0000000000000000
    EFP Energy =                            0.0000000000000000
    Total Energy =                       -527.3807644811804494

  Mulliken Charges: (a.u.)
   Center  Symbol    Alpha    Beta     Spin     Total
       1     H     0.39994  0.39994  0.00000  0.20012
       2     C     3.40449  3.40449  0.00000 -0.80897
       3     C     2.79744  2.79744  0.00000  0.40511
       4     H     0.40003  0.40003  0.00000  0.19994
       5     O     4.24948  4.24948  0.00000 -0.49895
       6     H     0.40188  0.40188  0.00000  0.19623
       7     C     3.08192  3.08192  0.00000 -0.16383
       8     C     2.45344  2.45344  0.00000  1.09311
       9     H     0.39837  0.39837  0.00000  0.20327
      10     H     0.38195  0.38195  0.00000  0.23610
      11     F     4.68027  4.68027  0.00000 -0.36054
      12     F     4.67914  4.67914  0.00000 -0.35828
      13     F     4.67165  4.67165  0.00000 -0.34331

   Total alpha = 32.00000, Total beta = 32.00000, Total charge = -0.00000
