  ==> Input File <==

--------------------------------------------------------------------------
set {
	reference rhf
	basis 6-31G*
}

set_num_threads( 1 )
memory 2 gb

molecule MOL {
0 1

H	 3.276176	 0.174363	 -0.109463
N	 2.434251	 -0.367735	 -0.081097
C	 1.267428	 0.496480	 0.024474
H	 2.501951	 -0.965776	 0.720575
C	 -0.016086	 -0.325158	 -0.029487
H	 1.288818	 1.183521	 -0.816092
H	 1.267576	 1.109062	 0.929528
C	 -1.282277	 0.529072	 0.046735
H	 -0.012495	 -0.908639	 -0.945788
H	 -0.015903	 -1.041248	 0.791956
C	 -1.054674	 1.970987	 -0.405793
H	 -1.656618	 0.528120	 1.068427
H	 -2.062293	 0.079364	 -0.564243
H	 -0.304424	 2.460099	 0.208710
H	 -1.968409	 2.553382	 -0.339267
H	 -0.712442	 2.008826	 -1.436165

	symmetry c1
}
set optking {
	frozen_dihedral = ("
		6 3 5 9,
		1 2 3 6
	")
}

ee = energy('scf')
oeprop('DIPOLE', 'QUADRUPOLE', 'MULLIKEN_CHARGES')
f=open( 'psi4out.xyz', 'w' )
f.write( "16  " )
f.write( str(ee) + "\n" )
f.write( MOL.save_string_xyz() )
f.close()
--------------------------------------------------------------------------

    Molecular point group: c1

    Geometry (in Angstrom), charge = 0, multiplicity = 1:

       Center              X                  Y                   Z               Mass
    ------------   -----------------  -----------------  -----------------  -----------------
           H          2.965949908892    -0.292798240968    -0.027369695204     1.007825032070
           N          2.124024908892    -0.834896240968     0.000996304796    14.003074004780
           C          0.957201908892     0.029318759032     0.106567304796    12.000000000000
           H          2.191724908892    -1.432937240968     0.802668304796     1.007825032070
           C         -0.326312091108    -0.792319240968     0.052606304796    12.000000000000
           H          0.978591908892     0.716359759032    -0.733998695204     1.007825032070
           H          0.957349908892     0.641900759032     1.011621304796     1.007825032070
           C         -1.592503091108     0.061910759032     0.128828304796    12.000000000000
           H         -0.322721091108    -1.375800240968    -0.863694695204     1.007825032070
           H         -0.326129091108    -1.508409240968     0.874049304796     1.007825032070
           C         -1.364900091108     1.503825759032    -0.323699695204    12.000000000000
           H         -1.966844091108     0.060958759032     1.150520304796     1.007825032070
           H         -2.372519091108    -0.387797240968    -0.482149695204     1.007825032070
           H         -0.614650091108     1.992937759032     0.290803304796     1.007825032070
           H         -2.278635091108     2.086220759032    -0.257173695204     1.007825032070
           H         -1.022668091108     1.541664759032    -1.354071695204     1.007825032070

  Charge       = 0
  Multiplicity = 1
  Basis Set: 6-31G*
  Basis Set:

    Orbital Energies (a.u.)
    -----------------------

    Doubly Occupied:

       1A    -15.531810     2A    -11.238613     3A    -11.214040
       4A    -11.208546     5A    -11.207511     6A     -1.176297
       7A     -1.062020     8A     -0.949677     9A     -0.867582
      10A     -0.770681    11A     -0.664284    12A     -0.638949
      13A     -0.613301    14A     -0.584603    15A     -0.540651
      16A     -0.532716    17A     -0.516363    18A     -0.468427
      19A     -0.460402    20A     -0.452272    21A     -0.379850

  @DF-RHF Final Energy:  -212.30722651354353

   => Energetics <=

    Nuclear Repulsion Energy =            191.1402676053065193
    One-Electron Energy =                -664.7376724732312141
    Two-Electron Energy =                 261.2901783543816236
    DFT Exchange-Correlation Energy =       0.0000000000000000
    Empirical Dispersion Energy =           0.0000000000000000
    PCM Polarization Energy =               0.0000000000000000
    EFP Energy =                            0.0000000000000000
    Total Energy =                       -212.3072265135430712

  Mulliken Charges: (a.u.)
   Center  Symbol    Alpha    Beta     Spin     Total
       1     H     0.33276  0.33276  0.00000  0.33448
       2     N     3.92196  3.92196  0.00000 -0.84391
       3     C     3.06588  3.06588  0.00000 -0.13175
       4     H     0.33573  0.33573  0.00000  0.32855
       5     C     3.15337  3.15337  0.00000 -0.30674
       6     H     0.41696  0.41696  0.00000  0.16609
       7     H     0.43400  0.43400  0.00000  0.13200
       8     C     3.15564  3.15564  0.00000 -0.31129
       9     H     0.41213  0.41213  0.00000  0.17574
      10     H     0.42516  0.42516  0.00000  0.14968
      11     C     3.24862  3.24862  0.00000 -0.49723
      12     H     0.42211  0.42211  0.00000  0.15579
      13     H     0.41865  0.41865  0.00000  0.16270
      14     H     0.41935  0.41935  0.00000  0.16130
      15     H     0.41794  0.41794  0.00000  0.16412
      16     H     0.41976  0.41976  0.00000  0.16047

   Total alpha = 21.00000, Total beta = 21.00000, Total charge =  0.00000
