  ==> Input File <==

--------------------------------------------------------------------------
set {
	reference rhf
	basis 6-31G*
}

set_num_threads( 4 )
memory 2 gb

molecule MOL {
0 1

O	 -0.682937	 1.318834	 -0.186099
C	 -0.860635	 0.152188	 -0.042321
C	 -2.173363	 -0.477127	 0.338347
O	 0.083258	 -0.765189	 -0.202595
H	 -2.477673	 -1.180929	 -0.427595
H	 -2.923125	 0.290956	 0.455536
H	 -2.058825	 -1.029004	 1.264191
C	 1.391937	 -0.334737	 -0.569838
C	 2.433629	 -0.808429	 0.426726
H	 1.398654	 0.740618	 -0.663147
H	 1.558687	 -0.774232	 -1.542740
H	 3.424927	 -0.531399	 0.081308
H	 2.273020	 -0.355962	 1.397214
H	 2.398490	 -1.887421	 0.531400

	symmetry c1
}
set optking {
	frozen_dihedral = ("
		10 8 4 2
	")
}

ee = optimize('scf')
oeprop('DIPOLE', 'QUADRUPOLE', 'MULLIKEN_CHARGES')
f=open( 'psi4out.xyz', 'w' )
f.write( "14  " )
f.write( str(ee) + "\n" )
f.write( MOL.save_string_xyz() )
f.close()
--------------------------------------------------------------------------

    Molecular point group: c1
  Charge       = 0
  Multiplicity = 1
  Basis Set: 6-31G*
  Basis Set:
  @DF-RHF Final Energy:  -305.87358849831605
    Total Energy =                       -305.8735884983161100
    Molecular point group: c1
  Basis Set: 6-31G*
  Basis Set:
  Basis Set: 6-31G*
  Basis Set:
  @DF-RHF Final Energy:  -305.87398662545274
    Total Energy =                       -305.8739866254526873
  Basis Set: 6-31G*
  Basis Set:
  Basis Set: 6-31G*
  Basis Set:
  @DF-RHF Final Energy:  -305.87409338140037
    Total Energy =                       -305.8740933814002574
  Basis Set: 6-31G*
  Basis Set:
  Basis Set: 6-31G*
  Basis Set:
  @DF-RHF Final Energy:  -305.87406451509673
    Total Energy =                       -305.8740645150969613
  Basis Set: 6-31G*
  Basis Set:
  Basis Set: 6-31G*
  Basis Set:
  @DF-RHF Final Energy:  -305.87420913057082
    Total Energy =                       -305.8742091305709891
  Basis Set: 6-31G*
  Basis Set:
  Basis Set: 6-31G*
  Basis Set:
  @DF-RHF Final Energy:  -305.87421029215955
    Total Energy =                       -305.8742102921591481
  Basis Set: 6-31G*
  Basis Set:
  Charge       = 0
  Multiplicity = 1
  Basis Set: 6-31G*
  Basis Set:

    Orbital Energies (a.u.)
    -----------------------

    Doubly Occupied:

       1A    -20.601262     2A    -20.543930     3A    -11.376428
       4A    -11.283866     5A    -11.232873     6A    -11.222220
       7A     -1.465845     8A     -1.363194     9A     -1.057115
      10A     -0.999543    11A     -0.877158    12A     -0.774181
      13A     -0.697394    14A     -0.682298    15A     -0.658884
      16A     -0.612157    17A     -0.582275    18A     -0.565465
      19A     -0.561768    20A     -0.531315    21A     -0.517306
      22A     -0.496545    23A     -0.448198    24A     -0.439552

  @DF-RHF Final Energy:  -305.87421043390316

   => Energetics <=

    Nuclear Repulsion Energy =            246.1746270493653128
    One-Electron Energy =                -904.9161330591923615
    Two-Electron Energy =                 352.8672955759237766
    DFT Exchange-Correlation Energy =       0.0000000000000000
    Empirical Dispersion Energy =           0.0000000000000000
    PCM Polarization Energy =               0.0000000000000000
    EFP Energy =                            0.0000000000000000
    Total Energy =                       -305.8742104339032721
    Molecular point group: c1
  Basis Set: 6-31G*
  Basis Set:

  -Total Gradient:
     Atom            X                  Y                   Z
    ------   -----------------  -----------------  -----------------
       1        0.000003175186    -0.000007570628    -0.000003897993
       2       -0.000026907585    -0.000003792699    -0.000080187751
       3       -0.000012864792    -0.000004440856    -0.000033547365
       4        0.000065811687     0.000009298056     0.000185843198
       5        0.000000249154    -0.000005506927     0.000009774981
       6        0.000001769335    -0.000000561817     0.000002145122
       7        0.000002699658     0.000005625582     0.000008065814
       8       -0.000070762383     0.000024489300    -0.000204860154
       9       -0.000010048544    -0.000022561191    -0.000010884983
      10        0.000043863431     0.000013044137     0.000117270839
      11        0.000003046768    -0.000005287780     0.000007663113
      12       -0.000001661809     0.000000128240    -0.000002350637
      13       -0.000004808267     0.000001513382    -0.000005633774
      14        0.000006438159    -0.000004376800     0.000010599589

  **** Optimization is complete! (in 7 steps) ****
    Final optimized geometry and variables:
    Molecular point group: c1

    Geometry (in Angstrom), charge = 0, multiplicity = 1:

    O           -0.746483221710     1.482638901301    -0.145768422283
    C           -0.896901399397     0.312587188280    -0.003904564688
    C           -2.191324959698    -0.341930465694     0.397453193727
    O            0.057146384181    -0.593291558727    -0.177960003718
    H           -2.498287564777    -1.044602546412    -0.368531517303
    H           -2.951566691898     0.412389392748     0.534689352499
    H           -2.049826730504    -0.899259643136     1.316201511207
    C            1.367469453785    -0.180611431857    -0.560509861836
    C            2.362674722992    -0.670000638358     0.473482727415
    H            1.390713718534     0.891795462253    -0.659549830076
    H            1.560251501629    -0.626940880781    -1.527321650497
    H            3.372009687849    -0.412582776052     0.167865587109
    H            2.170742261648    -0.211475672109     1.437357952363
    H            2.303034184381    -1.746433473115     0.587394714981

  Mulliken Charges: (a.u.)
   Center  Symbol    Alpha    Beta     Spin     Total
       1     O     4.28279  4.28279  0.00000 -0.56557
       2     C     2.62013  2.62013  0.00000  0.75974
       3     C     3.28231  3.28231  0.00000 -0.56463
       4     O     4.30797  4.30797  0.00000 -0.61594
       5     H     0.40041  0.40041  0.00000  0.19919
       6     H     0.39715  0.39715  0.00000  0.20569
       7     H     0.40071  0.40071  0.00000  0.19858
       8     C     3.01234  3.01234  0.00000 -0.02467
       9     C     3.24709  3.24709  0.00000 -0.49419
      10     H     0.39325  0.39325  0.00000  0.21350
      11     H     0.41368  0.41368  0.00000  0.17264
      12     H     0.41731  0.41731  0.00000  0.16538
      13     H     0.41276  0.41276  0.00000  0.17447
      14     H     0.41210  0.41210  0.00000  0.17581

   Total alpha = 24.00000, Total beta = 24.00000, Total charge =  0.00000
