                              Psi4 1.0.54 Driver

  ==> Input File <==

--------------------------------------------------------------------------
set {
	reference rhf
	basis cc-pvtz
}

set_num_threads( 4 )
memory 2 gb

molecule MOL {
0 1

H	 2.614283	 2.028610	 0.296620
O	 3.358864	 1.662087	 -0.142800
C	 3.565468	 0.338079	 0.273842
C	 2.533667	 -0.637565	 -0.272227
H	 4.548038	 0.064914	 -0.086598
H	 3.593945	 0.282242	 1.360360
C	 1.114816	 -0.402372	 0.240993
H	 2.544552	 -0.580764	 -1.356576
H	 2.850574	 -1.642962	 -0.005497
C	 0.169508	 -1.558050	 -0.084029
H	 0.725486	 0.514620	 -0.188600
H	 1.141568	 -0.256090	 1.319498
C	 -1.248177	 -1.409101	 0.471162
H	 0.120765	 -1.686736	 -1.162589
H	 0.597832	 -2.475416	 0.310239
C	 -2.069495	 -0.279338	 -0.147558
H	 -1.775933	 -2.345744	 0.313991
H	 -1.198304	 -1.268936	 1.548669
C	 -3.506137	 -0.234431	 0.366692
H	 -2.080609	 -0.395881	 -1.229114
H	 -1.596886	 0.677972	 0.050436
C	 -4.327887	 0.894710	 -0.246218
H	 -3.990745	 -1.184843	 0.160660
H	 -3.496731	 -0.126527	 1.448048
H	 -4.383371	 0.797120	 -1.325401
H	 -5.341629	 0.896294	 0.137749
H	 -3.889684	 1.862532	 -0.025651

	symmetry c1
}
set optking {
	frozen_dihedral = ("
		10 7 4 8
	")
}

ee,wfn = optimize('scf', return_wfn=True)
oeprop( wfn, 'DIPOLE', 'QUADRUPOLE', 'MULLIKEN_CHARGES')
f=open( 'psi4out.xyz', 'w' )
f.write( "27  " )
f.write( str(ee) + "\n" )
f.write( MOL.save_string_xyz() )
f.close()
--------------------------------------------------------------------------

    Molecular point group: c1
  Charge       = 0
  Multiplicity = 1
  Basis Set: CC-PVTZ
  Basis Set:
  @DF-RHF Final Energy:  -388.42738268845034
    Total Energy =                       -388.4273826884500522
    Molecular point group: c1
  Basis Set: CC-PVTZ
  Basis Set:
  Basis Set: CC-PVTZ
  Basis Set:
  @DF-RHF Final Energy:  -388.42739279320784
    Total Energy =                       -388.4273927932079005
  Basis Set: CC-PVTZ
  Basis Set:
  Basis Set: CC-PVTZ
  Basis Set:
  @DF-RHF Final Energy:  -388.42745303627464
    Total Energy =                       -388.4274530362744144
  Basis Set: CC-PVTZ
  Basis Set:
  Basis Set: CC-PVTZ
  Basis Set:
  @DF-RHF Final Energy:  -388.42744764570745
    Total Energy =                       -388.4274476457078435
  Basis Set: CC-PVTZ
  Basis Set:
  Basis Set: CC-PVTZ
  Basis Set:
  @DF-RHF Final Energy:  -388.42745717786426
    Total Energy =                       -388.4274571778644258
  Basis Set: CC-PVTZ
  Basis Set:
  Charge       = 0
  Multiplicity = 1
  Basis Set: CC-PVTZ
  Basis Set:

    Orbital Energies (a.u.)
    -----------------------

    Doubly Occupied:

       1A    -20.545312     2A    -11.264802     3A    -11.216909
       4A    -11.214992     5A    -11.213915     6A    -11.213379
       7A    -11.213313     8A    -11.211882     9A    -11.207231
      10A     -1.363187    11A     -1.096239    12A     -1.062541
      13A     -1.012555    14A     -0.949410    15A     -0.888655
      16A     -0.820777    17A     -0.801585    18A     -0.778667
      19A     -0.696718    20A     -0.651340    21A     -0.638334
      22A     -0.617195    23A     -0.603276    24A     -0.583850
      25A     -0.580011    26A     -0.553919    27A     -0.541822
      28A     -0.531359    29A     -0.505692    30A     -0.496536
      31A     -0.485781    32A     -0.474851    33A     -0.469555
      34A     -0.461401    35A     -0.451250    36A     -0.442923
      37A     -0.425616

  @DF-RHF Final Energy:  -388.42745726025493

   => Energetics <=

    Nuclear Repulsion Energy =            459.9636089040419051
    One-Electron Energy =               -1438.2085751738991348
    Two-Electron Energy =                 589.8175090096018494
    DFT Exchange-Correlation Energy =       0.0000000000000000
    Empirical Dispersion Energy =           0.0000000000000000
    PCM Polarization Energy =               0.0000000000000000
    EFP Energy =                            0.0000000000000000
    Total Energy =                       -388.4274572602554372
    Molecular point group: c1
  Basis Set: CC-PVTZ
  Basis Set:

  -Total Gradient:
     Atom            X                  Y                   Z
    ------   -----------------  -----------------  -----------------
       1       -0.000002925248    -0.000003726339     0.000009651059
       2        0.000015394307     0.000016697071    -0.000035185374
       3       -0.000022682007    -0.000020281414     0.000038444196
       4       -0.000280420739    -0.002468261989     0.000262300425
       5        0.000005627322     0.000011728399    -0.000010696534
       6        0.000006080577    -0.000005391574     0.000010610485
       7       -0.000393578497     0.001280645895    -0.001544547050
       8        0.000333769851     0.001804472921     0.000132429532
       9       -0.000001054414     0.000000508171    -0.000002487728
      10        0.000339856494    -0.000619029600     0.001141449496
      11       -0.000005695063     0.000004588398    -0.000003400144
      12        0.000004286890     0.000001003769     0.000004546646
      13       -0.000001977481     0.000005619788    -0.000003574415
      14       -0.000000597293    -0.000001410974     0.000000932725
      15       -0.000003400070    -0.000002956508     0.000001796104
      16        0.000001335537    -0.000004291533    -0.000000408007
      17       -0.000000478852     0.000001804400    -0.000001459876
      18        0.000003527191    -0.000001225748     0.000001471790
      19       -0.000002886005    -0.000002746110    -0.000001964991
      20        0.000000992324     0.000000466460    -0.000001418153
      21        0.000003612229     0.000001102301     0.000000315084
      22        0.000002052267     0.000001180246     0.000001700341
      23       -0.000000460941    -0.000001105199    -0.000000740267
      24        0.000000026110    -0.000000666172     0.000000035096
      25       -0.000000460666    -0.000000713918    -0.000000267447
      26       -0.000000036845     0.000000389992     0.000001168490
      27        0.000000093015     0.000001599271    -0.000000701484

  **** Optimization is complete! (in 6 steps) ****
    Final optimized geometry and variables:
    Molecular point group: c1

    Geometry (in Angstrom), charge = 0, multiplicity = 1:

    H            2.571644468610     2.139874361517     0.294282275855
    O            3.320481822548     1.810019674934    -0.166573626066
    C            3.570683178055     0.479973258835     0.204560735395
    C            2.541808685422    -0.501812903985    -0.336643187730
    H            4.547067211897     0.240393871127    -0.194601526731
    H            3.634832933722     0.394268251990     1.287578514182
    C            1.129539231926    -0.281175995372     0.204116520902
    H            2.534944290603    -0.418119869844    -1.419171145348
    H            2.875314808441    -1.506507254543    -0.090455592249
    C            0.178258179024    -1.428425840652    -0.133401758049
    H            0.737960665422     0.651516712660    -0.186531292602
    H            1.172405354527    -0.173392516659     1.287147837342
    C           -1.239782533970    -1.275770077311     0.419834695928
    H            0.130571782089    -1.550127500494    -1.213067099208
    H            0.601991140428    -2.349865340674     0.255471618931
    C           -2.058282904214    -0.145763764080    -0.202073724473
    H           -1.769393684397    -2.211456186775     0.263626584721
    H           -1.190938451529    -1.134017296366     1.497202375992
    C           -3.493490509771    -0.092863607955     0.315243347358
    H           -2.072485564763    -0.267810433897    -1.282907300773
    H           -1.581655236795     0.810740570788    -0.010337219558
    C           -4.312441443440     1.036171790804    -0.301461839279
    H           -3.982147837031    -1.042479048653     0.115264104288
    H           -3.481132409706     0.020559426429     1.395962637113
    H           -4.371677249666     0.932728419250    -1.379864481040
    H           -5.324939903329     1.044140412206     0.085584293181
    H           -3.869536987166     2.003355762390    -0.087782330355

  Mulliken Charges: (a.u.)
   Center  Symbol    Alpha    Beta     Spin     Total
       1     H     0.39205  0.39205  0.00000  0.21590
       2     O     4.20589  4.20589  0.00000 -0.41178
       3     C     2.97915  2.97915  0.00000  0.04170
       4     C     3.08884  3.08884  0.00000 -0.17767
       5     H     0.44921  0.44921  0.00000  0.10158
       6     H     0.47013  0.47013  0.00000  0.05974
       7     C     3.10506  3.10506  0.00000 -0.21012
       8     H     0.45033  0.45033  0.00000  0.09933
       9     H     0.45543  0.45543  0.00000  0.08913
      10     C     3.09934  3.09934  0.00000 -0.19868
      11     H     0.45193  0.45193  0.00000  0.09614
      12     H     0.45447  0.45447  0.00000  0.09106
      13     C     3.09832  3.09832  0.00000 -0.19664
      14     H     0.45190  0.45190  0.00000  0.09620
      15     H     0.44785  0.44785  0.00000  0.10430
      16     C     3.08768  3.08768  0.00000 -0.17537
      17     H     0.44789  0.44789  0.00000  0.10421
      18     H     0.45406  0.45406  0.00000  0.09187
      19     C     3.08410  3.08410  0.00000 -0.16819
      20     H     0.45424  0.45424  0.00000  0.09153
      21     H     0.45512  0.45512  0.00000  0.08977
      22     C     3.14960  3.14960  0.00000 -0.29919
      23     H     0.45382  0.45382  0.00000  0.09237
      24     H     0.45474  0.45474  0.00000  0.09053
      25     H     0.45488  0.45488  0.00000  0.09024
      26     H     0.44832  0.44832  0.00000  0.10337
      27     H     0.45567  0.45567  0.00000  0.08866

   Total alpha = 37.00000, Total beta = 37.00000, Total charge = -0.00000

*** Psi4 exiting successfully. Buy a developer a beer!
