  ==> Input File <==

--------------------------------------------------------------------------
set {
	reference rhf
	basis 6-31G*
}

set_num_threads( 1 )
memory 2 gb

molecule MOL {
0 1

O	 -1.931345	 0.097116	 2.098176
C	 -2.196682	 -0.512739	 1.112129
C	 -3.381776	 -1.435583	 0.988923
O	 -1.481751	 -0.454642	 0.000584
H	 -4.284742	 -0.870711	 1.187511
H	 -3.439714	 -1.888587	 0.010216
H	 -3.303474	 -2.205517	 1.747178
C	 -0.334255	 0.388708	 0.000906
C	 0.891947	 -0.504646	 0.000751
H	 -0.365390	 1.025305	 -0.873475
H	 -0.365484	 1.024911	 0.875569
C	 2.191998	 0.301789	 0.000897
H	 0.855148	 -1.151283	 -0.871571
H	 0.855132	 -1.151660	 0.872805
C	 3.441114	 -0.581407	 0.000108
H	 2.215074	 0.954890	 -0.869742
H	 2.215465	 0.953923	 0.872248
C	 4.739576	 0.224112	 -0.001102
H	 3.419457	 -1.233487	 -0.870178
H	 3.420834	 -1.233096	 0.870717
H	 4.804918	 0.861552	 -0.878265
H	 5.606527	 -0.429058	 -0.001824
H	 4.806469	 0.861674	 0.875853

	symmetry c1
}
set optking {
	frozen_dihedral = ("
		13 9 8 10,
		16 12 9 13,
		19 15 12 16,
		1 2 4 8
	")
}

ee = energy('scf')
oeprop('DIPOLE', 'QUADRUPOLE', 'MULLIKEN_CHARGES')
f=open( 'psi4out.xyz', 'w' )
f.write( "23  " )
f.write( str(ee) + "\n" )
f.write( MOL.save_string_xyz() )
f.close()
--------------------------------------------------------------------------

    Molecular point group: c1

    Geometry (in Angstrom), charge = 0, multiplicity = 1:

       Center              X                  Y                   Z               Mass
    ------------   -----------------  -----------------  -----------------  -----------------
           O         -2.132727590779     0.371306384499     1.623377935219    15.994914619560
           C         -2.398064590779    -0.238548615501     0.637330935219    12.000000000000
           C         -3.583158590779    -1.161392615501     0.514124935219    12.000000000000
           O         -1.683133590779    -0.180451615501    -0.474214064781    15.994914619560
           H         -4.486124590779    -0.596520615501     0.712712935219     1.007825032070
           H         -3.641096590779    -1.614396615501    -0.464582064781     1.007825032070
           H         -3.504856590779    -1.931326615501     1.272379935219     1.007825032070
           C         -0.535637590779     0.662898384499    -0.473892064781    12.000000000000
           C          0.690564409221    -0.230455615501    -0.474047064781    12.000000000000
           H         -0.566772590779     1.299495384499    -1.348273064781     1.007825032070
           H         -0.566866590779     1.299101384499     0.400770935219     1.007825032070
           C          1.990615409221     0.575979384499    -0.473901064781    12.000000000000
           H          0.653765409221    -0.877092615501    -1.346369064781     1.007825032070
           H          0.653749409221    -0.877469615501     0.398006935219     1.007825032070
           C          3.239731409221    -0.307216615501    -0.474690064781    12.000000000000
           H          2.013691409221     1.229080384499    -1.344540064781     1.007825032070
           H          2.014082409221     1.228113384499     0.397449935219     1.007825032070
           C          4.538193409221     0.498302384499    -0.475900064781    12.000000000000
           H          3.218074409221    -0.959296615501    -1.344976064781     1.007825032070
           H          3.219451409221    -0.958905615501     0.395918935219     1.007825032070
           H          4.603535409221     1.135742384499    -1.353063064781     1.007825032070
           H          5.405144409221    -0.154867615501    -0.476622064781     1.007825032070
           H          4.605086409221     1.135864384499     0.401054935219     1.007825032070

  Charge       = 0
  Multiplicity = 1
  Basis Set: 6-31G*
  Basis Set:

    Orbital Energies (a.u.)
    -----------------------

    Doubly Occupied:

       1A    -20.603141     2A    -20.540498     3A    -11.376101
       4A    -11.277738     5A    -11.233276     6A    -11.221508
       7A    -11.220877     8A    -11.219602     9A    -11.211318
      10A     -1.469085    11A     -1.361596    12A     -1.091615
      13A     -1.041285    14A     -1.002647    15A     -0.930113
      16A     -0.845742    17A     -0.799459    18A     -0.771594
      19A     -0.700413    20A     -0.680834    21A     -0.657868
      22A     -0.648078    23A     -0.603638    24A     -0.587474
      25A     -0.585422    26A     -0.572440    27A     -0.549594
      28A     -0.539588    29A     -0.521842    30A     -0.510131
      31A     -0.486067    32A     -0.478172    33A     -0.473448
      34A     -0.468709    35A     -0.439674    36A     -0.434377

  @DF-RHF Final Energy:  -422.97682888910339

   => Energetics <=

    Nuclear Repulsion Energy =            454.9837113695089670
    One-Electron Energy =               -1477.6111661995903432
    Two-Electron Energy =                 599.6506259409768518
    DFT Exchange-Correlation Energy =       0.0000000000000000
    Empirical Dispersion Energy =           0.0000000000000000
    PCM Polarization Energy =               0.0000000000000000
    EFP Energy =                            0.0000000000000000
    Total Energy =                       -422.9768288891045813

  Mulliken Charges: (a.u.)
   Center  Symbol    Alpha    Beta     Spin     Total
       1     O     4.28504  4.28504  0.00000 -0.57008
       2     C     2.61502  2.61502  0.00000  0.76995
       3     C     3.28862  3.28862  0.00000 -0.57724
       4     O     4.31065  4.31065  0.00000 -0.62129
       5     H     0.39704  0.39704  0.00000  0.20591
       6     H     0.39944  0.39944  0.00000  0.20113
       7     H     0.39748  0.39748  0.00000  0.20505
       8     C     3.01288  3.01288  0.00000 -0.02576
       9     C     3.16173  3.16173  0.00000 -0.32347
      10     H     0.41268  0.41268  0.00000  0.17464
      11     H     0.39186  0.39186  0.00000  0.21627
      12     C     3.16145  3.16145  0.00000 -0.32290
      13     H     0.41535  0.41535  0.00000  0.16929
      14     H     0.41431  0.41431  0.00000  0.17138
      15     C     3.15136  3.15136  0.00000 -0.30272
      16     H     0.42290  0.42290  0.00000  0.15420
      17     H     0.41898  0.41898  0.00000  0.16203
      18     C     3.23981  3.23981  0.00000 -0.47962
      19     H     0.42207  0.42207  0.00000  0.15587
      20     H     0.42084  0.42084  0.00000  0.15832
      21     H     0.42159  0.42159  0.00000  0.15683
      22     H     0.41832  0.41832  0.00000  0.16337
      23     H     0.42058  0.42058  0.00000  0.15884

   Total alpha = 36.00000, Total beta = 36.00000, Total charge =  0.00000
