  ==> Input File <==

--------------------------------------------------------------------------
set {
	reference rhf
	basis 6-31G*
}

set_num_threads( 4 )
memory 2 gb

molecule MOL {
0 1

O	 -0.682937	 1.318834	 -0.186099
C	 -0.860635	 0.152188	 -0.042321
C	 -2.173363	 -0.477127	 0.338347
O	 0.083258	 -0.765189	 -0.202595
H	 -2.477673	 -1.180929	 -0.427595
H	 -2.923125	 0.290956	 0.455536
H	 -2.058825	 -1.029004	 1.264191
C	 1.446825	 -0.353785	 -0.137562
C	 1.939662	 -0.285451	 1.295996
H	 1.554446	 0.597987	 -0.635244
H	 1.983952	 -1.106673	 -0.696269
H	 2.998160	 -0.044340	 1.309268
H	 1.409858	 0.479152	 1.850126
H	 1.801321	 -1.239631	 1.792804

	symmetry c1
}
set optking {
	frozen_dihedral = ("
		8 4 2 1
	")
}

ee = optimize('scf')
oeprop('DIPOLE', 'QUADRUPOLE', 'MULLIKEN_CHARGES')
f=open( 'psi4out.xyz', 'w' )
f.write( "14  " )
f.write( str(ee) + "\n" )
f.write( MOL.save_string_xyz() )
f.close()
--------------------------------------------------------------------------

    Molecular point group: c1
  Charge       = 0
  Multiplicity = 1
  Basis Set: 6-31G*
  Basis Set:
  @DF-RHF Final Energy:  -305.87312565227825
    Total Energy =                       -305.8731256522782473
    Molecular point group: c1
  Basis Set: 6-31G*
  Basis Set:
  Basis Set: 6-31G*
  Basis Set:
  @DF-RHF Final Energy:  -305.87002109021580
    Total Energy =                       -305.8700210902158574
  Basis Set: 6-31G*
  Basis Set:
  Basis Set: 6-31G*
  Basis Set:
  @DF-RHF Final Energy:  -305.87337915240505
    Total Energy =                       -305.8733791524050503
  Basis Set: 6-31G*
  Basis Set:
  Basis Set: 6-31G*
  Basis Set:
  @DF-RHF Final Energy:  -305.87343017458522
    Total Energy =                       -305.8734301745851667
  Basis Set: 6-31G*
  Basis Set:
  Basis Set: 6-31G*
  Basis Set:
  @DF-RHF Final Energy:  -305.87344616402561
    Total Energy =                       -305.8734461640256086
  Basis Set: 6-31G*
  Basis Set:
  Basis Set: 6-31G*
  Basis Set:
  @DF-RHF Final Energy:  -305.87345284937487
    Total Energy =                       -305.8734528493749849
  Basis Set: 6-31G*
  Basis Set:
  Basis Set: 6-31G*
  Basis Set:
  @DF-RHF Final Energy:  -305.87345391387726
    Total Energy =                       -305.8734539138773130
  Basis Set: 6-31G*
  Basis Set:
  Charge       = 0
  Multiplicity = 1
  Basis Set: 6-31G*
  Basis Set:

    Orbital Energies (a.u.)
    -----------------------

    Doubly Occupied:

       1A    -20.599877     2A    -20.545583     3A    -11.376012
       4A    -11.285824     5A    -11.233403     6A    -11.221952
       7A     -1.466253     8A     -1.363160     9A     -1.054711
      10A     -1.000628    11A     -0.884163    12A     -0.763083
      13A     -0.698555    14A     -0.682455    15A     -0.659782
      16A     -0.611962    17A     -0.588498    18A     -0.570594
      19A     -0.557482    20A     -0.530081    21A     -0.519921
      22A     -0.493767    23A     -0.451129    24A     -0.438234

  @DF-RHF Final Energy:  -305.87345436652959

   => Energetics <=

    Nuclear Repulsion Energy =            249.0434196894657362
    One-Electron Energy =                -910.6395235170214164
    Two-Electron Energy =                 355.7226494610262080
    DFT Exchange-Correlation Energy =       0.0000000000000000
    Empirical Dispersion Energy =           0.0000000000000000
    PCM Polarization Energy =               0.0000000000000000
    EFP Energy =                            0.0000000000000000
    Total Energy =                       -305.8734543665294723
    Molecular point group: c1
  Basis Set: 6-31G*
  Basis Set:

  -Total Gradient:
     Atom            X                  Y                   Z
    ------   -----------------  -----------------  -----------------
       1       -0.001585499087    -0.000077035909    -0.005834581526
       2        0.002501840597    -0.000448756923     0.011069057943
       3        0.000022909549    -0.000010063321     0.000043817833
       4       -0.001021949280     0.001585657537    -0.009908734506
       5        0.000004372729     0.000008360949    -0.000017587655
       6        0.000019448794     0.000009532570    -0.000004943295
       7       -0.000006795881    -0.000015588252    -0.000011392306
       8        0.000062702357    -0.001097514231     0.004695519795
       9       -0.000024964223     0.000059210368    -0.000016512270
      10        0.000004524410     0.000014674551     0.000002364745
      11       -0.000015174761     0.000000084075     0.000002276813
      12        0.000021994788    -0.000005111275     0.000006001812
      13        0.000010895608    -0.000019201414    -0.000016499484
      14        0.000005694399    -0.000004248723    -0.000008787897

  **** Optimization is complete! (in 8 steps) ****
    Final optimized geometry and variables:
    Molecular point group: c1

    Geometry (in Angstrom), charge = 0, multiplicity = 1:

    O           -0.627092059321     1.391293385194    -0.250988329051
    C           -0.818279442001     0.220726382999    -0.181788270713
    C           -2.147073781950    -0.415829262527     0.122028328820
    O            0.111851587586    -0.696488838338    -0.426591788942
    H           -2.413582829011    -1.104337144806    -0.671170140766
    H           -2.902771997904     0.348933530908     0.221880444932
    H           -2.074434967462    -0.986966396386     1.040871362860
    C            1.480713953149    -0.304168624436    -0.365734761652
    C            1.961656884406    -0.199120358842     1.069857073940
    H            1.609118825337     0.628471986504    -0.893793566681
    H            2.010448216506    -1.082483904725    -0.895432299474
    H            3.023106290468     0.027626552400     1.085942186197
    H            1.441368143357     0.591798362143     1.597244865287
    H            1.804221501679    -1.134463087357     1.595832973472

  Mulliken Charges: (a.u.)
   Center  Symbol    Alpha    Beta     Spin     Total
       1     O     4.28166  4.28166  0.00000 -0.56332
       2     C     2.61894  2.61894  0.00000  0.76213
       3     C     3.28235  3.28235  0.00000 -0.56470
       4     O     4.30881  4.30881  0.00000 -0.61762
       5     H     0.39911  0.39911  0.00000  0.20177
       6     H     0.39725  0.39725  0.00000  0.20550
       7     H     0.40193  0.40193  0.00000  0.19613
       8     C     3.00752  3.00752  0.00000 -0.01504
       9     C     3.25701  3.25701  0.00000 -0.51402
      10     H     0.40081  0.40081  0.00000  0.19837
      11     H     0.40940  0.40940  0.00000  0.18120
      12     H     0.41567  0.41567  0.00000  0.16867
      13     H     0.40585  0.40585  0.00000  0.18830
      14     H     0.41369  0.41369  0.00000  0.17263

   Total alpha = 24.00000, Total beta = 24.00000, Total charge = -0.00000
