  ==> Input File <==

--------------------------------------------------------------------------
set {
	reference rhf
	basis 6-31G*
}

set_num_threads( 1 )
memory 2 gb

molecule MOL {
0 1

H	 -0.546505	 4.318054	 1.545152
O	 0.134438	 3.717539	 1.277566
C	 -0.425387	 2.457531	 1.010048
C	 0.692654	 1.522385	 0.584334
H	 -0.923976	 2.064162	 1.894909
H	 -1.171927	 2.529839	 0.220244
C	 0.198102	 0.111031	 0.262842
H	 1.431353	 1.488006	 1.380494
H	 1.187264	 1.952955	 -0.281950
C	 1.331804	 -0.827780	 -0.158768
H	 -0.314612	 -0.294530	 1.131644
H	 -0.541246	 0.157945	 -0.535708
C	 2.723619	 -0.410569	 0.329459
H	 1.342964	 -0.912588	 -1.244120
H	 1.116806	 -1.824343	 0.220779
C	 3.243875	 0.895854	 -0.272975
H	 3.424222	 -1.207124	 0.091250
H	 2.714788	 -0.329854	 1.414619
H	 3.251977	 0.848779	 -1.358681
H	 2.637085	 1.747371	 0.016682
H	 4.259473	 1.094070	 0.055697

	symmetry c1
}
set optking {
	frozen_dihedral = ("
		2 3 4 8,
		8 4 7 10,
		16 13 10 14,
		1 2 3 5
	")
}

ee = energy('scf')
oeprop('DIPOLE', 'QUADRUPOLE', 'MULLIKEN_CHARGES')
f=open( 'psi4out.xyz', 'w' )
f.write( "21  " )
f.write( str(ee) + "\n" )
f.write( MOL.save_string_xyz() )
f.close()
--------------------------------------------------------------------------

    Molecular point group: c1

    Geometry (in Angstrom), charge = 0, multiplicity = 1:

       Center              X                  Y                   Z               Mass
    ------------   -----------------  -----------------  -----------------  -----------------
           H         -1.656483974132     3.180327932868     1.093844979617     1.007825032070
           O         -0.975540974132     2.579812932868     0.826258979617    15.994914619560
           C         -1.535365974132     1.319804932868     0.558740979617    12.000000000000
           C         -0.417324974132     0.384658932868     0.133026979617    12.000000000000
           H         -2.033954974132     0.926435932868     1.443601979617     1.007825032070
           H         -2.281905974132     1.392112932868    -0.231063020383     1.007825032070
           C         -0.911876974132    -1.026695067132    -0.188465020383    12.000000000000
           H          0.321374025868     0.350279932868     0.929186979617     1.007825032070
           H          0.077285025868     0.815228932868    -0.733257020383     1.007825032070
           C          0.221825025868    -1.965506067132    -0.610075020383    12.000000000000
           H         -1.424590974132    -1.432256067132     0.680336979617     1.007825032070
           H         -1.651224974132    -0.979781067132    -0.987015020383     1.007825032070
           C          1.613640025868    -1.548295067132    -0.121848020383    12.000000000000
           H          0.232985025868    -2.050314067132    -1.695427020383     1.007825032070
           H          0.006827025868    -2.962069067132    -0.230528020383     1.007825032070
           C          2.133896025868    -0.241872067132    -0.724282020383    12.000000000000
           H          2.314243025868    -2.344850067132    -0.360057020383     1.007825032070
           H          1.604809025868    -1.467580067132     0.963311979617     1.007825032070
           H          2.141998025868    -0.288947067132    -1.809988020383     1.007825032070
           H          1.527106025868     0.609644932868    -0.434625020383     1.007825032070
           H          3.149494025868    -0.043656067132    -0.395610020383     1.007825032070

  Charge       = 0
  Multiplicity = 1
  Basis Set: 6-31G*
  Basis Set:

    Orbital Energies (a.u.)
    -----------------------

    Doubly Occupied:

       1A    -20.552067     2A    -11.265362     3A    -11.215972
       4A    -11.212694     5A    -11.212079     6A    -11.208078
       7A    -11.194008     8A     -1.358799     9A     -1.093447
      10A     -1.021075    11A     -0.961642    12A     -0.878454
      13A     -0.810522    14A     -0.774533    15A     -0.690366
      16A     -0.661088    17A     -0.632538    18A     -0.613552
      19A     -0.580273    20A     -0.554725    21A     -0.550134
      22A     -0.529166    23A     -0.494208    24A     -0.490342
      25A     -0.485724    26A     -0.450751    27A     -0.448730
      28A     -0.436005    29A     -0.424379

  @DF-RHF Final Energy:  -310.17793253913226

   => Energetics <=

    Nuclear Repulsion Energy =            328.4651654455112748
    One-Electron Energy =               -1071.6847212522914106
    Two-Electron Energy =                 433.0416232676474806
    DFT Exchange-Correlation Energy =       0.0000000000000000
    Empirical Dispersion Energy =           0.0000000000000000
    PCM Polarization Energy =               0.0000000000000000
    EFP Energy =                            0.0000000000000000
    Total Energy =                       -310.1779325391326552

  Mulliken Charges: (a.u.)
   Center  Symbol    Alpha    Beta     Spin     Total
       1     H     0.28091  0.28091  0.00000  0.43819
       2     O     4.37296  4.37296  0.00000 -0.74593
       3     C     2.98569  2.98569  0.00000  0.02862
       4     C     3.18233  3.18233  0.00000 -0.36465
       5     H     0.43386  0.43386  0.00000  0.13228
       6     H     0.43353  0.43353  0.00000  0.13295
       7     C     3.15756  3.15756  0.00000 -0.31511
       8     H     0.40813  0.40813  0.00000  0.18374
       9     H     0.40609  0.40609  0.00000  0.18782
      10     C     3.15387  3.15387  0.00000 -0.30773
      11     H     0.42160  0.42160  0.00000  0.15680
      12     H     0.42069  0.42069  0.00000  0.15861
      13     C     3.16032  3.16032  0.00000 -0.32063
      14     H     0.42202  0.42202  0.00000  0.15596
      15     H     0.41985  0.41985  0.00000  0.16030
      16     C     3.24724  3.24724  0.00000 -0.49448
      17     H     0.41907  0.41907  0.00000  0.16187
      18     H     0.42229  0.42229  0.00000  0.15542
      19     H     0.42490  0.42490  0.00000  0.15021
      20     H     0.40565  0.40565  0.00000  0.18869
      21     H     0.42146  0.42146  0.00000  0.15707

   Total alpha = 29.00000, Total beta = 29.00000, Total charge =  0.00000
