  ==> Input File <==

--------------------------------------------------------------------------
set {
	reference rhf
	basis 6-31G*
}

set_num_threads( 4 )
memory 2 gb

molecule MOL {
0 1

O	 1.279303	 1.139053	 0.691676
C	 0.861134	 0.272526	 -0.014869
C	 -0.623889	 -0.118271	 -0.003699
C	 1.810580	 -0.466220	 -0.941590
C	 -0.895332	 -1.256461	 -1.002431
C	 -1.473649	 1.103340	 -0.370799
C	 -0.983900	 -0.581483	 1.422328
H	 -0.615301	 -0.972064	 -2.012700
H	 -1.954261	 -1.493213	 -1.010207
H	 -0.360539	 -2.164946	 -0.747760
H	 -1.227476	 1.468527	 -1.361691
H	 -2.526716	 0.838935	 -0.358521
H	 -1.314819	 1.915855	 0.325860
H	 -2.039679	 -0.828001	 1.472951
H	 -0.427637	 -1.464071	 1.720694
H	 -0.789023	 0.202493	 2.147048
H	 1.708149	 -0.076171	 -1.949969
H	 2.824540	 -0.294193	 -0.607809
H	 1.613283	 -1.530473	 -0.982354

	symmetry c1
}
set optking {
	frozen_dihedral = ("
		1 2 3 5
	")
}

ee = optimize('scf')
oeprop('DIPOLE', 'QUADRUPOLE', 'MULLIKEN_CHARGES')
f=open( 'psi4out.xyz', 'w' )
f.write( "19  " )
f.write( str(ee) + "\n" )
f.write( MOL.save_string_xyz() )
f.close()
--------------------------------------------------------------------------

    Molecular point group: c1
  Charge       = 0
  Multiplicity = 1
  Basis Set: 6-31G*
  Basis Set:
  @DF-RHF Final Energy:  -309.05951451224081
    Total Energy =                       -309.0595145122408667
    Molecular point group: c1
  Basis Set: 6-31G*
  Basis Set:
  Basis Set: 6-31G*
  Basis Set:
  @DF-RHF Final Energy:  -309.06010076822054
    Total Energy =                       -309.0601007682205363
  Basis Set: 6-31G*
  Basis Set:
  Basis Set: 6-31G*
  Basis Set:
  @DF-RHF Final Energy:  -309.06141627164720
    Total Energy =                       -309.0614162716471469
  Basis Set: 6-31G*
  Basis Set:
  Basis Set: 6-31G*
  Basis Set:
  @DF-RHF Final Energy:  -309.06160279292885
    Total Energy =                       -309.0616027929287384
  Basis Set: 6-31G*
  Basis Set:
  @DF-RHF Final Energy:  -309.06160150942634
    Total Energy =                       -309.0616015094261115
  @DF-RHF Final Energy:  -309.06174123747871
    Total Energy =                       -309.0617412374787705
  Basis Set: 6-31G*
  Basis Set:
  @DF-RHF Final Energy:  -309.06178794398750
    Total Energy =                       -309.0617879439876106
  Basis Set: 6-31G*
  Basis Set:
  Basis Set: 6-31G*
  Basis Set:
  @DF-RHF Final Energy:  -309.06180670353484
    Total Energy =                       -309.0618067035350123
  Basis Set: 6-31G*
  Basis Set:
  Basis Set: 6-31G*
  Basis Set:
  @DF-RHF Final Energy:  -309.06180908049828
    Total Energy =                       -309.0618090804985059
  Basis Set: 6-31G*
  Basis Set:
  Charge       = 0
  Multiplicity = 1
  Basis Set: 6-31G*
  Basis Set:

    Orbital Energies (a.u.)
    -----------------------

    Doubly Occupied:

       1A    -20.547305     2A    -11.323636     3A    -11.246246
       4A    -11.227736     5A    -11.222061     6A    -11.216258
       7A    -11.216240     8A     -1.394533     9A     -1.107528
      10A     -1.003707    11A     -0.940905    12A     -0.939334
      13A     -0.833278    14A     -0.703961    15A     -0.664697
      16A     -0.630769    17A     -0.622711    18A     -0.586763
      19A     -0.584514    20A     -0.573213    21A     -0.552584
      22A     -0.545981    23A     -0.522638    24A     -0.513945
      25A     -0.499925    26A     -0.471494    27A     -0.459761
      28A     -0.391825

  @DF-RHF Final Energy:  -309.06180915487562

   => Energetics <=

    Nuclear Repulsion Energy =            326.1251501868766809
    One-Electron Energy =               -1065.2868254042182343
    Two-Electron Energy =                 430.0998660624659919
    DFT Exchange-Correlation Energy =       0.0000000000000000
    Empirical Dispersion Energy =           0.0000000000000000
    PCM Polarization Energy =               0.0000000000000000
    EFP Energy =                            0.0000000000000000
    Total Energy =                       -309.0618091548755615
    Molecular point group: c1
  Basis Set: 6-31G*
  Basis Set:

  -Total Gradient:
     Atom            X                  Y                   Z
    ------   -----------------  -----------------  -----------------
       1        0.000042633932    -0.000012810439    -0.000021822254
       2       -0.000083237963     0.000037244248    -0.000067468776
       3       -0.000001834423    -0.000009371009     0.000011912611
       4        0.000040254898    -0.000059821985     0.000074644893
       5       -0.000019458583     0.000008109386    -0.000023647148
       6        0.000015047586    -0.000024872855    -0.000000480193
       7       -0.000012146715     0.000009659723     0.000046495650
       8        0.000006248431     0.000003357164    -0.000018691415
       9        0.000000396508     0.000002054596     0.000001618990
      10       -0.000000778478     0.000005975647     0.000004707546
      11        0.000014601964     0.000009357802     0.000003149685
      12        0.000009837963    -0.000011173075    -0.000006977369
      13       -0.000008893616     0.000001081554     0.000008489097
      14        0.000005640299    -0.000005938093     0.000010351290
      15       -0.000004675748     0.000001599903    -0.000003056328
      16       -0.000022486371     0.000002915046     0.000007772156
      17       -0.000020938151     0.000031029958     0.000028730579
      18        0.000010544178     0.000011809153    -0.000033007873
      19        0.000029244288    -0.000000206727    -0.000022721141

  **** Optimization is complete! (in 10 steps) ****
    Final optimized geometry and variables:
    Molecular point group: c1

    Geometry (in Angstrom), charge = 0, multiplicity = 1:

    O            1.243754769554     1.101447337876     0.770286960387
    C            0.872279315226     0.245089310873     0.025179229852
    C           -0.618234973267    -0.147380670014     0.008290146274
    C            1.863070048309    -0.443239885718    -0.891245271376
    C           -0.950878625098    -1.259561128408    -0.996261354964
    C           -1.421254155038     1.117252283376    -0.343784221392
    C           -0.986639993134    -0.612603901594     1.428237845273
    H           -0.723585514659    -0.971204079657    -2.017516340737
    H           -2.012043806538    -1.481793735784    -0.952236009617
    H           -0.419007114566    -2.180365688207    -0.779552530664
    H           -1.178594572506     1.475200760601    -1.340759486948
    H           -2.485327132231     0.902915423312    -0.319466980687
    H           -1.212276274174     1.912532950740     0.359681989264
    H           -2.044331325656    -0.852142517298     1.480293453284
    H           -0.431554966706    -1.503639995863     1.709090291052
    H           -0.771092094941     0.161142937774     2.153390583545
    H            1.587086818279    -0.309246560372    -1.932076099110
    H            2.843149330088    -0.020262965985    -0.721730319554
    H            1.892499540276    -1.511106999366    -0.700831198126

  Mulliken Charges: (a.u.)
   Center  Symbol    Alpha    Beta     Spin     Total
       1     O     4.26784  4.26784  0.00000 -0.53569
       2     C     2.72777  2.72777  0.00000  0.54446
       3     C     3.06045  3.06045  0.00000 -0.12090
       4     C     3.28948  3.28948  0.00000 -0.57897
       5     C     3.24008  3.24008  0.00000 -0.48016
       6     C     3.23659  3.23659  0.00000 -0.47318
       7     C     3.23660  3.23660  0.00000 -0.47319
       8     H     0.41837  0.41837  0.00000  0.16326
       9     H     0.41412  0.41412  0.00000  0.17176
      10     H     0.41837  0.41837  0.00000  0.16326
      11     H     0.42047  0.42047  0.00000  0.15906
      12     H     0.41815  0.41815  0.00000  0.16370
      13     H     0.40138  0.40138  0.00000  0.19725
      14     H     0.41815  0.41815  0.00000  0.16370
      15     H     0.42046  0.42046  0.00000  0.15908
      16     H     0.40136  0.40136  0.00000  0.19727
      17     H     0.40752  0.40752  0.00000  0.18497
      18     H     0.39540  0.39540  0.00000  0.20921
      19     H     0.40745  0.40745  0.00000  0.18510

   Total alpha = 28.00000, Total beta = 28.00000, Total charge =  0.00000
