  ==> Input File <==

--------------------------------------------------------------------------
set {
	reference rhf
	basis cc-pvtz
}

set_num_threads( 4 )
memory 2 gb

molecule MOL {
0 1

H	 1.351567	 -2.119154	 -0.665860
C	 0.411423	 -1.611671	 -0.801593
O	 0.462329	 -0.453336	 -0.000137
H	 -0.393731	 -2.265532	 -0.491092
H	 0.292277	 -1.357369	 -1.847238
C	 -0.590565	 0.341382	 0.000062
O	 -1.693898	 -0.053880	 0.000252
H	 -0.340426	 1.403822	 0.000200

	symmetry c1
}
set optking {
	frozen_dihedral = ("
		2 3 6 7
	")
}

ee = optimize('scf')
oeprop('DIPOLE', 'QUADRUPOLE', 'MULLIKEN_CHARGES')
f=open( 'psi4out.xyz', 'w' )
f.write( "8  " )
f.write( str(ee) + "\n" )
f.write( MOL.save_string_xyz() )
f.close()
--------------------------------------------------------------------------

    Molecular point group: c1
  Charge       = 0
  Multiplicity = 1
  Basis Set: CC-PVTZ
  Basis Set:
  @DF-RHF Final Energy:  -227.86939867869978
    Total Energy =                       -227.8693986786998380
    Molecular point group: c1
  Basis Set: CC-PVTZ
  Basis Set:
  Basis Set: CC-PVTZ
  Basis Set:
  @DF-RHF Final Energy:  -227.86393880724478
    Total Energy =                       -227.8639388072447218
  Basis Set: CC-PVTZ
  Basis Set:
  Basis Set: CC-PVTZ
  Basis Set:
  @DF-RHF Final Energy:  -227.87006252876387
    Total Energy =                       -227.8700625287639241
  Basis Set: CC-PVTZ
  Basis Set:
  Basis Set: CC-PVTZ
  Basis Set:
  @DF-RHF Final Energy:  -227.87066394234458
    Total Energy =                       -227.8706639423444642
  Basis Set: CC-PVTZ
  Basis Set:
  Basis Set: CC-PVTZ
  Basis Set:
  @DF-RHF Final Energy:  -227.87066739722360
    Total Energy =                       -227.8706673972237979
  Basis Set: CC-PVTZ
  Basis Set:
  Charge       = 0
  Multiplicity = 1
  Basis Set: CC-PVTZ
  Basis Set:

    Orbital Energies (a.u.)
    -----------------------

    Doubly Occupied:

       1A    -20.601627     2A    -20.553333     3A    -11.373886
       4A    -11.290054     5A     -1.477422     6A     -1.381305
       7A     -0.995339     8A     -0.823036     9A     -0.744890
      10A     -0.686696    11A     -0.677807    12A     -0.611384
      13A     -0.562261    14A     -0.528713    15A     -0.471735
      16A     -0.458829

  @DF-RHF Final Energy:  -227.87066765416972

   => Energetics <=

    Nuclear Repulsion Energy =            123.2463886104482498
    One-Electron Energy =                -555.7574748606766661
    Two-Electron Energy =                 204.6404185960588791
    DFT Exchange-Correlation Energy =       0.0000000000000000
    Empirical Dispersion Energy =           0.0000000000000000
    PCM Polarization Energy =               0.0000000000000000
    EFP Energy =                            0.0000000000000000
    Total Energy =                       -227.8706676541695231
    Molecular point group: c1
  Basis Set: CC-PVTZ
  Basis Set:

  -Total Gradient:
     Atom            X                  Y                   Z
    ------   -----------------  -----------------  -----------------
       1       -0.000006746295    -0.000019398512    -0.000015646121
       2        0.003093258236     0.004039397544    -0.006142018080
       3       -0.004640932162    -0.005926256633     0.014684286193
       4        0.000003890183    -0.000002327662    -0.000006533555
       5        0.000004266928    -0.000001804817    -0.000008250804
       6        0.001563498844     0.001705781904    -0.019022542627
       7       -0.000002941529     0.000209426677     0.010506052585
       8       -0.000014294208    -0.000004818501     0.000004652409

  **** Optimization is complete! (in 6 steps) ****
    Final optimized geometry and variables:
    Molecular point group: c1

    Geometry (in Angstrom), charge = 0, multiplicity = 1:

    H            1.732255052753    -1.649844720035    -0.446087075692
    C            0.775924299008    -1.170555336935    -0.573379671950
    O            0.816928606930     0.009109561838     0.211617591895
    H           -0.015163249734    -1.827515693529    -0.245665308604
    H            0.629208349327    -0.917091461647    -1.614451964601
    C           -0.246213917977     0.794829359289     0.195174981025
    O           -1.365100616538     0.433857891162     0.200207462766
    H            0.046416679848     1.837941790387     0.273460339558

  Mulliken Charges: (a.u.)
   Center  Symbol    Alpha    Beta     Spin     Total
       1     H     0.44490  0.44490  0.00000  0.11021
       2     C     3.02670  3.02670  0.00000 -0.05340
       3     O     4.14730  4.14730  0.00000 -0.29460
       4     H     0.44807  0.44807  0.00000  0.10386
       5     H     0.46076  0.46076  0.00000  0.07848
       6     C     2.83351  2.83351  0.00000  0.33299
       7     O     4.18361  4.18361  0.00000 -0.36721
       8     H     0.45517  0.45517  0.00000  0.08967

   Total alpha = 16.00000, Total beta = 16.00000, Total charge =  0.00000
