                              Psi4 1.0.54 Driver

  ==> Input File <==

--------------------------------------------------------------------------
set {
	reference rhf
	basis cc-pvtz
}

set_num_threads( 4 )
memory 2 gb

molecule MOL {
0 1

H	 -3.436473	 1.252944	 -1.023892
O	 -3.458596	 0.315260	 -0.960865
C	 -3.176635	 -0.080824	 0.355601
C	 -1.763371	 0.265266	 0.799691
H	 -3.321825	 -1.153438	 0.379502
H	 -3.895468	 0.357385	 1.043382
C	 -0.673390	 -0.426948	 -0.013392
H	 -1.631049	 1.344913	 0.747560
H	 -1.664587	 -0.001624	 1.849167
C	 0.737842	 -0.043159	 0.423759
H	 -0.806103	 -0.190518	 -1.063345
H	 -0.797221	 -1.503753	 0.074146
C	 1.824000	 -0.743224	 -0.390623
H	 0.850588	 1.033777	 0.343840
H	 0.868587	 -0.286314	 1.476203
C	 3.255957	 -0.453067	 0.062319
H	 1.718250	 -0.470599	 -1.438164
H	 1.658105	 -1.815850	 -0.339904
C	 3.370229	 0.518991	 1.234150
H	 3.806432	 -0.046611	 -0.780620
H	 3.746493	 -1.387917	 0.320874
H	 2.882878	 1.461734	 1.006550
H	 4.409594	 0.731284	 1.457518
H	 2.918820	 0.122799	 2.135742

	symmetry c1
}
set optking {
	frozen_dihedral = ("
		20 16 13 17
	")
}

ee,wfn = optimize('scf', return_wfn=True)
oeprop( wfn, 'DIPOLE', 'QUADRUPOLE', 'MULLIKEN_CHARGES')
f=open( 'psi4out.xyz', 'w' )
f.write( "24  " )
f.write( str(ee) + "\n" )
f.write( MOL.save_string_xyz() )
f.close()
--------------------------------------------------------------------------

    Molecular point group: c1
  Charge       = 0
  Multiplicity = 1
  Basis Set: CC-PVTZ
  Basis Set:
  @DF-RHF Final Energy:  -349.36984820729504
    Total Energy =                       -349.3698482072948650
    Molecular point group: c1
  Basis Set: CC-PVTZ
  Basis Set:
  Basis Set: CC-PVTZ
  Basis Set:
  @DF-RHF Final Energy:  -349.05874393979292
    Total Energy =                       -349.0587439397924641
  Basis Set: CC-PVTZ
  Basis Set:
  Basis Set: CC-PVTZ
  Basis Set:
  @DF-RHF Final Energy:  -349.21949041210615
    Total Energy =                       -349.2194904121063814
  Basis Set: CC-PVTZ
  Basis Set:
  Basis Set: CC-PVTZ
  Basis Set:
  @DF-RHF Final Energy:  -349.34628076844132
    Total Energy =                       -349.3462807684409199
  Basis Set: CC-PVTZ
  Basis Set:
  @DF-RHF Final Energy:  -349.36986461046763
    Total Energy =                       -349.3698646104673458
  @DF-RHF Final Energy:  -349.37166171318228
    Total Energy =                       -349.3716617131823909
  Basis Set: CC-PVTZ
  Basis Set:
  @DF-RHF Final Energy:  -349.37190896480951
    Total Energy =                       -349.3719089648091654
  Basis Set: CC-PVTZ
  Basis Set:
  Basis Set: CC-PVTZ
  Basis Set:
  @DF-RHF Final Energy:  -349.37192142894133
    Total Energy =                       -349.3719214289417323
  Basis Set: CC-PVTZ
  Basis Set:
  Basis Set: CC-PVTZ
  Basis Set:
  @DF-RHF Final Energy:  -349.37192319184896
    Total Energy =                       -349.3719231918489072
  Basis Set: CC-PVTZ
  Basis Set:
  Charge       = 0
  Multiplicity = 1
  Basis Set: CC-PVTZ
  Basis Set:

    Orbital Energies (a.u.)
    -----------------------

    Doubly Occupied:

       1A    -20.546196     2A    -11.265426     3A    -11.215021
       4A    -11.212301     5A    -11.210141     6A    -11.209482
       7A    -11.208663     8A    -11.205299     9A     -1.364025
      10A     -1.087691    11A     -1.046325    12A     -0.986296
      13A     -0.915991    14A     -0.854952    15A     -0.802809
      16A     -0.768675    17A     -0.681715    18A     -0.657615
      19A     -0.629508    20A     -0.618609    21A     -0.591199
      22A     -0.588024    23A     -0.554168    24A     -0.545384
      25A     -0.515749    26A     -0.510440    27A     -0.502909
      28A     -0.472727    29A     -0.469317    30A     -0.459855
      31A     -0.452738    32A     -0.443382    33A     -0.421224

  @DF-RHF Final Energy:  -349.37192362602650

   => Energetics <=

    Nuclear Repulsion Energy =            385.3684697587145820
    One-Electron Energy =               -1237.4530804849925971
    Two-Electron Energy =                 502.7126871002514008
    DFT Exchange-Correlation Energy =       0.0000000000000000
    Empirical Dispersion Energy =           0.0000000000000000
    PCM Polarization Energy =               0.0000000000000000
    EFP Energy =                            0.0000000000000000
    Total Energy =                       -349.3719236260266143
    Molecular point group: c1
  Basis Set: CC-PVTZ
  Basis Set:

  -Total Gradient:
     Atom            X                  Y                   Z
    ------   -----------------  -----------------  -----------------
       1       -0.000002106187     0.000002855266    -0.000012229782
       2        0.000004810669     0.000005898940    -0.000017499095
       3        0.000003071903    -0.000011473956     0.000032309381
       4       -0.000008153713    -0.000004971729    -0.000010477809
       5       -0.000005868258    -0.000010803721     0.000011704842
       6       -0.000006488152     0.000008356917     0.000000599445
       7        0.000015803112     0.000008203324    -0.000005875579
       8        0.000004744870     0.000012506502    -0.000010952177
       9       -0.000001978035     0.000001855392     0.000013349112
      10        0.000008605553    -0.000004327612    -0.000010562118
      11       -0.000003579858     0.000004213151    -0.000016388754
      12       -0.000000583778    -0.000012651988     0.000011035593
      13        0.000007047024     0.000004158739     0.000007726781
      14        0.000000355201     0.000017953131    -0.000011534563
      15        0.000007120854     0.000009174547     0.000020000346
      16       -0.000011548251    -0.000024777710     0.000002637528
      17        0.000001386804    -0.000003351908    -0.000014801736
      18        0.000003459640    -0.000018892205     0.000011271136
      19       -0.000006714941     0.000002882462     0.000004632105
      20       -0.000001504978     0.000004389311    -0.000016126538
      21        0.000002467220    -0.000010430123     0.000010114602
      22       -0.000004151813     0.000012657412    -0.000008262148
      23        0.000000680830     0.000002633786    -0.000000559156
      24       -0.000006875721     0.000003942072     0.000009888586

  **** Optimization is complete! (in 10 steps) ****
    Final optimized geometry and variables:
    Molecular point group: c1

    Geometry (in Angstrom), charge = 0, multiplicity = 1:

    H           -3.319967935138     0.867150142130    -1.736030167814
    O           -3.421750705769     0.085259437200    -1.224196839802
    C           -3.146202311111     0.359205397096     0.124289961351
    C           -1.698738858068     0.754396549490     0.375534560979
    H           -3.383317992566    -0.548439819078     0.664814408893
    H           -3.809129840591     1.137414900001     0.494104390286
    C           -0.691016466920    -0.337375969822     0.027471173632
    H           -1.474915722375     1.655943884716    -0.192834875250
    H           -1.600249995642     1.025197972073     1.424034839790
    C            0.757388779363     0.087709394526     0.256137563601
    H           -0.826113142598    -0.631610807880    -1.007441391349
    H           -0.906240073419    -1.219995118578     0.625270391171
    C            1.747627922452    -1.025457260627    -0.087871183029
    H            0.964590728716     0.968792302294    -0.343828317594
    H            0.879579604815     0.388208463175     1.292511106136
    C            3.258849289515    -0.720284048554     0.096884275043
    H            1.574302427840    -1.319385184759    -1.118048848196
    H            1.492441836171    -1.895571805828     0.508529968991
    C            3.637676824497     0.669729257926     0.607956493520
    H            3.763964019095    -0.877093249325    -0.849957676257
    H            3.681552758329    -1.452492621446     0.776181401136
    H            3.305435277938     1.454279245498    -0.061312460622
    H            4.715818875750     0.748572824040     0.690951833888
    H            3.221055480292     0.871060429504     1.587590857489

  Mulliken Charges: (a.u.)
   Center  Symbol    Alpha    Beta     Spin     Total
       1     H     0.39533  0.39533  0.00000  0.20933
       2     O     4.20379  4.20379  0.00000 -0.40757
       3     C     2.97763  2.97763  0.00000  0.04474
       4     C     3.10209  3.10209  0.00000 -0.20418
       5     H     0.45878  0.45878  0.00000  0.08244
       6     H     0.46032  0.46032  0.00000  0.07936
       7     C     3.08803  3.08803  0.00000 -0.17606
       8     H     0.45931  0.45931  0.00000  0.08138
       9     H     0.45352  0.45352  0.00000  0.09295
      10     C     3.08765  3.08765  0.00000 -0.17531
      11     H     0.44662  0.44662  0.00000  0.10676
      12     H     0.45566  0.45566  0.00000  0.08868
      13     C     3.10070  3.10070  0.00000 -0.20140
      14     H     0.45385  0.45385  0.00000  0.09230
      15     H     0.45449  0.45449  0.00000  0.09101
      16     C     3.08746  3.08746  0.00000 -0.17492
      17     H     0.45107  0.45107  0.00000  0.09787
      18     H     0.45150  0.45150  0.00000  0.09701
      19     C     3.15696  3.15696  0.00000 -0.31391
      20     H     0.45168  0.45168  0.00000  0.09664
      21     H     0.45173  0.45173  0.00000  0.09653
      22     H     0.45372  0.45372  0.00000  0.09256
      23     H     0.44455  0.44455  0.00000  0.11089
      24     H     0.45355  0.45355  0.00000  0.09290

   Total alpha = 33.00000, Total beta = 33.00000, Total charge = -0.00000

*** Psi4 exiting successfully. Buy a developer a beer!
