  ==> Input File <==

--------------------------------------------------------------------------
set {
	reference rhf
	basis 6-31G*
}

set_num_threads( 4 )
memory 2 gb

molecule MOL {
0 1

H	 -3.303043	 0.037579	 1.427437
C	 -3.328030	 -0.078733	 0.336809
C	 -2.619536	 1.004511	 -0.435998
O	 -3.885893	 -1.006860	 -0.152190
C	 -1.180162	 1.227778	 0.048366
H	 -2.650737	 0.749760	 -1.489011
H	 -3.190377	 1.921884	 -0.297355
C	 -0.252658	 0.041456	 -0.226725
H	 -0.786572	 2.114242	 -0.440053
H	 -1.187927	 1.448170	 1.114726
C	 1.180775	 0.282413	 0.250794
H	 -0.249485	 -0.167688	 -1.294478
H	 -0.644958	 -0.852887	 0.253682
C	 2.148627	 -0.814315	 -0.201312
H	 1.516199	 1.249228	 -0.115937
H	 1.192670	 0.346017	 1.338083
C	 3.580890	 -0.659131	 0.322722
H	 2.166869	 -0.852443	 -1.289387
H	 1.762857	 -1.776509	 0.128956
C	 4.324889	 0.564933	 -0.213704
H	 4.142010	 -1.551473	 0.056605
H	 3.564836	 -0.624694	 1.410140
H	 4.342616	 0.565491	 -1.300421
H	 3.866655	 1.493402	 0.110242
H	 5.353900	 0.572371	 0.132816

	symmetry c1
}
set optking {
	frozen_dihedral = ("
		12 8 11 14
	")
}

ee = optimize('scf')
oeprop('DIPOLE', 'QUADRUPOLE', 'MULLIKEN_CHARGES')
f=open( 'psi4out.xyz', 'w' )
f.write( "25  " )
f.write( str(ee) + "\n" )
f.write( MOL.save_string_xyz() )
f.close()
--------------------------------------------------------------------------

    Molecular point group: c1
  Charge       = 0
  Multiplicity = 1
  Basis Set: 6-31G*
  Basis Set:
  @DF-RHF Final Energy:  -387.12182693120792
    Total Energy =                       -387.1218269312079201
    Molecular point group: c1
  Basis Set: 6-31G*
  Basis Set:
  Basis Set: 6-31G*
  Basis Set:
  @DF-RHF Final Energy:  -387.12150464120748
    Total Energy =                       -387.1215046412074798
  Basis Set: 6-31G*
  Basis Set:
  Basis Set: 6-31G*
  Basis Set:
  @DF-RHF Final Energy:  -387.12172519932432
    Total Energy =                       -387.1217251993241462
  Basis Set: 6-31G*
  Basis Set:
  Basis Set: 6-31G*
  Basis Set:
  @DF-RHF Final Energy:  -387.12183784456084
    Total Energy =                       -387.1218378445603321
  Basis Set: 6-31G*
  Basis Set:
  Basis Set: 6-31G*
  Basis Set:
  @DF-RHF Final Energy:  -387.12186102022594
    Total Energy =                       -387.1218610202250829
  Basis Set: 6-31G*
  Basis Set:
  Basis Set: 6-31G*
  Basis Set:
  @DF-RHF Final Energy:  -387.12185941985308
    Total Energy =                       -387.1218594198530809
  Basis Set: 6-31G*
  Basis Set:
  Charge       = 0
  Multiplicity = 1
  Basis Set: 6-31G*
  Basis Set:

    Orbital Energies (a.u.)
    -----------------------

    Doubly Occupied:

       1A    -20.562029     2A    -11.326205     3A    -11.235422
       4A    -11.234712     5A    -11.223947     6A    -11.219848
       7A    -11.218067     8A    -11.217060     9A    -11.210767
      10A     -1.401991    11A     -1.104060    12A     -1.069800
      13A     -1.013359    14A     -0.942492    15A     -0.875446
      16A     -0.821005    17A     -0.788095    18A     -0.781248
      19A     -0.664901    20A     -0.660847    21A     -0.633354
      22A     -0.625752    23A     -0.602165    24A     -0.595071
      25A     -0.574241    26A     -0.551222    27A     -0.534603
      28A     -0.524904    29A     -0.509317    30A     -0.495266
      31A     -0.491438    32A     -0.479175    33A     -0.464810
      34A     -0.458739    35A     -0.441290    36A     -0.409589

  @DF-RHF Final Energy:  -387.12185888118523

   => Energetics <=

    Nuclear Repulsion Energy =            439.1731538087747708
    One-Electron Energy =               -1394.6655518799348101
    Two-Electron Energy =                 568.3705391899750339
    DFT Exchange-Correlation Energy =       0.0000000000000000
    Empirical Dispersion Energy =           0.0000000000000000
    PCM Polarization Energy =               0.0000000000000000
    EFP Energy =                            0.0000000000000000
    Total Energy =                       -387.1218588811850623
    Molecular point group: c1
  Basis Set: 6-31G*
  Basis Set:

  -Total Gradient:
     Atom            X                  Y                   Z
    ------   -----------------  -----------------  -----------------
       1       -0.000004840953    -0.000004732407    -0.000002874090
       2        0.000019516916    -0.000076338631    -0.000019379194
       3        0.000042582258    -0.000051832249    -0.000015288901
       4        0.000017764679     0.000016266827     0.000017194988
       5        0.000093307582     0.000037489909    -0.000152337266
       6        0.000003819758     0.000060151472    -0.000000075288
       7        0.000025940132    -0.000000266088     0.000064087267
       8       -0.000147986907     0.001820629673    -0.000514144906
       9       -0.000007970508     0.000033320379    -0.000034175119
      10        0.000016619753    -0.000017500026    -0.000034765579
      11       -0.000217782611    -0.000955429017     0.001036522896
      12        0.000180161695    -0.001313022497     0.000337714199
      13       -0.000094930775    -0.000066125478     0.000074595034
      14        0.000101037812     0.000507188692    -0.000872725538
      15       -0.000011662377     0.000066902957     0.000047154446
      16        0.000004982226    -0.000128662888    -0.000035090279
      17       -0.000022740962     0.000043896946     0.000075127576
      18       -0.000043233427     0.000015038839    -0.000015137744
      19       -0.000014188859     0.000005308793     0.000025622234
      20       -0.000007792666     0.000013248308     0.000007599575
      21       -0.000036780886     0.000025320155    -0.000013098466
      22        0.000065820951    -0.000013981629     0.000025694955
      23        0.000012848068    -0.000008882489    -0.000006726953
      24        0.000021862894    -0.000016791791    -0.000013946381
      25        0.000003646214     0.000008802240     0.000018452535

  **** Optimization is complete! (in 7 steps) ****
    Final optimized geometry and variables:
    Molecular point group: c1

    Geometry (in Angstrom), charge = 0, multiplicity = 1:

    H           -3.274855036876    -0.017574167382     1.484524794988
    C           -3.316279848175    -0.144730958146     0.395518759118
    C           -2.632096235725     0.938520441721    -0.399058130612
    O           -3.877475609189    -1.080283281825    -0.075231191263
    C           -1.185953821053     1.178692219730     0.055946541302
    H           -2.680574525686     0.675004736850    -1.449302185122
    H           -3.208292616407     1.851923122680    -0.256932983049
    C           -0.254879989159    -0.003746757839    -0.219758429609
    H           -0.807883170722     2.062007784592    -0.450424580961
    H           -1.176055022431     1.412132875114     1.119393634808
    C            1.181134642171     0.240970776628     0.249335984413
    H           -0.257444824274    -0.225653291021    -1.284896274241
    H           -0.639820310299    -0.898158608449     0.267448737699
    C            2.144609698442    -0.862922594863    -0.194138142148
    H            1.519785778802     1.200585225666    -0.133679207277
    H            1.196607200278     0.322005119895     1.335016226413
    C            3.570095996994    -0.726104961372     0.352908360697
    H            2.178702573700    -0.891863737561    -1.281896263670
    H            1.744581162946    -1.824169001072     0.122140129775
    C            4.330215185496     0.501526542831    -0.152502708546
    H            4.128821999490    -1.618105724724     0.081011251116
    H            3.538129464254    -0.708946804103     1.440454866707
    H            4.369370765156     0.516490416555    -1.238467638801
    H            3.870426386621     1.428102231931     0.174969213794
    H            5.352188317823     0.499200231440     0.213809638578

  Mulliken Charges: (a.u.)
   Center  Symbol    Alpha    Beta     Spin     Total
       1     H     0.43260  0.43260  0.00000  0.13479
       2     C     2.83084  2.83084  0.00000  0.33832
       3     C     3.20814  3.20814  0.00000 -0.41627
       4     O     4.23780  4.23780  0.00000 -0.47560
       5     C     3.16655  3.16655  0.00000 -0.33310
       6     H     0.39968  0.39968  0.00000  0.20064
       7     H     0.40661  0.40661  0.00000  0.18678
       8     C     3.15521  3.15521  0.00000 -0.31042
       9     H     0.41274  0.41274  0.00000  0.17452
      10     H     0.41960  0.41960  0.00000  0.16080
      11     C     3.15418  3.15418  0.00000 -0.30835
      12     H     0.41797  0.41797  0.00000  0.16405
      13     H     0.41824  0.41824  0.00000  0.16351
      14     C     3.15333  3.15333  0.00000 -0.30667
      15     H     0.42122  0.42122  0.00000  0.15755
      16     H     0.42320  0.42320  0.00000  0.15359
      17     C     3.15276  3.15276  0.00000 -0.30552
      18     H     0.42301  0.42301  0.00000  0.15398
      19     H     0.42054  0.42054  0.00000  0.15892
      20     C     3.24144  3.24144  0.00000 -0.48287
      21     H     0.41997  0.41997  0.00000  0.16006
      22     H     0.42316  0.42316  0.00000  0.15368
      23     H     0.42197  0.42197  0.00000  0.15606
      24     H     0.42059  0.42059  0.00000  0.15882
      25     H     0.41863  0.41863  0.00000  0.16274

   Total alpha = 36.00000, Total beta = 36.00000, Total charge =  0.00000
