  ==> Input File <==

--------------------------------------------------------------------------
set {
	reference rhf
	basis cc-pvtz
}

set_num_threads( 4 )
memory 2 gb

molecule MOL {
0 1

H	 2.867672	 -0.456275	 0.875795
C	 2.403497	 -0.020426	 0.000000
N	 0.989899	 -0.304564	 0.000000
H	 2.867672	 -0.456275	 -0.875795
H	 2.620366	 1.051270	 0.000000
C	 0.493171	 -0.641469	 -1.318076
C	 0.209742	 0.768603	 0.580719
H	 0.636155	 0.184083	 -2.022180
H	 1.041639	 -1.495490	 -1.698285
C	 -0.982759	 -0.983111	 -1.246287
H	 0.550249	 0.949198	 1.593718
H	 0.331408	 1.700214	 0.019433
C	 -1.258906	 0.390731	 0.603720
H	 -1.382983	 -1.146204	 -2.237170
H	 -1.117415	 -1.893506	 -0.665644
O	 -1.714977	 0.059969	 -0.674459
H	 -1.858740	 1.220702	 0.950093
H	 -1.407852	 -0.448573	 1.280096

	symmetry c1
}
set optking {
	frozen_dihedral = ("
		6 3 2 5
	")
}

ee = optimize('scf')
oeprop('DIPOLE', 'QUADRUPOLE', 'MULLIKEN_CHARGES')
f=open( 'psi4out.xyz', 'w' )
f.write( "18  " )
f.write( str(ee) + "\n" )
f.write( MOL.save_string_xyz() )
f.close()
--------------------------------------------------------------------------

    Molecular point group: c1
  Charge       = 0
  Multiplicity = 1
  Basis Set: CC-PVTZ
  Basis Set:
  @DF-RHF Final Energy:  -325.14135877387429
    Total Energy =                       -325.1413587738740034
    Molecular point group: c1
  Basis Set: CC-PVTZ
  Basis Set:
  Basis Set: CC-PVTZ
  Basis Set:
  @DF-RHF Final Energy:  -325.14185468971101
    Total Energy =                       -325.1418546897109536
  Basis Set: CC-PVTZ
  Basis Set:
  Basis Set: CC-PVTZ
  Basis Set:
  @DF-RHF Final Energy:  -325.14195086568424
    Total Energy =                       -325.1419508656846347
  Basis Set: CC-PVTZ
  Basis Set:
  Charge       = 0
  Multiplicity = 1
  Basis Set: CC-PVTZ
  Basis Set:

    Orbital Energies (a.u.)
    -----------------------

    Doubly Occupied:

       1A    -20.547213     2A    -15.541002     3A    -11.263917
       4A    -11.263751     5A    -11.242591     6A    -11.242497
       7A    -11.239063     8A     -1.386031     9A     -1.230533
      10A     -1.039223    11A     -0.981493    12A     -0.884232
      13A     -0.870053    14A     -0.773158    15A     -0.684617
      16A     -0.646381    17A     -0.644896    18A     -0.634030
      19A     -0.627960    20A     -0.572785    21A     -0.558681
      22A     -0.543745    23A     -0.528142    24A     -0.500379
      25A     -0.486990    26A     -0.453740    27A     -0.410253
      28A     -0.347953

  @DF-RHF Final Energy:  -325.14195653254581

   => Energetics <=

    Nuclear Repulsion Energy =            341.4980821148421910
    One-Electron Energy =               -1118.9894524193125562
    Two-Electron Energy =                 452.3494137719242190
    DFT Exchange-Correlation Energy =       0.0000000000000000
    Empirical Dispersion Energy =           0.0000000000000000
    PCM Polarization Energy =               0.0000000000000000
    EFP Energy =                            0.0000000000000000
    Total Energy =                       -325.1419565325461463
    Molecular point group: c1
  Basis Set: CC-PVTZ
  Basis Set:

  -Total Gradient:
     Atom            X                  Y                   Z
    ------   -----------------  -----------------  -----------------
       1       -0.000057131106    -0.000012272858     0.000013230280
       2        0.000713459936    -0.001363297222    -0.005563659950
       3       -0.000786413285     0.004625822587     0.000370307641
       4       -0.000050621735    -0.000031154574    -0.000002083921
       5       -0.000201528226     0.000059018553     0.004535945496
       6        0.000507421679    -0.003312892653     0.000598322407
       7       -0.000060631442     0.000087835231    -0.000031377225
       8       -0.000007869788    -0.000040768116     0.000069359178
       9        0.000000696448     0.000017606648     0.000056760712
      10       -0.000019152389     0.000024836669    -0.000054480065
      11        0.000010039948    -0.000045237447    -0.000034327047
      12        0.000005710235    -0.000044456693     0.000016310693
      13       -0.000019732840     0.000042150402     0.000025542041
      14       -0.000063257938    -0.000025894820    -0.000036393539
      15        0.000022809601     0.000042918989    -0.000000135150
      16        0.000063955730    -0.000050401542     0.000046880570
      17       -0.000067824345     0.000012752406     0.000011034043
      18        0.000010069511     0.000013434439    -0.000021236165

  **** Optimization is complete! (in 4 steps) ****
    Final optimized geometry and variables:
    Molecular point group: c1

    Geometry (in Angstrom), charge = 0, multiplicity = 1:

    H            2.816626300504    -0.331451772593     1.229927845168
    C            2.396969583865     0.067353935070     0.311893448829
    N            0.971243403746    -0.175957180744     0.264142125751
    H            2.896076549100    -0.415611951129    -0.516862225934
    H            2.638903803874     1.130018045096     0.293785321939
    C            0.464950197815    -0.535481666573    -1.042318971406
    C            0.189017915038     0.871446421228     0.878974481542
    H            0.587826939206     0.275788554723    -1.767064839376
    H            1.012288616324    -1.393552636128    -1.413240060313
    C           -1.007084920113    -0.889039863762    -0.942921248955
    H            0.541577812113     1.033071523101     1.891664664624
    H            0.293370123076     1.817888191832     0.339153936336
    C           -1.275097243704     0.476900423480     0.914553264392
    H           -1.423963882036    -1.060485120416    -1.925687914154
    H           -1.122156352095    -1.797982306386    -0.355624767908
    O           -1.739016263419     0.148902889591    -0.361410878139
    H           -1.881368800149     1.297590026827     1.272173158342
    H           -1.407967513792    -0.368631601683     1.586570297711

  Mulliken Charges: (a.u.)
   Center  Symbol    Alpha    Beta     Spin     Total
       1     H     0.44997  0.44997  0.00000  0.10005
       2     C     3.09255  3.09255  0.00000 -0.18511
       3     N     3.61845  3.61845  0.00000 -0.23690
       4     H     0.45472  0.45472  0.00000  0.09057
       5     H     0.46561  0.46561  0.00000  0.06877
       6     C     3.03931  3.03931  0.00000 -0.07862
       7     C     3.04086  3.04086  0.00000 -0.08171
       8     H     0.46996  0.46996  0.00000  0.06007
       9     H     0.45426  0.45426  0.00000  0.09148
      10     C     2.98406  2.98406  0.00000  0.03187
      11     H     0.45422  0.45422  0.00000  0.09156
      12     H     0.46879  0.46879  0.00000  0.06242
      13     C     2.98394  2.98394  0.00000  0.03212
      14     H     0.45003  0.45003  0.00000  0.09994
      15     H     0.46842  0.46842  0.00000  0.06317
      16     O     4.18647  4.18647  0.00000 -0.37294
      17     H     0.45011  0.45011  0.00000  0.09978
      18     H     0.46825  0.46825  0.00000  0.06349

   Total alpha = 28.00000, Total beta = 28.00000, Total charge = -0.00000
