  ==> Input File <==

--------------------------------------------------------------------------
set {
	reference rhf
	basis 6-31G*
}

set_num_threads( 4 )
memory 2 gb

molecule MOL {
0 1

H	 -2.646374	 -0.642757	 1.268656
C	 -2.083525	 -0.384536	 0.393091
O	 -0.807605	 -0.127164	 0.768327
F	 -2.118945	 -1.383102	 -0.486752
F	 -2.621877	 0.670592	 -0.209486
C	 0.084052	 0.273579	 -0.209957
C	 1.353033	 -0.546803	 -0.018071
Cl	 0.433844	 2.004619	 -0.074457
H	 -0.288836	 0.092657	 -1.202930
F	 1.053776	 -1.798220	 0.258588
F	 2.027833	 -0.052574	 1.000664
F	 2.123630	 -0.521342	 -1.078027

	symmetry c1
}
set optking {
	frozen_dihedral = ("
		10 7 6 9
	")
}

ee = optimize('scf')
oeprop('DIPOLE', 'QUADRUPOLE', 'MULLIKEN_CHARGES')
f=open( 'psi4out.xyz', 'w' )
f.write( "12  " )
f.write( str(ee) + "\n" )
f.write( MOL.save_string_xyz() )
f.close()
--------------------------------------------------------------------------

    Molecular point group: c1
  Charge       = 0
  Multiplicity = 1
  Basis Set: 6-31G*
  Basis Set:
  @DF-RHF Final Energy: -1146.31078279961730
    Total Energy =                      -1146.3107827996173000
    Molecular point group: c1
  Basis Set: 6-31G*
  Basis Set:
  Basis Set: 6-31G*
  Basis Set:
  @DF-RHF Final Energy: -1146.31183700807742
    Total Energy =                      -1146.3118370080774184
  Basis Set: 6-31G*
  Basis Set:
  Basis Set: 6-31G*
  Basis Set:
  @DF-RHF Final Energy: -1146.31220389041346
    Total Energy =                      -1146.3122038904134570
  Basis Set: 6-31G*
  Basis Set:
  Basis Set: 6-31G*
  Basis Set:
  @DF-RHF Final Energy: -1146.31223595776464
    Total Energy =                      -1146.3122359577653242
  Basis Set: 6-31G*
  Basis Set:
  @DF-RHF Final Energy: -1146.31224140014046
    Total Energy =                      -1146.3122414001418292
  @DF-RHF Final Energy: -1146.31224512973063
    Total Energy =                      -1146.3122451297310818
  @DF-RHF Final Energy: -1146.31224915383746
    Total Energy =                      -1146.3122491538374561
  Basis Set: 6-31G*
  Basis Set:
  @DF-RHF Final Energy: -1146.31225058760424
    Total Energy =                      -1146.3122505876046944
  Basis Set: 6-31G*
  Basis Set:
  Basis Set: 6-31G*
  Basis Set:
  @DF-RHF Final Energy: -1146.31224958417238
    Total Energy =                      -1146.3122495841710133
  Basis Set: 6-31G*
  Basis Set:
  Basis Set: 6-31G*
  Basis Set:
  @DF-RHF Final Energy: -1146.31225155560219
    Total Energy =                      -1146.3122515556019607
  Basis Set: 6-31G*
  Basis Set:
  Charge       = 0
  Multiplicity = 1
  Basis Set: 6-31G*
  Basis Set:

    Orbital Energies (a.u.)
    -----------------------

    Doubly Occupied:

       1A   -104.842693     2A    -26.361357     3A    -26.358156
       4A    -26.355853     5A    -26.347021     6A    -26.346670
       7A    -20.650150     8A    -11.527913     9A    -11.490340
      10A    -11.401211    11A    -10.577385    12A     -8.046730
      13A     -8.043222    14A     -8.043088    15A     -1.761060
      16A     -1.718445    17A     -1.658648    18A     -1.654443
      19A     -1.639060    20A     -1.487288    21A     -1.178692
      22A     -1.049668    23A     -0.987887    24A     -0.919656
      25A     -0.859440    26A     -0.853469    27A     -0.844293
      28A     -0.825191    29A     -0.812612    30A     -0.790230
      31A     -0.729144    32A     -0.726117    33A     -0.705767
      34A     -0.701714    35A     -0.677801    36A     -0.675311
      37A     -0.657721    38A     -0.657318    39A     -0.645978
      40A     -0.632871    41A     -0.597677    42A     -0.579755
      43A     -0.523271    44A     -0.476538    45A     -0.467549

  @DF-RHF Final Energy: -1146.31225155643983

   => Energetics <=

    Nuclear Repulsion Energy =            737.5775377930920058
    One-Electron Energy =               -3058.0067740754275292
    Two-Electron Energy =                1174.1169847258961454
    DFT Exchange-Correlation Energy =       0.0000000000000000
    Empirical Dispersion Energy =           0.0000000000000000
    PCM Polarization Energy =               0.0000000000000000
    EFP Energy =                            0.0000000000000000
    Total Energy =                      -1146.3122515564391506
    Molecular point group: c1
  Basis Set: 6-31G*
  Basis Set:

  -Total Gradient:
     Atom            X                  Y                   Z
    ------   -----------------  -----------------  -----------------
       1        0.000003588531     0.000002837211     0.000000918947
       2        0.000024031638     0.000009072039    -0.000014731229
       3       -0.000016640526    -0.000013294959     0.000000876066
       4       -0.000002413097    -0.000028456598    -0.000004588152
       5       -0.000003817817     0.000018616803     0.000006087718
       6       -0.004039874469    -0.005386312801     0.003729611404
       7        0.000827256961    -0.000115015696    -0.006781000844
       8       -0.000001366956     0.000000441317    -0.000007661430
       9        0.003291681836     0.004626447124    -0.001868473077
      10       -0.000068481539     0.000968621804     0.004880234121
      11       -0.000017231034    -0.000040447407     0.000070957950
      12        0.000003266490    -0.000042508908    -0.000012231473

  **** Optimization is complete! (in 11 steps) ****
    Final optimized geometry and variables:
    Molecular point group: c1

    Geometry (in Angstrom), charge = 0, multiplicity = 1:

    H           -2.671710563245    -0.615709810437     1.256086568348
    C           -2.090605816542    -0.387988940356     0.384147455847
    O           -0.834841176372    -0.070229104558     0.780683803103
    F           -2.069183796507    -1.432671370786    -0.440414760338
    F           -2.640871093357     0.616538778200    -0.290347936966
    C            0.072196529658     0.289607432674    -0.193689788005
    C            1.342709473097    -0.542056121061    -0.010580986625
    CL           0.452669649983     2.020785130311    -0.083105704993
    H           -0.284494768891     0.138255498998    -1.197202848622
    F            1.017263185173    -1.795795478297     0.220920423897
    F            2.077124226311    -0.130466891364     0.996326178693
    F            2.068948232065    -0.488128483186    -1.107521586335

  Mulliken Charges: (a.u.)
   Center  Symbol    Alpha    Beta     Spin     Total
       1     H     0.40089  0.40089  0.00000  0.19822
       2     C     2.56519  2.56519  0.00000  0.86962
       3     O     4.29521  4.29521  0.00000 -0.59042
       4     F     4.68639  4.68639  0.00000 -0.37278
       5     F     4.68472  4.68472  0.00000 -0.36943
       6     C     3.05274  3.05274  0.00000 -0.10548
       7     C     2.43247  2.43247  0.00000  1.13506
       8    CL     8.50033  8.50033  0.00000 -0.00065
       9     H     0.36526  0.36526  0.00000  0.26948
      10     F     4.67368  4.67368  0.00000 -0.34735
      11     F     4.66808  4.66808  0.00000 -0.33616
      12     F     4.67505  4.67505  0.00000 -0.35010

   Total alpha = 45.00000, Total beta = 45.00000, Total charge = -0.00000
