  ==> Input File <==

--------------------------------------------------------------------------
set {
	reference rhf
	basis cc-pvtz
}

set_num_threads( 4 )
memory 2 gb

molecule MOL {
0 1

O	 0.395927	 1.296676	 -0.000076
C	 0.503051	 0.114301	 -0.000074
C	 -0.701422	 -0.805636	 -0.000109
C	 1.858118	 -0.556123	 0.000212
C	 -1.529197	 -0.743137	 -1.274065
H	 -0.342343	 -1.815640	 0.179864
H	 -1.305714	 -0.554375	 0.867726
H	 -0.935526	 -1.016139	 -2.136186
H	 -2.371278	 -1.421765	 -1.209110
H	 -1.907449	 0.256300	 -1.442238
H	 1.961106	 -1.191101	 -0.872843
H	 2.636688	 0.191085	 -0.000109
H	 1.961070	 -1.190284	 0.873873

	symmetry c1
}
set optking {
	frozen_dihedral = ("
		6 3 2 1
	")
}

ee = optimize('scf')
oeprop('DIPOLE', 'QUADRUPOLE', 'MULLIKEN_CHARGES')
f=open( 'psi4out.xyz', 'w' )
f.write( "13  " )
f.write( str(ee) + "\n" )
f.write( MOL.save_string_xyz() )
f.close()
--------------------------------------------------------------------------

    Molecular point group: c1
  Charge       = 0
  Multiplicity = 1
  Basis Set: CC-PVTZ
  Basis Set:
  @DF-RHF Final Energy:  -231.08050106258960
    Total Energy =                       -231.0805010625894624
    Molecular point group: c1
  Basis Set: CC-PVTZ
  Basis Set:
  Basis Set: CC-PVTZ
  Basis Set:
  @DF-RHF Final Energy:  -231.08126340377947
    Total Energy =                       -231.0812634037794169
  Basis Set: CC-PVTZ
  Basis Set:
  Basis Set: CC-PVTZ
  Basis Set:
  @DF-RHF Final Energy:  -231.08124304543369
    Total Energy =                       -231.0812430454338369
  Basis Set: CC-PVTZ
  Basis Set:
  Basis Set: CC-PVTZ
  Basis Set:
  @DF-RHF Final Energy:  -231.08118144803180
    Total Energy =                       -231.0811814480318844
  Basis Set: CC-PVTZ
  Basis Set:
  Basis Set: CC-PVTZ
  Basis Set:
  @DF-RHF Final Energy:  -231.08133300408738
    Total Energy =                       -231.0813330040875826
  Basis Set: CC-PVTZ
  Basis Set:
  Charge       = 0
  Multiplicity = 1
  Basis Set: CC-PVTZ
  Basis Set:

    Orbital Energies (a.u.)
    -----------------------

    Doubly Occupied:

       1A    -20.537959     2A    -11.320966     3A    -11.231737
       4A    -11.228413     5A    -11.222697     6A     -1.398604
       7A     -1.064300     8A     -1.000597     9A     -0.881435
      10A     -0.734241    11A     -0.658259    12A     -0.647556
      13A     -0.611084    14A     -0.591694    15A     -0.570759
      16A     -0.538164    17A     -0.525918    18A     -0.503351
      19A     -0.482775    20A     -0.402254

  @DF-RHF Final Energy:  -231.08133398390967

   => Energetics <=

    Nuclear Repulsion Energy =            177.3035274966879058
    One-Electron Energy =                -664.4641973595838635
    Two-Electron Energy =                 256.0793358789863419
    DFT Exchange-Correlation Energy =       0.0000000000000000
    Empirical Dispersion Energy =           0.0000000000000000
    PCM Polarization Energy =               0.0000000000000000
    EFP Energy =                            0.0000000000000000
    Total Energy =                       -231.0813339839095875
    Molecular point group: c1
  Basis Set: CC-PVTZ
  Basis Set:

  -Total Gradient:
     Atom            X                  Y                   Z
    ------   -----------------  -----------------  -----------------
       1       -0.000020877222     0.000044470998     0.000010178429
       2        0.000092664027    -0.000051860799    -0.000063545104
       3       -0.000065028636    -0.000025991314    -0.000043168851
       4       -0.000018115977     0.000035400831     0.000134111683
       5        0.000019724129     0.000020802285     0.000017643856
       6        0.000001201099     0.000005137971     0.000019088254
       7        0.000013189828     0.000005976157     0.000008496115
       8       -0.000002415229    -0.000007203102     0.000001873480
       9       -0.000003859477    -0.000008997274    -0.000000904471
      10        0.000005148302    -0.000004169187     0.000005974382
      11       -0.000014906018     0.000000869013    -0.000034795598
      12       -0.000013291049    -0.000002823309    -0.000017194528
      13        0.000006566228    -0.000011612275    -0.000037757647

  **** Optimization is complete! (in 6 steps) ****
    Final optimized geometry and variables:
    Molecular point group: c1

    Geometry (in Angstrom), charge = 0, multiplicity = 1:

    O            0.251003646177     1.417555474473     0.280417887598
    C            0.395363547059     0.238699161710     0.272136135748
    C           -0.805825858951    -0.690987476616     0.283740156811
    C            1.764598343517    -0.393781890266     0.237951494493
    C           -1.600879848032    -0.583781680976    -1.018983564466
    H           -0.492595654230    -1.714727335392     0.450153551526
    H           -1.431324838196    -0.394822173335     1.117473523634
    H           -1.001422594309    -0.881494949506    -1.872461278979
    H           -2.471323914093    -1.226902157917    -0.985158396217
    H           -1.930530246946     0.433782199177    -1.177028417766
    H            1.841988104645    -1.066124298949    -0.610275364724
    H            2.526474666306     0.367824369573     0.175540640908
    H            1.913060813855    -0.990168276777     1.132211639994

  Mulliken Charges: (a.u.)
   Center  Symbol    Alpha    Beta     Spin     Total
       1     O     4.17629  4.17629  0.00000 -0.35257
       2     C     2.85419  2.85419  0.00000  0.29161
       3     C     3.09849  3.09849  0.00000 -0.19699
       4     C     3.15266  3.15266  0.00000 -0.30531
       5     C     3.14615  3.14615  0.00000 -0.29230
       6     H     0.44940  0.44940  0.00000  0.10120
       7     H     0.44204  0.44204  0.00000  0.11592
       8     H     0.45560  0.45560  0.00000  0.08881
       9     H     0.44773  0.44773  0.00000  0.10454
      10     H     0.44113  0.44113  0.00000  0.11773
      11     H     0.45069  0.45069  0.00000  0.09861
      12     H     0.43647  0.43647  0.00000  0.12707
      13     H     0.44916  0.44916  0.00000  0.10168

   Total alpha = 20.00000, Total beta = 20.00000, Total charge = -0.00000
