                              Psi4 1.0.54 Driver

  ==> Input File <==

--------------------------------------------------------------------------
set {
	reference rhf
	basis cc-pvtz
}

set_num_threads( 4 )
memory 2 gb

molecule MOL {
0 1

H	 2.336278	 -0.957601	 -0.882904
O	 2.012307	 -0.863440	 0.000222
C	 1.050374	 0.054877	 0.000135
C	 -0.318151	 -0.570512	 0.000144
O	 1.286319	 1.213453	 -0.000040
C	 -1.454884	 0.441630	 -0.000560
H	 -0.371613	 -1.223646	 -0.864985
H	 -0.371920	 -1.222758	 0.865929
C	 -2.822577	 -0.232186	 0.000063
H	 -1.359760	 1.084704	 -0.867077
H	 -1.359641	 1.085996	 0.864983
H	 -2.954352	 -0.858985	 -0.875745
H	 -3.615886	 0.505352	 0.000019
H	 -2.953878	 -0.858359	 0.876394

	symmetry c1
}
set optking {
	frozen_dihedral = ("
		1 2 3 5
	")
}

ee,wfn = optimize('scf', return_wfn=True)
oeprop( wfn, 'DIPOLE', 'QUADRUPOLE', 'MULLIKEN_CHARGES')
f=open( 'psi4out.xyz', 'w' )
f.write( "14  " )
f.write( str(ee) + "\n" )
f.write( MOL.save_string_xyz() )
f.close()
--------------------------------------------------------------------------

    Molecular point group: c1
  Charge       = 0
  Multiplicity = 1
  Basis Set: CC-PVTZ
  Basis Set:
  @DF-RHF Final Energy:  -305.98079926641850
    Total Energy =                       -305.9807992664183871
    Molecular point group: c1
  Basis Set: CC-PVTZ
  Basis Set:
  Basis Set: CC-PVTZ
  Basis Set:
  @DF-RHF Final Energy:  -305.98028595220205
    Total Energy =                       -305.9802859522018252
  Basis Set: CC-PVTZ
  Basis Set:
  Basis Set: CC-PVTZ
  Basis Set:
  @DF-RHF Final Energy:  -305.98149952821592
    Total Energy =                       -305.9814995282158634
  Basis Set: CC-PVTZ
  Basis Set:
  Basis Set: CC-PVTZ
  Basis Set:
  @DF-RHF Final Energy:  -305.98244545742551
    Total Energy =                       -305.9824454574253991
  Basis Set: CC-PVTZ
  Basis Set:
  Basis Set: CC-PVTZ
  Basis Set:
  @DF-RHF Final Energy:  -305.98245454475159
    Total Energy =                       -305.9824545447515334
  Basis Set: CC-PVTZ
  Basis Set:
  Charge       = 0
  Multiplicity = 1
  Basis Set: CC-PVTZ
  Basis Set:

    Orbital Energies (a.u.)
    -----------------------

    Doubly Occupied:

       1A    -20.586798     2A    -20.550837     3A    -11.374647
       4A    -11.241189     5A    -11.224958     6A    -11.216714
       7A     -1.464122     8A     -1.370593     9A     -1.084385
      10A     -0.978149    11A     -0.854074    12A     -0.798056
      13A     -0.712439    14A     -0.680387    15A     -0.665585
      16A     -0.631513    17A     -0.579785    18A     -0.560463
      19A     -0.545110    20A     -0.509302    21A     -0.498996
      22A     -0.484232    23A     -0.484141    24A     -0.447724

  @DF-RHF Final Energy:  -305.98245516642942

   => Energetics <=

    Nuclear Repulsion Energy =            239.6614998679958717
    One-Electron Energy =                -892.1995151797596009
    Two-Electron Energy =                 346.5555601453343115
    DFT Exchange-Correlation Energy =       0.0000000000000000
    Empirical Dispersion Energy =           0.0000000000000000
    PCM Polarization Energy =               0.0000000000000000
    EFP Energy =                            0.0000000000000000
    Total Energy =                       -305.9824551664294177
    Molecular point group: c1
  Basis Set: CC-PVTZ
  Basis Set:

  -Total Gradient:
     Atom            X                  Y                   Z
    ------   -----------------  -----------------  -----------------
       1       -0.003533182296    -0.003967610779    -0.001251681506
       2        0.004188986648     0.005031910733     0.003697808687
       3       -0.000237104698    -0.001257915934    -0.007196945893
       4        0.000023987720     0.000021249352    -0.000054815932
       5       -0.000468652192     0.000169865453     0.004765997890
       6        0.000004420398     0.000016928876     0.000018517796
       7       -0.000000157786    -0.000008435967     0.000012339651
       8        0.000011330863    -0.000001984160     0.000019590219
       9        0.000008712775    -0.000006311780    -0.000003815390
      10       -0.000001249357     0.000002704495    -0.000006613852
      11        0.000000178446     0.000000947074    -0.000000410324
      12       -0.000001562035    -0.000001945748    -0.000003821231
      13        0.000005495308     0.000001278948    -0.000000444715
      14       -0.000001203793    -0.000000680561     0.000004294601

  **** Optimization is complete! (in 6 steps) ****
    Final optimized geometry and variables:
    Molecular point group: c1

    Geometry (in Angstrom), charge = 0, multiplicity = 1:

    H            2.473773795233    -1.015590024564    -0.719148000767
    O            2.040729700489    -0.871507196875     0.106043012046
    C            1.053825430911     0.057502072508     0.002712909185
    C           -0.321177468135    -0.554096160290    -0.006466801499
    O            1.286227888481     1.208718339967     0.001952444642
    C           -1.456472786927     0.458637727384    -0.031093341010
    H           -0.370919536995    -1.222352591477    -0.862156390613
    H           -0.382004392167    -1.197649305933     0.865705824391
    C           -2.825956705261    -0.211707213153    -0.033798339990
    H           -1.352893581571     1.091203355598    -0.904722457250
    H           -1.366903761580     1.113480296116     0.827187726286
    H           -2.951721199456    -0.850049049560    -0.902257991698
    H           -3.617518635734     0.527480425415    -0.050904835007
    H           -2.966403403070    -0.825607255732     0.849680937987

  Mulliken Charges: (a.u.)
   Center  Symbol    Alpha    Beta     Spin     Total
       1     H     0.38631  0.38631  0.00000  0.22737
       2     O     4.17699  4.17699  0.00000 -0.35399
       3     C     2.80164  2.80164  0.00000  0.39671
       4     C     3.10794  3.10794  0.00000 -0.21589
       5     O     4.16321  4.16321  0.00000 -0.32642
       6     C     3.08086  3.08086  0.00000 -0.16172
       7     H     0.44755  0.44755  0.00000  0.10491
       8     H     0.43737  0.43737  0.00000  0.12525
       9     C     3.15013  3.15013  0.00000 -0.30026
      10     H     0.44714  0.44714  0.00000  0.10572
      11     H     0.44495  0.44495  0.00000  0.11010
      12     H     0.45615  0.45615  0.00000  0.08770
      13     H     0.44486  0.44486  0.00000  0.11028
      14     H     0.45488  0.45488  0.00000  0.09024

   Total alpha = 24.00000, Total beta = 24.00000, Total charge = -0.00000

*** Psi4 exiting successfully. Buy a developer a beer!
