  ==> Input File <==

--------------------------------------------------------------------------
set {
	reference rhf
	basis 6-31G*
}

set_num_threads( 1 )
memory 2 gb

molecule MOL {
0 1

H	 -1.836216	 1.387520	 -0.000064
C	 -1.301823	 0.443321	 -0.000031
O	 -0.003969	 0.658512	 0.000451
O	 -1.829879	 -0.616434	 -0.000857
C	 0.822925	 -0.316780	 -0.633773
C	 2.256685	 0.149826	 -0.503653
H	 0.522604	 -0.408640	 -1.668513
H	 0.666144	 -1.272840	 -0.153498
H	 2.393204	 1.112283	 -0.983311
H	 2.921091	 -0.566572	 -0.975427
H	 2.537596	 0.243955	 0.538996

	symmetry c1
}
set optking {
	frozen_dihedral = ("
		7 5 3 2
	")
}

ee = energy('scf')
oeprop('DIPOLE', 'QUADRUPOLE', 'MULLIKEN_CHARGES')
f=open( 'psi4out.xyz', 'w' )
f.write( "11  " )
f.write( str(ee) + "\n" )
f.write( MOL.save_string_xyz() )
f.close()
--------------------------------------------------------------------------

    Molecular point group: c1

    Geometry (in Angstrom), charge = 0, multiplicity = 1:

       Center              X                  Y                   Z               Mass
    ------------   -----------------  -----------------  -----------------  -----------------
           H         -1.826247976676     1.326887663381     0.228513774280     1.007825032070
           C         -1.291854976676     0.382688663381     0.228546774280    12.000000000000
           O          0.005999023324     0.597879663381     0.229028774280    15.994914619560
           O         -1.819910976676    -0.677066336619     0.227720774280    15.994914619560
           C          0.832893023324    -0.377412336619    -0.405195225720    12.000000000000
           C          2.266653023324     0.089193663381    -0.275075225720    12.000000000000
           H          0.532572023324    -0.469272336619    -1.439935225720     1.007825032070
           H          0.676112023324    -1.333472336619     0.075079774280     1.007825032070
           H          2.403172023324     1.051650663381    -0.754733225720     1.007825032070
           H          2.931059023324    -0.627204336619    -0.746849225720     1.007825032070
           H          2.547564023324     0.183322663381     0.767573774280     1.007825032070

  Charge       = 0
  Multiplicity = 1
  Basis Set: 6-31G*
  Basis Set:

    Orbital Energies (a.u.)
    -----------------------

    Doubly Occupied:

       1A    -20.607729     2A    -20.559281     3A    -11.378606
       4A    -11.293923     5A    -11.227417     6A     -1.474892
       7A     -1.374484     8A     -1.052729     9A     -0.900920
      10A     -0.809361    11A     -0.739380    12A     -0.687462
      13A     -0.674187    14A     -0.605684    15A     -0.566044
      16A     -0.554522    17A     -0.523538    18A     -0.511939
      19A     -0.462557    20A     -0.450459

  @DF-RHF Final Energy:  -266.82350316085370

   => Energetics <=

    Nuclear Repulsion Energy =            178.9965677663147403
    One-Electron Energy =                -718.7298664415782241
    Two-Electron Energy =                 272.9097955144102912
    DFT Exchange-Correlation Energy =       0.0000000000000000
    Empirical Dispersion Energy =           0.0000000000000000
    PCM Polarization Energy =               0.0000000000000000
    EFP Energy =                            0.0000000000000000
    Total Energy =                       -266.8235031608532495

  Mulliken Charges: (a.u.)
   Center  Symbol    Alpha    Beta     Spin     Total
       1     H     0.41401  0.41401  0.00000  0.17199
       2     C     2.72679  2.72679  0.00000  0.54643
       3     O     4.29331  4.29331  0.00000 -0.58663
       4     O     4.25777  4.25777  0.00000 -0.51554
       5     C     3.00711  3.00711  0.00000 -0.01422
       6     C     3.24928  3.24928  0.00000 -0.49857
       7     H     0.41357  0.41357  0.00000  0.17286
       8     H     0.40328  0.40328  0.00000  0.19343
       9     H     0.41090  0.41090  0.00000  0.17820
      10     H     0.41522  0.41522  0.00000  0.16955
      11     H     0.40875  0.40875  0.00000  0.18251

   Total alpha = 20.00000, Total beta = 20.00000, Total charge = -0.00000
