  ==> Input File <==

--------------------------------------------------------------------------
set {
	reference rhf
	basis cc-pvtz
}

set_num_threads( 4 )
memory 2 gb

molecule MOL {
0 1

H	 -2.816458	 -0.841657	 -0.064679
N	 -1.878861	 -0.711874	 0.250184
C	 -1.341419	 0.551458	 -0.220231
H	 -1.333674	 -1.468530	 -0.105118
C	 0.082190	 0.731516	 0.254705
H	 -1.357065	 0.652078	 -1.304747
H	 -1.939897	 1.357530	 0.189797
O	 0.881195	 -0.248324	 -0.336237
H	 0.440901	 1.722476	 -0.020063
H	 0.119896	 0.643586	 1.338114
C	 0.387116	 -1.541311	 -0.220954
H	 1.083933	 -2.208118	 -0.707987
H	 0.289845	 -1.838436	 0.821135
H	 -0.584769	 -1.639920	 -0.698739

	symmetry c1
}
set optking {
	frozen_dihedral = ("
		11 8 5 3
	")
}

ee = optimize('scf')
oeprop('DIPOLE', 'QUADRUPOLE', 'MULLIKEN_CHARGES')
f=open( 'psi4out.xyz', 'w' )
f.write( "14  " )
f.write( str(ee) + "\n" )
f.write( MOL.save_string_xyz() )
f.close()
--------------------------------------------------------------------------

    Molecular point group: c1
  Charge       = 0
  Multiplicity = 1
  Basis Set: CC-PVTZ
  Basis Set:
  @DF-RHF Final Energy:  -248.13891214734656
    Total Energy =                       -248.1389121473466730
    Molecular point group: c1
  Basis Set: CC-PVTZ
  Basis Set:
  Basis Set: CC-PVTZ
  Basis Set:
  @DF-RHF Final Energy:  -248.19462036406188
    Total Energy =                       -248.1946203640623025
  Basis Set: CC-PVTZ
  Basis Set:
  Basis Set: CC-PVTZ
  Basis Set:
  @DF-RHF Final Energy:  -248.20912123170265
    Total Energy =                       -248.2091212317027384
  Basis Set: CC-PVTZ
  Basis Set:
  Basis Set: CC-PVTZ
  Basis Set:
  @DF-RHF Final Energy:  -248.21303835972341
    Total Energy =                       -248.2130383597236118
  Basis Set: CC-PVTZ
  Basis Set:
  @DF-RHF Final Energy:  -248.21489194058174
    Total Energy =                       -248.2148919405817651
  @DF-RHF Final Energy:  -248.21583552651811
    Total Energy =                       -248.2158355265180489
  @DF-RHF Final Energy:  -248.21634940893932
    Total Energy =                       -248.2163494089392088
  @DF-RHF Final Energy:  -248.21651953698009
    Total Energy =                       -248.2165195369800585
  @DF-RHF Final Energy:  -248.21663298972143
    Total Energy =                       -248.2166329897212904
  Basis Set: CC-PVTZ
  Basis Set:
  @DF-RHF Final Energy:  -248.21668696446730
    Total Energy =                       -248.2166869644672715
  Basis Set: CC-PVTZ
  Basis Set:
  Basis Set: CC-PVTZ
  Basis Set:
  @DF-RHF Final Energy:  -248.21669864758749
    Total Energy =                       -248.2166986475871227
  Basis Set: CC-PVTZ
  Basis Set:
  Basis Set: CC-PVTZ
  Basis Set:
  @DF-RHF Final Energy:  -248.21670114290569
    Total Energy =                       -248.2167011429055492
  Basis Set: CC-PVTZ
  Basis Set:
  Charge       = 0
  Multiplicity = 1
  Basis Set: CC-PVTZ
  Basis Set:

    Orbital Energies (a.u.)
    -----------------------

    Doubly Occupied:

       1A    -20.544919     2A    -15.534502     3A    -11.262874
       4A    -11.262113     5A    -11.246461     6A     -1.376566
       7A     -1.183587     8A     -1.001952     9A     -0.917890
      10A     -0.810402    11A     -0.690909    12A     -0.673690
      13A     -0.642340    14A     -0.621547    15A     -0.602148
      16A     -0.549807    17A     -0.537544    18A     -0.511783
      19A     -0.459917    20A     -0.413899    21A     -0.390860

  @DF-RHF Final Energy:  -248.21670131241933

   => Energetics <=

    Nuclear Repulsion Energy =            197.0000378880442895
    One-Electron Energy =                -727.9620575751581555
    Two-Electron Energy =                 282.7453183746947616
    DFT Exchange-Correlation Energy =       0.0000000000000000
    Empirical Dispersion Energy =           0.0000000000000000
    PCM Polarization Energy =               0.0000000000000000
    EFP Energy =                            0.0000000000000000
    Total Energy =                       -248.2167013124191044
    Molecular point group: c1
  Basis Set: CC-PVTZ
  Basis Set:

  -Total Gradient:
     Atom            X                  Y                   Z
    ------   -----------------  -----------------  -----------------
       1       -0.000008784644    -0.000001899617    -0.000006546624
       2        0.000021950761    -0.000012468878     0.000014383605
       3       -0.000567997783    -0.001955513668     0.002040620883
       4       -0.000004838720     0.000003714437     0.000000607213
       5        0.000269330489     0.003090877063    -0.004460483307
       6       -0.000000414474     0.000001791706     0.000001534719
       7       -0.000001651171    -0.000001404375     0.000003487161
       8        0.001638086235    -0.001545054630     0.005312399753
       9       -0.000002177325     0.000007455124     0.000002688620
      10       -0.000004227593     0.000006160900     0.000006201875
      11       -0.001358106371     0.000393018125    -0.002915099512
      12        0.000001588859     0.000004452750     0.000000363021
      13        0.000004584012     0.000003128282    -0.000001761174
      14        0.000012657726     0.000005742778     0.000001603767

  **** Optimization is complete! (in 13 steps) ****
    Final optimized geometry and variables:
    Molecular point group: c1

    Geometry (in Angstrom), charge = 0, multiplicity = 1:

    H           -2.769867593852    -0.109315826626     0.300030071688
    N           -1.796229434423    -0.253963981141     0.460180365041
    C           -1.010405421169     0.774023446005    -0.207307275150
    H           -1.578631485153    -1.169285288665     0.133215008561
    C            0.417395275278     0.898351305785     0.315656397900
    H           -0.984016407400     0.668532740324    -1.291439512143
    H           -1.492834949147     1.722108978774     0.000436464653
    O            1.371345642250     0.037945910224    -0.239723177472
    H            0.781788175438     1.892740406449     0.096177279330
    H            0.392533952196     0.776234979239     1.396175190454
    C            1.078929283128    -1.317880049867    -0.298135264584
    H            1.982703459383    -1.828460780762    -0.598675158751
    H            0.766094636587    -1.707850067482     0.667559859684
    H            0.309664711377    -1.539177448745    -1.033054515305

  Mulliken Charges: (a.u.)
   Center  Symbol    Alpha    Beta     Spin     Total
       1     H     0.42723  0.42723  0.00000  0.14555
       2     N     3.68927  3.68927  0.00000 -0.37855
       3     C     3.05475  3.05475  0.00000 -0.10949
       4     H     0.42832  0.42832  0.00000  0.14337
       5     C     2.97416  2.97416  0.00000  0.05167
       6     H     0.45588  0.45588  0.00000  0.08823
       7     H     0.45082  0.45082  0.00000  0.09835
       8     O     4.17703  4.17703  0.00000 -0.35406
       9     H     0.45307  0.45307  0.00000  0.09387
      10     H     0.46621  0.46621  0.00000  0.06758
      11     C     3.03616  3.03616  0.00000 -0.07232
      12     H     0.44300  0.44300  0.00000  0.11400
      13     H     0.46754  0.46754  0.00000  0.06492
      14     H     0.47656  0.47656  0.00000  0.04688

   Total alpha = 21.00000, Total beta = 21.00000, Total charge = -0.00000
