  ==> Input File <==

--------------------------------------------------------------------------
set {
	reference rhf
	basis 6-31G*
}

set_num_threads( 4 )
memory 2 gb

molecule MOL {
0 1

H	 2.636487	 1.250819	 -1.284503
N	 1.828624	 0.658983	 -1.308996
C	 1.267428	 0.496480	 0.024474
H	 2.128554	 -0.225221	 -1.673881
C	 -0.016086	 -0.325158	 -0.029487
H	 1.043460	 1.486227	 0.410834
H	 1.963366	 0.035265	 0.729691
C	 -1.282277	 0.529072	 0.046735
H	 -0.012495	 -0.908639	 -0.945788
H	 -0.015903	 -1.041248	 0.791956
C	 -2.563920	 -0.301775	 -0.006060
H	 -1.284084	 1.244622	 -0.773004
H	 -1.271387	 1.115393	 0.963286
H	 -2.621848	 -0.873522	 -0.927727
H	 -3.445135	 0.329952	 0.047812
H	 -2.609542	 -1.004582	 0.821105

	symmetry c1
}
set optking {
	frozen_dihedral = ("
		6 3 5 9
	")
}

ee = optimize('scf')
oeprop('DIPOLE', 'QUADRUPOLE', 'MULLIKEN_CHARGES')
f=open( 'psi4out.xyz', 'w' )
f.write( "16  " )
f.write( str(ee) + "\n" )
f.write( MOL.save_string_xyz() )
f.close()
--------------------------------------------------------------------------

    Molecular point group: c1
  Charge       = 0
  Multiplicity = 1
  Basis Set: 6-31G*
  Basis Set:
  @DF-RHF Final Energy:  -212.31222932838801
    Total Energy =                       -212.3122293283880708
    Molecular point group: c1
  Basis Set: 6-31G*
  Basis Set:
  Basis Set: 6-31G*
  Basis Set:
  @DF-RHF Final Energy:  -212.31276763582395
    Total Energy =                       -212.3127676358239455
  Basis Set: 6-31G*
  Basis Set:
  Basis Set: 6-31G*
  Basis Set:
  @DF-RHF Final Energy:  -212.31289824043787
    Total Energy =                       -212.3128982404376757
  Basis Set: 6-31G*
  Basis Set:
  Basis Set: 6-31G*
  Basis Set:
  @DF-RHF Final Energy:  -212.31290082554244
    Total Energy =                       -212.3129008255423287
  Basis Set: 6-31G*
  Basis Set:
  Charge       = 0
  Multiplicity = 1
  Basis Set: 6-31G*
  Basis Set:

    Orbital Energies (a.u.)
    -----------------------

    Doubly Occupied:

       1A    -15.533006     2A    -11.240200     3A    -11.209722
       4A    -11.209071     5A    -11.204214     6A     -1.175989
       7A     -1.054565     8A     -0.955493     9A     -0.844111
      10A     -0.788744    11A     -0.659675    12A     -0.640288
      13A     -0.598110    14A     -0.573826    15A     -0.566296
      16A     -0.514747    17A     -0.503023    18A     -0.467103
      19A     -0.461856    20A     -0.461179    21A     -0.379435

  @DF-RHF Final Energy:  -212.31290126576147

   => Energetics <=

    Nuclear Repulsion Energy =            187.6360214283628807
    One-Electron Energy =                -657.8165340159600873
    Two-Electron Energy =                 257.8676113218357386
    DFT Exchange-Correlation Energy =       0.0000000000000000
    Empirical Dispersion Energy =           0.0000000000000000
    PCM Polarization Energy =               0.0000000000000000
    EFP Energy =                            0.0000000000000000
    Total Energy =                       -212.3129012657614680
    Molecular point group: c1
  Basis Set: 6-31G*
  Basis Set:

  -Total Gradient:
     Atom            X                  Y                   Z
    ------   -----------------  -----------------  -----------------
       1        0.000027380681     0.000012823070    -0.000068853342
       2        0.000058664606     0.000086323632     0.000065395123
       3        0.000531323142    -0.001036836750     0.004539001883
       4       -0.000014776755     0.000016435436     0.000055439691
       5        0.002318076425    -0.003687974722     0.001482859770
       6       -0.000829330060     0.001347390384    -0.004055559603
       7       -0.000000778492     0.000007630725    -0.000044000153
       8        0.000015029333     0.000025587804    -0.000008583031
       9       -0.002023008138     0.003220664807    -0.001981426469
      10       -0.000017203535     0.000014945157    -0.000005869479
      11       -0.000044207413     0.000011825409     0.000043311155
      12        0.000018332954    -0.000033447392    -0.000019373355
      13       -0.000007165067     0.000018875341    -0.000006288975
      14        0.000002439086     0.000015089310     0.000004756190
      15       -0.000032867214    -0.000013939972     0.000012839738
      16       -0.000001909552    -0.000005392237    -0.000013649144

  **** Optimization is complete! (in 5 steps) ****
    Final optimized geometry and variables:
    Molecular point group: c1

    Geometry (in Angstrom), charge = 0, multiplicity = 1:

    H            2.676327563770     1.091996016761    -1.075954993221
    N            1.897725968371     0.461490068450    -1.058622512854
    C            1.413468140804     0.273130759997     0.305378227087
    H            2.220274087943    -0.407494585347    -1.440113953131
    C            0.119044872075    -0.555507303912     0.300738402072
    H            1.206783788779     1.267024749751     0.688454988745
    H            2.156325614071    -0.183135770712     0.960540261334
    C           -1.141638222999     0.313489599413     0.324391058609
    H            0.091867976040    -1.148644584370    -0.609792367319
    H            0.103170067933    -1.243758762790     1.141860248486
    C           -2.430796935363    -0.499878561131     0.221447148276
    H           -1.089594383156     1.022961198607    -0.497136612210
    H           -1.157885872269     0.899903077734     1.241017259522
    H           -2.465231956415    -1.063273553207    -0.706818935947
    H           -3.305460429482     0.142797181770     0.250009744644
    H           -2.515242260729    -1.208969056196     1.040677470511

  Mulliken Charges: (a.u.)
   Center  Symbol    Alpha    Beta     Spin     Total
       1     H     0.33300  0.33300  0.00000  0.33400
       2     N     3.92200  3.92200  0.00000 -0.84401
       3     C     3.06778  3.06778  0.00000 -0.13556
       4     H     0.33532  0.33532  0.00000  0.32936
       5     C     3.15007  3.15007  0.00000 -0.30015
       6     H     0.41860  0.41860  0.00000  0.16281
       7     H     0.43079  0.43079  0.00000  0.13842
       8     C     3.15536  3.15536  0.00000 -0.31072
       9     H     0.42012  0.42012  0.00000  0.15976
      10     H     0.42388  0.42388  0.00000  0.15224
      11     C     3.23992  3.23992  0.00000 -0.47984
      12     H     0.41295  0.41295  0.00000  0.17410
      13     H     0.42549  0.42549  0.00000  0.14903
      14     H     0.42139  0.42139  0.00000  0.15722
      15     H     0.41981  0.41981  0.00000  0.16039
      16     H     0.42353  0.42353  0.00000  0.15294

   Total alpha = 21.00000, Total beta = 21.00000, Total charge =  0.00000
