  ==> Input File <==

--------------------------------------------------------------------------
set {
	reference rhf
	basis cc-pvtz
}

set_num_threads( 4 )
memory 2 gb

molecule MOL {
0 1

O	 0.749630	 1.305591	 -0.000460
C	 0.576499	 0.134701	 -0.003900
C	 -0.765656	 -0.550508	 -0.002152
O	 1.564816	 -0.744612	 -0.000631
C	 -1.945526	 0.411052	 0.000603
H	 -0.794329	 -1.203792	 -0.868145
H	 -0.791555	 -1.205429	 0.862701
C	 -2.921338	 0.119144	 1.135285
H	 -2.457695	 0.350891	 -0.952002
H	 -1.578288	 1.426928	 0.081290
H	 -3.327866	 -0.883895	 1.058096
H	 -3.752377	 0.813802	 1.118405
H	 -2.438610	 0.205345	 2.103206
C	 2.884339	 -0.237801	 0.002883
H	 3.064150	 0.362814	 -0.876312
H	 3.533055	 -1.098529	 0.004958
H	 3.059365	 0.363432	 0.882614

	symmetry c1
}
set optking {
	frozen_dihedral = ("
		9 5 3 6
	")
}

ee = optimize('scf')
oeprop('DIPOLE', 'QUADRUPOLE', 'MULLIKEN_CHARGES')
f=open( 'psi4out.xyz', 'w' )
f.write( "17  " )
f.write( str(ee) + "\n" )
f.write( MOL.save_string_xyz() )
f.close()
--------------------------------------------------------------------------

    Molecular point group: c1
  Charge       = 0
  Multiplicity = 1
  Basis Set: CC-PVTZ
  Basis Set:
  @DF-RHF Final Energy:  -345.03035869493829
    Total Energy =                       -345.0303586949383998
    Molecular point group: c1
  Basis Set: CC-PVTZ
  Basis Set:
  Basis Set: CC-PVTZ
  Basis Set:
  @DF-RHF Final Energy:  -345.03055377496474
    Total Energy =                       -345.0305537749653695
  Basis Set: CC-PVTZ
  Basis Set:
  Basis Set: CC-PVTZ
  Basis Set:
  @DF-RHF Final Energy:  -345.02904268492432
    Total Energy =                       -345.0290426849239793
  Basis Set: CC-PVTZ
  Basis Set:
  Basis Set: CC-PVTZ
  Basis Set:
  @DF-RHF Final Energy:  -345.03075726257265
    Total Energy =                       -345.0307572625722514
  Basis Set: CC-PVTZ
  Basis Set:
  Basis Set: CC-PVTZ
  Basis Set:
  @DF-RHF Final Energy:  -345.03076994499713
    Total Energy =                       -345.0307699449969050
  Basis Set: CC-PVTZ
  Basis Set:
  Basis Set: CC-PVTZ
  Basis Set:
  @DF-RHF Final Energy:  -345.03077132141271
    Total Energy =                       -345.0307713214124306
  Basis Set: CC-PVTZ
  Basis Set:
  Charge       = 0
  Multiplicity = 1
  Basis Set: CC-PVTZ
  Basis Set:

    Orbital Energies (a.u.)
    -----------------------

    Doubly Occupied:

       1A    -20.596848     2A    -20.535318     3A    -11.365821
       4A    -11.278946     5A    -11.234363     6A    -11.218348
       7A    -11.211606     8A     -1.473185     9A     -1.366721
      10A     -1.078583    11A     -1.002558    12A     -0.939589
      13A     -0.828832    14A     -0.768896    15A     -0.703948
      16A     -0.685434    17A     -0.676782    18A     -0.629966
      19A     -0.602838    20A     -0.572193    21A     -0.571445
      22A     -0.532808    23A     -0.525825    24A     -0.490874
      25A     -0.486302    26A     -0.475301    27A     -0.461822
      28A     -0.443325

  @DF-RHF Final Energy:  -345.03077206140028

   => Energetics <=

    Nuclear Repulsion Energy =            313.6216937628985306
    One-Electron Energy =               -1091.7879802626166565
    Two-Electron Energy =                 433.1355144383178413
    DFT Exchange-Correlation Energy =       0.0000000000000000
    Empirical Dispersion Energy =           0.0000000000000000
    PCM Polarization Energy =               0.0000000000000000
    EFP Energy =                            0.0000000000000000
    Total Energy =                       -345.0307720614002847
    Molecular point group: c1
  Basis Set: CC-PVTZ
  Basis Set:

  -Total Gradient:
     Atom            X                  Y                   Z
    ------   -----------------  -----------------  -----------------
       1        0.000012770948    -0.000013256500     0.000001494805
       2       -0.000046042197     0.000038766049    -0.000071195388
       3       -0.001058069693    -0.001274891657     0.001029383819
       4        0.000029260000     0.000007694119     0.000043672659
       5        0.001063597752     0.001321816563    -0.000741960989
       6        0.000664367117     0.000845555061    -0.000687120845
       7       -0.000027350604    -0.000008829340    -0.000021970611
       8        0.000022488307    -0.000030160317     0.000014030643
       9       -0.000696948332    -0.000895713966     0.000457509672
      10        0.000018510040     0.000004519805    -0.000002608797
      11        0.000006042549     0.000003118588     0.000003129472
      12        0.000008025306     0.000004333865    -0.000015033621
      13       -0.000008534878    -0.000000525224     0.000002161915
      14        0.000011851180    -0.000002730223    -0.000016798288
      15        0.000002207736     0.000000273689     0.000000772269
      16       -0.000000157304     0.000001235917     0.000002359760
      17       -0.000002017924    -0.000001206428     0.000002173527

  **** Optimization is complete! (in 7 steps) ****
    Final optimized geometry and variables:
    Molecular point group: c1

    Geometry (in Angstrom), charge = 0, multiplicity = 1:

    O            0.724515232728     1.247351905336    -0.145873598224
    C            0.534816199201     0.079241878979    -0.160024047650
    C           -0.811985970428    -0.604702815823    -0.151403745901
    O            1.513835595602    -0.810437193153    -0.182308915297
    C           -2.015761299325     0.347160594101    -0.159258574569
    H           -0.818177784522    -1.268048275043    -1.008140228815
    H           -0.819484648392    -1.250544945935     0.719526691000
    C           -3.015601741351     0.047817223422     0.954538946902
    H           -2.523773035603     0.272965138726    -1.113722131064
    H           -1.664929007685     1.364699365371    -0.069423735185
    H           -3.400093962643    -0.964291311133     0.881003412055
    H           -3.859622182525     0.725871349116     0.909169770248
    H           -2.555414423279     0.157023877388     1.930931225403
    C            2.838747238071    -0.318534054980    -0.187654030043
    H            3.014793849483     0.293456530018    -1.059799707827
    H            3.478065221480    -1.186165273790    -0.206654715501
    H            3.031697710013     0.267250572190     0.698818689264

  Mulliken Charges: (a.u.)
   Center  Symbol    Alpha    Beta     Spin     Total
       1     O     4.19613  4.19613  0.00000 -0.39226
       2     C     2.80173  2.80173  0.00000  0.39653
       3     C     3.10569  3.10569  0.00000 -0.21139
       4     O     4.14763  4.14763  0.00000 -0.29526
       5     C     3.08890  3.08890  0.00000 -0.17781
       6     H     0.43521  0.43521  0.00000  0.12958
       7     H     0.43938  0.43938  0.00000  0.12124
       8     C     3.14912  3.14912  0.00000 -0.29824
       9     H     0.45241  0.45241  0.00000  0.09518
      10     H     0.43530  0.43530  0.00000  0.12941
      11     H     0.45588  0.45588  0.00000  0.08824
      12     H     0.44793  0.44793  0.00000  0.10415
      13     H     0.45432  0.45432  0.00000  0.09136
      14     C     3.03626  3.03626  0.00000 -0.07252
      15     H     0.45426  0.45426  0.00000  0.09148
      16     H     0.44544  0.44544  0.00000  0.10911
      17     H     0.45440  0.45440  0.00000  0.09119

   Total alpha = 28.00000, Total beta = 28.00000, Total charge =  0.00000
