  ==> Input File <==

--------------------------------------------------------------------------
set {
	reference rhf
	basis 6-31G*
}

set_num_threads( 4 )
memory 2 gb

molecule MOL {
0 1

H	 -3.161908	 -0.840114	 1.446659
C	 -3.253309	 -0.606228	 0.378687
C	 -2.711288	 0.740590	 -0.027398
O	 -3.751208	 -1.389040	 -0.363643
C	 -1.269737	 0.963412	 0.450657
H	 -2.792622	 0.831518	 -1.104350
H	 -3.357773	 1.493980	 0.421061
C	 -0.252658	 0.041456	 -0.226725
H	 -1.000710	 1.998319	 0.261249
H	 -1.222766	 0.831401	 1.530529
C	 1.180775	 0.282413	 0.250794
H	 -0.305388	 0.183963	 -1.304110
H	 -0.520207	 -0.998174	 -0.047488
C	 2.148627	 -0.814315	 -0.201312
H	 1.516199	 1.249228	 -0.115937
H	 1.192670	 0.346017	 1.338083
C	 3.580890	 -0.659131	 0.322722
H	 2.166869	 -0.852443	 -1.289387
H	 1.762857	 -1.776509	 0.128956
C	 4.324889	 0.564933	 -0.213704
H	 4.142010	 -1.551473	 0.056605
H	 3.564836	 -0.624694	 1.410140
H	 4.342616	 0.565491	 -1.300421
H	 3.866655	 1.493402	 0.110242
H	 5.353900	 0.572371	 0.132816

	symmetry c1
}
set optking {
	frozen_dihedral = ("
		12 8 11 14
	")
}

ee = optimize('scf')
oeprop('DIPOLE', 'QUADRUPOLE', 'MULLIKEN_CHARGES')
f=open( 'psi4out.xyz', 'w' )
f.write( "25  " )
f.write( str(ee) + "\n" )
f.write( MOL.save_string_xyz() )
f.close()
--------------------------------------------------------------------------

    Molecular point group: c1
  Charge       = 0
  Multiplicity = 1
  Basis Set: 6-31G*
  Basis Set:
  @DF-RHF Final Energy:  -387.12150073723382
    Total Energy =                       -387.1215007372336459
    Molecular point group: c1
  Basis Set: 6-31G*
  Basis Set:
  Basis Set: 6-31G*
  Basis Set:
  @DF-RHF Final Energy:  -387.12119990365375
    Total Energy =                       -387.1211999036540874
  Basis Set: 6-31G*
  Basis Set:
  Basis Set: 6-31G*
  Basis Set:
  @DF-RHF Final Energy:  -387.12104368986138
    Total Energy =                       -387.1210436898613807
  Basis Set: 6-31G*
  Basis Set:
  Basis Set: 6-31G*
  Basis Set:
  @DF-RHF Final Energy:  -387.12153914262211
    Total Energy =                       -387.1215391426221686
  Basis Set: 6-31G*
  Basis Set:
  @DF-RHF Final Energy:  -387.12158556579351
    Total Energy =                       -387.1215855657940210
  @DF-RHF Final Energy:  -387.12155900508685
    Total Energy =                       -387.1215590050869650
  Basis Set: 6-31G*
  Basis Set:
  @DF-RHF Final Energy:  -387.12158119977914
    Total Energy =                       -387.1215811997786886
  Basis Set: 6-31G*
  Basis Set:
  Basis Set: 6-31G*
  Basis Set:
  @DF-RHF Final Energy:  -387.12158675503696
    Total Energy =                       -387.1215867550370149
  Basis Set: 6-31G*
  Basis Set:
  Basis Set: 6-31G*
  Basis Set:
  @DF-RHF Final Energy:  -387.12158900656038
    Total Energy =                       -387.1215890065604981
  Basis Set: 6-31G*
  Basis Set:
  Charge       = 0
  Multiplicity = 1
  Basis Set: 6-31G*
  Basis Set:

    Orbital Energies (a.u.)
    -----------------------

    Doubly Occupied:

       1A    -20.561996     2A    -11.326145     3A    -11.235288
       4A    -11.234608     5A    -11.224005     6A    -11.219909
       7A    -11.218078     8A    -11.217047     9A    -11.210684
      10A     -1.401926    11A     -1.103874    12A     -1.069668
      13A     -1.013264    14A     -0.942561    15A     -0.875093
      16A     -0.820550    17A     -0.787917    18A     -0.781663
      19A     -0.664075    20A     -0.662722    21A     -0.632325
      22A     -0.626119    23A     -0.600689    24A     -0.593893
      25A     -0.577651    26A     -0.547900    27A     -0.537631
      28A     -0.524860    29A     -0.506995    30A     -0.495238
      31A     -0.492338    32A     -0.479571    33A     -0.463759
      34A     -0.459538    35A     -0.441113    36A     -0.409490

  @DF-RHF Final Energy:  -387.12158954771587

   => Energetics <=

    Nuclear Repulsion Energy =            439.1218232605939420
    One-Electron Energy =               -1394.5664614404590793
    Two-Electron Energy =                 568.3230486321497210
    DFT Exchange-Correlation Energy =       0.0000000000000000
    Empirical Dispersion Energy =           0.0000000000000000
    PCM Polarization Energy =               0.0000000000000000
    EFP Energy =                            0.0000000000000000
    Total Energy =                       -387.1215895477154163
    Molecular point group: c1
  Basis Set: 6-31G*
  Basis Set:

  -Total Gradient:
     Atom            X                  Y                   Z
    ------   -----------------  -----------------  -----------------
       1       -0.000000628222    -0.000007172246    -0.000007640506
       2       -0.000013236866     0.000006624626    -0.000019203879
       3        0.000012337214    -0.000003917206     0.000005082658
       4       -0.000005003762    -0.000017863256     0.000012993608
       5        0.000003179279     0.000019210902    -0.000006168994
       6       -0.000001428294    -0.000006189160     0.000006027050
       7        0.000003496521     0.000010854331     0.000000091720
       8        0.000469427567    -0.002973482133     0.000121129644
       9        0.000003494352     0.000003521969     0.000003130291
      10        0.000008853124    -0.000005861930    -0.000003969865
      11        0.000306442593     0.001672992117    -0.001770773413
      12       -0.000479238199     0.002150895804     0.000327963012
      13        0.000005467615    -0.000000643901     0.000001081727
      14       -0.000293881413    -0.000842989303     0.001341957267
      15       -0.000000603780     0.000001337905    -0.000003728838
      16       -0.000011472683     0.000012258382     0.000011312639
      17       -0.000010185266    -0.000000505963    -0.000008314507
      18        0.000011371785    -0.000004812494    -0.000003849249
      19        0.000017471569    -0.000004978767     0.000003060777
      20       -0.000004996694    -0.000007473321    -0.000007887329
      21       -0.000009029506    -0.000000568974    -0.000005400995
      22       -0.000004244736    -0.000000985818     0.000004127469
      23        0.000006850857     0.000005031958    -0.000007670891
      24       -0.000012246939    -0.000002899023     0.000000745614
      25       -0.000002196122    -0.000002384497     0.000005904989

  **** Optimization is complete! (in 10 steps) ****
    Final optimized geometry and variables:
    Molecular point group: c1

    Geometry (in Angstrom), charge = 0, multiplicity = 1:

    H           -3.221953771147    -0.736973743737     1.371060990231
    C           -3.280715075479    -0.486491435332     0.304467687566
    C           -2.704770370855     0.856207177165    -0.067431908675
    O           -3.777425646279    -1.247707900242    -0.460836882707
    C           -1.269868818862     1.043134561878     0.445031516440
    H           -2.760945086447     0.965724907178    -1.144298064531
    H           -3.346422902050     1.614662119922     0.379283371596
    C           -0.255101269769     0.111369149814    -0.224473979094
    H           -0.976617049473     2.075738678654     0.278355703065
    H           -1.249181155444     0.893290097023     1.523107473850
    C            1.178133046915     0.357482697850     0.254773472530
    H           -0.307023176390     0.263172224995    -1.300469452975
    H           -0.529560324311    -0.925537355418    -0.042709695343
    C            2.155442788238    -0.727626885354    -0.205435622557
    H            1.503030327248     1.334787543653    -0.091547036697
    H            1.190800433696     0.399162464279     1.343265750279
    C            3.594729882194    -0.543304633605     0.288873565922
    H            2.154486211186    -0.779536446687    -1.293235866436
    H            1.790473146623    -1.690948884211     0.143745016558
    C            4.313842074485     0.677630285143    -0.287724133008
    H            4.162266112084    -1.434456563237     0.032795638980
    H            3.597114469855    -0.484893149830     1.375533077953
    H            4.319205085275     0.650063741347    -1.374074158240
    H            3.845753037458     1.607670204739     0.017415981690
    H            5.346440455745     0.709334976193     0.045958368394

  Mulliken Charges: (a.u.)
   Center  Symbol    Alpha    Beta     Spin     Total
       1     H     0.43265  0.43265  0.00000  0.13471
       2     C     2.83082  2.83082  0.00000  0.33836
       3     C     3.20825  3.20825  0.00000 -0.41650
       4     O     4.23773  4.23773  0.00000 -0.47546
       5     C     3.16683  3.16683  0.00000 -0.33365
       6     H     0.39978  0.39978  0.00000  0.20044
       7     H     0.40665  0.40665  0.00000  0.18669
       8     C     3.15470  3.15470  0.00000 -0.30940
       9     H     0.41299  0.41299  0.00000  0.17402
      10     H     0.41960  0.41960  0.00000  0.16080
      11     C     3.15446  3.15446  0.00000 -0.30892
      12     H     0.41764  0.41764  0.00000  0.16473
      13     H     0.41834  0.41834  0.00000  0.16331
      14     C     3.15316  3.15316  0.00000 -0.30633
      15     H     0.41978  0.41978  0.00000  0.16044
      16     H     0.42434  0.42434  0.00000  0.15131
      17     C     3.15291  3.15291  0.00000 -0.30582
      18     H     0.42283  0.42283  0.00000  0.15433
      19     H     0.42080  0.42080  0.00000  0.15840
      20     C     3.24123  3.24123  0.00000 -0.48246
      21     H     0.41991  0.41991  0.00000  0.16019
      22     H     0.42343  0.42343  0.00000  0.15315
      23     H     0.42170  0.42170  0.00000  0.15661
      24     H     0.42081  0.42081  0.00000  0.15839
      25     H     0.41867  0.41867  0.00000  0.16266

   Total alpha = 36.00000, Total beta = 36.00000, Total charge =  0.00000
