                              Psi4 1.0.54 Driver

  ==> Input File <==

--------------------------------------------------------------------------
set {
	reference rhf
	basis cc-pvtz
}

set_num_threads( 4 )
memory 2 gb

molecule MOL {
0 1

H	 0.168598	 -3.472521	 0.343218
O	 0.686301	 -2.682267	 0.377546
C	 -0.125316	 -1.640809	 0.216069
C	 0.626018	 -0.337582	 0.258241
O	 -1.290233	 -1.770449	 0.061135
C	 -0.267326	 0.883135	 0.076490
H	 1.160256	 -0.315650	 1.200562
H	 1.387618	 -0.385038	 -0.513864
C	 -1.726822	 0.642622	 0.463839
H	 -0.210803	 1.217591	 -0.953497
H	 0.129920	 1.693110	 0.675679
C	 -2.480891	 -0.340606	 -0.429852
H	 -2.243098	 1.597649	 0.438609
H	 -1.776542	 0.301208	 1.495542
C	 -3.955933	 -0.460128	 -0.060472
H	 -2.393755	 -0.020485	 -1.464726
H	 -2.024244	 -1.323637	 -0.374360
H	 -4.467673	 -1.160944	 -0.709827
H	 -4.458917	 0.497287	 -0.144505
H	 -4.076458	 -0.806900	 0.960497

	symmetry c1
}
set optking {
	frozen_dihedral = ("
		7 4 6 10
	")
}

ee,wfn = optimize('scf', return_wfn=True)
oeprop( wfn, 'DIPOLE', 'QUADRUPOLE', 'MULLIKEN_CHARGES')
f=open( 'psi4out.xyz', 'w' )
f.write( "20  " )
f.write( str(ee) + "\n" )
f.write( MOL.save_string_xyz() )
f.close()
--------------------------------------------------------------------------

    Molecular point group: c1
  Charge       = 0
  Multiplicity = 1
  Basis Set: CC-PVTZ
  Basis Set:
  @DF-RHF Final Energy:  -383.83145678230665
    Total Energy =                       -383.8314567823072139
    Molecular point group: c1
  Basis Set: CC-PVTZ
  Basis Set:
  Basis Set: CC-PVTZ
  Basis Set:
  @DF-RHF Final Energy:  -383.97263816798818
    Total Energy =                       -383.9726381679882934
  Basis Set: CC-PVTZ
  Basis Set:
  Basis Set: CC-PVTZ
  Basis Set:
  @DF-RHF Final Energy:  -384.01723759259488
    Total Energy =                       -384.0172375925951656
  Basis Set: CC-PVTZ
  Basis Set:
  Basis Set: CC-PVTZ
  Basis Set:
  @DF-RHF Final Energy:  -384.05395274328492
    Total Energy =                       -384.0539527432847535
  Basis Set: CC-PVTZ
  Basis Set:
  @DF-RHF Final Energy:  -384.06807681054772
    Total Energy =                       -384.0680768105472680
  @DF-RHF Final Energy:  -384.07491612945677
    Total Energy =                       -384.0749161294565965
  @DF-RHF Final Energy:  -384.07904423222982
    Total Energy =                       -384.0790442322297622
  @DF-RHF Final Energy:  -384.08110820178388
    Total Energy =                       -384.0811082017839908
  @DF-RHF Final Energy:  -384.08207696681654
    Total Energy =                       -384.0820769668166577
  @DF-RHF Final Energy:  -384.08317468901794
    Total Energy =                       -384.0831746890179375
  @DF-RHF Final Energy:  -384.08362556565856
    Total Energy =                       -384.0836255656585081
  @DF-RHF Final Energy:  -384.08386420129443
    Total Energy =                       -384.0838642012945456
  @DF-RHF Final Energy:  -384.08398514188593
    Total Energy =                       -384.0839851418857052
  @DF-RHF Final Energy:  -384.08401550636228
    Total Energy =                       -384.0840155063624479
  @DF-RHF Final Energy:  -384.08406757539262
    Total Energy =                       -384.0840675753927371
  @DF-RHF Final Energy:  -384.08412475615506
    Total Energy =                       -384.0841247561544378
  @DF-RHF Final Energy:  -384.08420878227247
    Total Energy =                       -384.0842087822722988
  @DF-RHF Final Energy:  -384.08431468630147
    Total Energy =                       -384.0843146863012407
  @DF-RHF Final Energy:  -384.08438903438321
    Total Energy =                       -384.0843890343832072
  @DF-RHF Final Energy:  -384.08445394046851
    Total Energy =                       -384.0844539404681655
  @DF-RHF Final Energy:  -384.08447943463597
    Total Energy =                       -384.0844794346356821
  @DF-RHF Final Energy:  -384.08449044819849
    Total Energy =                       -384.0844904481984941
  @DF-RHF Final Energy:  -384.08449941165497
    Total Energy =                       -384.0844994116544058
  @DF-RHF Final Energy:  -384.08450619367511
    Total Energy =                       -384.0845061936747697
  @DF-RHF Final Energy:  -384.08450799560819
    Total Energy =                       -384.0845079956079644
  @DF-RHF Final Energy:  -384.08447206692597
    Total Energy =                       -384.0844720669256276
  Basis Set: CC-PVTZ
  Basis Set:
  @DF-RHF Final Energy:  -384.08448487466114
    Total Energy =                       -384.0844848746609159
  Basis Set: CC-PVTZ
  Basis Set:
  Basis Set: CC-PVTZ
  Basis Set:
  @DF-RHF Final Energy:  -384.08450053146260
    Total Energy =                       -384.0845005314625951
  Basis Set: CC-PVTZ
  Basis Set:
  Basis Set: CC-PVTZ
  Basis Set:
  @DF-RHF Final Energy:  -384.08450943157550
    Total Energy =                       -384.0845094315759525
  Basis Set: CC-PVTZ
  Basis Set:
  Charge       = 0
  Multiplicity = 1
  Basis Set: CC-PVTZ
  Basis Set:

    Orbital Energies (a.u.)
    -----------------------

    Doubly Occupied:

       1A    -20.606185     2A    -20.540345     3A    -11.375973
       4A    -11.240570     5A    -11.225883     6A    -11.212709
       7A    -11.203166     8A    -11.199486     9A     -1.479655
      10A     -1.370114    11A     -1.088979    12A     -1.037133
      13A     -0.955996    14A     -0.872420    15A     -0.809328
      16A     -0.779483    17A     -0.707866    18A     -0.688977
      19A     -0.661987    20A     -0.629873    21A     -0.603271
      22A     -0.591084    23A     -0.560425    24A     -0.555655
      25A     -0.551376    26A     -0.499109    27A     -0.495793
      28A     -0.484116    29A     -0.466690    30A     -0.460559
      31A     -0.450702    32A     -0.438249

  @DF-RHF Final Energy:  -384.08450944577953

   => Energetics <=

    Nuclear Repulsion Energy =            388.9394545810898762
    One-Electron Energy =               -1294.3616001979776229
    Two-Electron Energy =                 521.3376361711081017
    DFT Exchange-Correlation Energy =       0.0000000000000000
    Empirical Dispersion Energy =           0.0000000000000000
    PCM Polarization Energy =               0.0000000000000000
    EFP Energy =                            0.0000000000000000
    Total Energy =                       -384.0845094457796449
    Molecular point group: c1
  Basis Set: CC-PVTZ
  Basis Set:

  -Total Gradient:
     Atom            X                  Y                   Z
    ------   -----------------  -----------------  -----------------
       1       -0.000002114152     0.000015745631    -0.000021132831
       2       -0.000052065623    -0.000012146043    -0.000025622847
       3        0.000036200422    -0.000075358539    -0.000059989623
       4       -0.003341171463     0.000004593424     0.006456447676
       5        0.000036285664     0.000022594353     0.000109824525
       6       -0.004669220990    -0.004730454859     0.001730741472
       7        0.003519763810     0.000789610554    -0.005645672957
       8       -0.000029033391    -0.000008970238     0.000024182509
       9       -0.000031999358    -0.000011677795    -0.000006262806
      10        0.004521087281     0.003987751729    -0.002610923408
      11       -0.000019970785    -0.000006429567     0.000044562637
      12        0.000021115991     0.000032498169     0.000021048731
      13        0.000016837753    -0.000004175005     0.000022632540
      14       -0.000025292273    -0.000019225728    -0.000009530180
      15       -0.000007349148     0.000021841206    -0.000002508891
      16        0.000001148874     0.000002230645     0.000008732558
      17        0.000018901248    -0.000008877374    -0.000028864680
      18        0.000007706425    -0.000000525592    -0.000005131312
      19       -0.000006657248    -0.000001157215     0.000005969775
      20        0.000005826963     0.000002132236    -0.000008502882

  **** Optimization is complete! (in 30 steps) ****
    Final optimized geometry and variables:
    Molecular point group: c1

    Geometry (in Angstrom), charge = 0, multiplicity = 1:

    H            1.923343262252    -2.044750944557     1.730836507784
    O            2.191446394423    -1.258755775848     1.278605354737
    C            1.252884633883    -0.946866963483     0.390814301785
    C            1.640091712646     0.243042178670    -0.441540122700
    O            0.267383436623    -1.590322258358     0.270767859874
    C            0.509074882801     1.105045401419    -1.030839613102
    H            2.358595179111     0.848583266687     0.092702063258
    H            2.214324948817    -0.184220183778    -1.260886395315
    C           -0.755035117388     1.317031634056    -0.175890983462
    H            0.256742964191     0.741678044297    -2.019516125087
    H            0.963570242585     2.072035157392    -1.217400927225
    C           -1.995319343204     0.601233150396    -0.707767641036
    H           -0.968110065628     2.380333675857    -0.127434349432
    H           -0.574472991880     1.005955881767     0.847688451188
    C           -3.221239254421     0.812442046138     0.173625526656
    H           -2.206383280162     0.966575439113    -1.709815410808
    H           -1.787438220404    -0.456829099759    -0.796434071830
    H           -4.089903686331     0.311813051069    -0.238489236327
    H           -3.462477238136     1.866428146886     0.270643142571
    H           -3.056102689457     0.418009929357     1.170685871708

  Mulliken Charges: (a.u.)
   Center  Symbol    Alpha    Beta     Spin     Total
       1     H     0.38113  0.38113  0.00000  0.23773
       2     O     4.15994  4.15994  0.00000 -0.31988
       3     C     2.80129  2.80129  0.00000  0.39742
       4     C     3.11189  3.11189  0.00000 -0.22377
       5     O     4.19693  4.19693  0.00000 -0.39386
       6     C     3.09713  3.09713  0.00000 -0.19425
       7     H     0.43282  0.43282  0.00000  0.13435
       8     H     0.43690  0.43690  0.00000  0.12619
       9     C     3.10217  3.10217  0.00000 -0.20433
      10     H     0.44789  0.44789  0.00000  0.10423
      11     H     0.44394  0.44394  0.00000  0.11213
      12     C     3.07915  3.07915  0.00000 -0.15830
      13     H     0.44485  0.44485  0.00000  0.11031
      14     H     0.45229  0.45229  0.00000  0.09542
      15     C     3.15252  3.15252  0.00000 -0.30505
      16     H     0.45795  0.45795  0.00000  0.08410
      17     H     0.44019  0.44019  0.00000  0.11962
      18     H     0.44901  0.44901  0.00000  0.10197
      19     H     0.45807  0.45807  0.00000  0.08386
      20     H     0.45395  0.45395  0.00000  0.09210

   Total alpha = 32.00000, Total beta = 32.00000, Total charge = -0.00000

*** Psi4 exiting successfully. Buy a developer a beer!
