  ==> Input File <==

--------------------------------------------------------------------------
set {
	reference rhf
	basis cc-pvtz
}

set_num_threads( 4 )
memory 2 gb

molecule MOL {
0 1

H	 2.700023	 -0.495652	 -1.032409
N	 2.433987	 -0.362316	 -0.080024
C	 1.263552	 0.494993	 0.021953
H	 3.215657	 0.044377	 0.390007
C	 -0.016533	 -0.325589	 -0.026925
H	 1.280915	 1.180773	 -0.818522
H	 1.263064	 1.106893	 0.925038
C	 -1.280353	 0.525521	 0.047747
H	 -0.016686	 -0.912532	 -0.939714
H	 -0.014099	 -1.037598	 0.796369
C	 -2.560681	 -0.301323	 -0.007747
H	 -1.279957	 1.241025	 -0.770189
H	 -1.270445	 1.110526	 0.963468
H	 -2.617064	 -0.872870	 -0.928010
H	 -3.439525	 0.331102	 0.043462
H	 -2.609427	 -1.002736	 0.818585

	symmetry c1
}
set optking {
	frozen_dihedral = ("
		1 2 3 6
	")
}

ee = optimize('scf')
oeprop('DIPOLE', 'QUADRUPOLE', 'MULLIKEN_CHARGES')
f=open( 'psi4out.xyz', 'w' )
f.write( "16  " )
f.write( str(ee) + "\n" )
f.write( MOL.save_string_xyz() )
f.close()
--------------------------------------------------------------------------

    Molecular point group: c1
  Charge       = 0
  Multiplicity = 1
  Basis Set: CC-PVTZ
  Basis Set:
  @DF-RHF Final Energy:  -212.39736736465704
    Total Energy =                       -212.3973673646572706
    Molecular point group: c1
  Basis Set: CC-PVTZ
  Basis Set:
  Basis Set: CC-PVTZ
  Basis Set:
  @DF-RHF Final Energy:  -212.39863611500709
    Total Energy =                       -212.3986361150069797
  Basis Set: CC-PVTZ
  Basis Set:
  Basis Set: CC-PVTZ
  Basis Set:
  @DF-RHF Final Energy:  -212.39885047365007
    Total Energy =                       -212.3988504736502705
  Basis Set: CC-PVTZ
  Basis Set:
  Basis Set: CC-PVTZ
  Basis Set:
  @DF-RHF Final Energy:  -212.39885463041099
    Total Energy =                       -212.3988546304109946
  Basis Set: CC-PVTZ
  Basis Set:
  Charge       = 0
  Multiplicity = 1
  Basis Set: CC-PVTZ
  Basis Set:

    Orbital Energies (a.u.)
    -----------------------

    Doubly Occupied:

       1A    -15.527012     2A    -11.238860     3A    -11.211055
       4A    -11.204442     5A    -11.203644     6A     -1.177242
       7A     -1.059216     8A     -0.959220     9A     -0.843149
      10A     -0.788649    11A     -0.673512    12A     -0.627668
      13A     -0.610098    14A     -0.577022    15A     -0.556431
      16A     -0.530303    17A     -0.493102    18A     -0.472258
      19A     -0.466114    20A     -0.460464    21A     -0.383573

  @DF-RHF Final Energy:  -212.39885558327398

   => Energetics <=

    Nuclear Repulsion Energy =            186.2614992010958304
    One-Electron Energy =                -655.1946446702254434
    Two-Electron Energy =                 256.5342898858555145
    DFT Exchange-Correlation Energy =       0.0000000000000000
    Empirical Dispersion Energy =           0.0000000000000000
    PCM Polarization Energy =               0.0000000000000000
    EFP Energy =                            0.0000000000000000
    Total Energy =                       -212.3988555832740985
    Molecular point group: c1
  Basis Set: CC-PVTZ
  Basis Set:

  -Total Gradient:
     Atom            X                  Y                   Z
    ------   -----------------  -----------------  -----------------
       1        0.001564988549     0.002148077899     0.000220052406
       2       -0.002332188447    -0.003085872993    -0.000681593376
       3        0.001995452147     0.002515244626     0.001800054879
       4        0.000014464669    -0.000008629027     0.000011813230
       5        0.000023050103     0.000026132313     0.000024572779
       6       -0.001240205698    -0.001599119174    -0.001406897280
       7       -0.000026617126    -0.000006600832     0.000006782283
       8       -0.000002383466     0.000002316344     0.000011502243
       9        0.000020023798     0.000016360852     0.000008339426
      10       -0.000005312580    -0.000007990820     0.000007495217
      11       -0.000007532400     0.000004330256    -0.000002443509
      12        0.000006423006    -0.000002291482     0.000005829130
      13       -0.000006056105    -0.000001070364     0.000000801082
      14        0.000001190412    -0.000002478200    -0.000000386981
      15       -0.000005437522    -0.000002735777    -0.000005482703
      16        0.000000140655     0.000004326380    -0.000000438826

  **** Optimization is complete! (in 5 steps) ****
    Final optimized geometry and variables:
    Molecular point group: c1

    Geometry (in Angstrom), charge = 0, multiplicity = 1:

    H            2.732973474984    -0.494222874540    -0.996577760222
    N            2.438888097601    -0.369424264800    -0.051267359557
    C            1.261435178768     0.489132146131     0.024222347551
    H            3.209916153722     0.042772124262     0.428709109240
    C           -0.021699442790    -0.330962342617    -0.014088143471
    H            1.231427663514     1.217430482030    -0.785065581402
    H            1.300795344504     1.047565686486     0.952726350123
    C           -1.284305849409     0.522144920638     0.055835912685
    H           -0.032976991779    -0.923076555421    -0.926267478247
    H           -0.003714317698    -1.039260922450     0.807949012531
    C           -2.566083302728    -0.303556321514     0.018622598920
    H           -1.290274608930     1.230278500417    -0.768782923728
    H           -1.267619027066     1.116644342434     0.965830373999
    H           -2.630363690666    -0.883973802965    -0.895738580066
    H           -3.444300590850     0.329864825550     0.070639180927
    H           -2.608025924376    -0.997109428403     0.851673974310

  Mulliken Charges: (a.u.)
   Center  Symbol    Alpha    Beta     Spin     Total
       1     H     0.43039  0.43039  0.00000  0.13922
       2     N     3.69076  3.69076  0.00000 -0.38151
       3     C     3.03954  3.03954  0.00000 -0.07908
       4     H     0.42764  0.42764  0.00000  0.14471
       5     C     3.06757  3.06757  0.00000 -0.13513
       6     H     0.46415  0.46415  0.00000  0.07170
       7     H     0.45629  0.45629  0.00000  0.08741
       8     C     3.09020  3.09020  0.00000 -0.18041
       9     H     0.45967  0.45967  0.00000  0.08066
      10     H     0.45277  0.45277  0.00000  0.09447
      11     C     3.14920  3.14920  0.00000 -0.29841
      12     H     0.45693  0.45693  0.00000  0.08614
      13     H     0.45621  0.45621  0.00000  0.08758
      14     H     0.45518  0.45518  0.00000  0.08964
      15     H     0.44916  0.44916  0.00000  0.10168
      16     H     0.45433  0.45433  0.00000  0.09133

   Total alpha = 21.00000, Total beta = 21.00000, Total charge = -0.00000
