  ==> Input File <==

--------------------------------------------------------------------------
set {
	reference rhf
	basis cc-pvtz
}

set_num_threads( 4 )
memory 2 gb

molecule MOL {
0 1

H	 1.055158	 -0.776811	 -1.288018
O	 1.243339	 0.141564	 -1.212998
C	 0.706474	 0.636793	 -0.025501
C	 -0.793473	 0.591216	 0.050087
H	 1.036448	 1.665873	 0.054579
H	 1.117794	 0.111821	 0.834685
C	 -1.534243	 -0.493009	 -0.013340
H	 -1.266611	 1.552628	 0.164437
H	 -1.101195	 -1.466332	 -0.144046
H	 -2.604242	 -0.437780	 0.050785

	symmetry c1
}
set optking {
	frozen_dihedral = ("
		5 3 4 7
	")
}

ee = optimize('scf')
oeprop('DIPOLE', 'QUADRUPOLE', 'MULLIKEN_CHARGES')
f=open( 'psi4out.xyz', 'w' )
f.write( "10  " )
f.write( str(ee) + "\n" )
f.write( MOL.save_string_xyz() )
f.close()
--------------------------------------------------------------------------

    Molecular point group: c1
  Charge       = 0
  Multiplicity = 1
  Basis Set: CC-PVTZ
  Basis Set:
  @DF-RHF Final Energy:  -191.99208685376954
    Total Energy =                       -191.9920868537694787
    Molecular point group: c1
  Basis Set: CC-PVTZ
  Basis Set:
  Basis Set: CC-PVTZ
  Basis Set:
  @DF-RHF Final Energy:  -191.99258571996353
    Total Energy =                       -191.9925857199636425
  Basis Set: CC-PVTZ
  Basis Set:
  Basis Set: CC-PVTZ
  Basis Set:
  @DF-RHF Final Energy:  -191.99271982685752
    Total Energy =                       -191.9927198268574955
  Basis Set: CC-PVTZ
  Basis Set:
  Basis Set: CC-PVTZ
  Basis Set:
  @DF-RHF Final Energy:  -191.99276928460893
    Total Energy =                       -191.9927692846089826
  Basis Set: CC-PVTZ
  Basis Set:
  Basis Set: CC-PVTZ
  Basis Set:
  @DF-RHF Final Energy:  -191.99278229560974
    Total Energy =                       -191.9927822956097714
  Basis Set: CC-PVTZ
  Basis Set:
  Basis Set: CC-PVTZ
  Basis Set:
  @DF-RHF Final Energy:  -191.99278491170401
    Total Energy =                       -191.9927849117039500
  Basis Set: CC-PVTZ
  Basis Set:
  Charge       = 0
  Multiplicity = 1
  Basis Set: CC-PVTZ
  Basis Set:

    Orbital Energies (a.u.)
    -----------------------

    Doubly Occupied:

       1A    -20.549078     2A    -11.276071     3A    -11.234730
       4A    -11.227259     5A     -1.367721     6A     -1.066930
       7A     -0.929835     8A     -0.776177     9A     -0.701511
      10A     -0.643190    11A     -0.629496    12A     -0.582168
      13A     -0.541714    14A     -0.497087    15A     -0.441850
      16A     -0.379331

  @DF-RHF Final Energy:  -191.99278509847753

   => Energetics <=

    Nuclear Repulsion Energy =            118.6807487053056036
    One-Electron Energy =                -495.6587741544034884
    Two-Electron Energy =                 184.9852403506203586
    DFT Exchange-Correlation Energy =       0.0000000000000000
    Empirical Dispersion Energy =           0.0000000000000000
    PCM Polarization Energy =               0.0000000000000000
    EFP Energy =                            0.0000000000000000
    Total Energy =                       -191.9927850984775546
    Molecular point group: c1
  Basis Set: CC-PVTZ
  Basis Set:

  -Total Gradient:
     Atom            X                  Y                   Z
    ------   -----------------  -----------------  -----------------
       1       -0.000002971815     0.000008708347     0.000016346975
       2        0.000038316661    -0.000009839640    -0.000056293637
       3       -0.000013426233    -0.000087599929     0.001734838713
       4        0.000059897608    -0.000179840199     0.002461522610
       5       -0.000038727862     0.000127155623    -0.002143762266
       6        0.000004974938     0.000001597246    -0.000014230239
       7       -0.000072314049     0.000125592793    -0.002002979232
       8        0.000005347038     0.000004850926    -0.000001801340
       9        0.000011285895     0.000002269802     0.000006263133
      10        0.000007617819     0.000007105031     0.000000095283

  **** Optimization is complete! (in 7 steps) ****
    Final optimized geometry and variables:
    Molecular point group: c1

    Geometry (in Angstrom), charge = 0, multiplicity = 1:

    H            0.876830450872    -0.896722553440    -1.066801324921
    O            1.276887078835    -0.073816682683    -0.854443908520
    C            0.732560253919     0.432832972110     0.335094224122
    C           -0.780980922901     0.404803222548     0.366937720823
    H            1.078526367819     1.454040804640     0.394643292778
    H            1.129234793656    -0.104908093186     1.191623327017
    C           -1.500453431453    -0.694684875419     0.310537181701
    H           -1.283886018370     1.354882062240     0.406011824268
    H           -1.050367592069    -1.672551953176     0.277759818756
    H           -2.573283990646    -0.665312813748     0.300920823604

  Mulliken Charges: (a.u.)
   Center  Symbol    Alpha    Beta     Spin     Total
       1     H     0.39256  0.39256  0.00000  0.21487
       2     O     4.20004  4.20004  0.00000 -0.40008
       3     C     2.95327  2.95327  0.00000  0.09345
       4     C     3.07809  3.07809  0.00000 -0.15619
       5     H     0.45486  0.45486  0.00000  0.09027
       6     H     0.46761  0.46761  0.00000  0.06477
       7     C     3.17552  3.17552  0.00000 -0.35105
       8     H     0.41801  0.41801  0.00000  0.16399
       9     H     0.43484  0.43484  0.00000  0.13031
      10     H     0.42518  0.42518  0.00000  0.14965

   Total alpha = 16.00000, Total beta = 16.00000, Total charge = -0.00000
