                              Psi4 1.0.54 Driver

  ==> Input File <==

--------------------------------------------------------------------------
set {
	reference rhf
	basis cc-pvtz
}

set_num_threads( 4 )
memory 2 gb

molecule MOL {
0 1

O	 1.088230	 0.644740	 0.933629
C	 0.576499	 0.134701	 -0.003900
C	 -0.765656	 -0.550508	 -0.002152
O	 1.136025	 0.092218	 -1.201856
C	 -1.945526	 0.411052	 0.000603
H	 -0.794329	 -1.203792	 -0.868145
H	 -0.791555	 -1.205429	 0.862701
C	 -3.282915	 -0.321280	 0.002596
H	 -1.880300	 1.059126	 -0.864925
H	 -1.877207	 1.057892	 0.866807
H	 -3.388495	 -0.952755	 -0.873419
H	 -4.107811	 0.380864	 0.004116
H	 -3.385717	 -0.953283	 0.878571
C	 2.405919	 0.695863	 -1.346751
H	 2.356262	 1.748789	 -1.112371
H	 2.684880	 0.556756	 -2.378507
H	 3.128595	 0.223795	 -0.697958

	symmetry c1
}
set optking {
	frozen_dihedral = ("
		1 2 3 6
	")
}

ee,wfn = optimize('scf', return_wfn=True)
oeprop( wfn, 'DIPOLE', 'QUADRUPOLE', 'MULLIKEN_CHARGES')
f=open( 'psi4out.xyz', 'w' )
f.write( "17  " )
f.write( str(ee) + "\n" )
f.write( MOL.save_string_xyz() )
f.close()
--------------------------------------------------------------------------

    Molecular point group: c1
  Charge       = 0
  Multiplicity = 1
  Basis Set: CC-PVTZ
  Basis Set:
  @DF-RHF Final Energy:  -345.03322555845500
    Total Energy =                       -345.0332255584550580
    Molecular point group: c1
  Basis Set: CC-PVTZ
  Basis Set:
  Basis Set: CC-PVTZ
  Basis Set:
  @DF-RHF Final Energy:  -344.86263066565107
    Total Energy =                       -344.8626306656510678
  Basis Set: CC-PVTZ
  Basis Set:
  Basis Set: CC-PVTZ
  Basis Set:
  @DF-RHF Final Energy:  -344.98659532602136
    Total Energy =                       -344.9865953260211882
  Basis Set: CC-PVTZ
  Basis Set:
  Basis Set: CC-PVTZ
  Basis Set:
  @DF-RHF Final Energy:  -345.03196533670041
    Total Energy =                       -345.0319653367007504
  Basis Set: CC-PVTZ
  Basis Set:
  @DF-RHF Final Energy:  -345.03287201754989
    Total Energy =                       -345.0328720175499484
  @DF-RHF Final Energy:  -345.03213532660385
    Total Energy =                       -345.0321353266033384
  Basis Set: CC-PVTZ
  Basis Set:
  @DF-RHF Final Energy:  -345.03404021250293
    Total Energy =                       -345.0340402125027595
  Basis Set: CC-PVTZ
  Basis Set:
  Basis Set: CC-PVTZ
  Basis Set:
  @DF-RHF Final Energy:  -345.03406736104836
    Total Energy =                       -345.0340673610485283
  Basis Set: CC-PVTZ
  Basis Set:
  Basis Set: CC-PVTZ
  Basis Set:
  @DF-RHF Final Energy:  -345.03407125899105
    Total Energy =                       -345.0340712589916734
  Basis Set: CC-PVTZ
  Basis Set:
  Charge       = 0
  Multiplicity = 1
  Basis Set: CC-PVTZ
  Basis Set:

    Orbital Energies (a.u.)
    -----------------------

    Doubly Occupied:

       1A    -20.598481     2A    -20.531656     3A    -11.363783
       4A    -11.278669     5A    -11.232489     6A    -11.229747
       7A    -11.216344     8A     -1.472419     9A     -1.364659
      10A     -1.084683    11A     -1.001098    12A     -0.942411
      13A     -0.829966    14A     -0.775473    15A     -0.700287
      16A     -0.683243    17A     -0.676292    18A     -0.637747
      19A     -0.596499    20A     -0.583843    21A     -0.557356
      22A     -0.540677    23A     -0.527685    24A     -0.506843
      25A     -0.486938    26A     -0.484968    27A     -0.457994
      28A     -0.436441

  @DF-RHF Final Energy:  -345.03407143438733

   => Energetics <=

    Nuclear Repulsion Energy =            314.1094456907583208
    One-Electron Energy =               -1092.6896511052443657
    Two-Electron Energy =                 433.5461339800987162
    DFT Exchange-Correlation Energy =       0.0000000000000000
    Empirical Dispersion Energy =           0.0000000000000000
    PCM Polarization Energy =               0.0000000000000000
    EFP Energy =                            0.0000000000000000
    Total Energy =                       -345.0340714343873287
    Molecular point group: c1
  Basis Set: CC-PVTZ
  Basis Set:

  -Total Gradient:
     Atom            X                  Y                   Z
    ------   -----------------  -----------------  -----------------
       1       -0.000185513606     0.000302918920     0.000004876173
       2        0.000188398840    -0.000372653408    -0.000031748012
       3        0.000144673334    -0.000238746960     0.000055175462
       4        0.000057811879     0.000020384645    -0.000026637851
       5       -0.000019925439    -0.000004013058     0.000025192823
       6       -0.000163400606     0.000296761212    -0.000019758404
       7       -0.000010263373     0.000011324885    -0.000003542469
       8        0.000004970624     0.000000307947    -0.000007865488
       9        0.000005670868    -0.000012129696     0.000002042227
      10        0.000003930224    -0.000003259670    -0.000008070347
      11       -0.000000093327    -0.000001391726     0.000007805463
      12        0.000004185721    -0.000001238437    -0.000005273244
      13        0.000002398111     0.000011596334    -0.000003984663
      14       -0.000044232069    -0.000001261358     0.000008595709
      15        0.000010077672    -0.000001844906    -0.000007053482
      16        0.000000976809    -0.000006706550     0.000011433267
      17        0.000000334338    -0.000000048175    -0.000001187158

  **** Optimization is complete! (in 10 steps) ****
    Final optimized geometry and variables:
    Molecular point group: c1

    Geometry (in Angstrom), charge = 0, multiplicity = 1:

    O            1.312684588993    -0.039538562715     1.094243669458
    C            0.691970688484    -0.118313760396     0.088422527704
    C           -0.614749727737    -0.856018476878    -0.045457505906
    O            1.061281805928     0.466668939766    -1.038103725551
    C           -1.770803423735    -0.029416344859     0.529197268073
    H           -0.799062312017    -1.082778752195    -1.086554371288
    H           -0.519991623833    -1.783514086287     0.504089303583
    C           -3.103951160056    -0.762034137547     0.436216074960
    H           -1.836193690833     0.913352857128    -0.004641120011
    H           -1.551702831677     0.208543537830     1.563292720932
    H           -3.356113998725    -0.990198014167    -0.593735372283
    H           -3.905080312701    -0.160031442983     0.847983730852
    H           -3.075026537137    -1.696557021476     0.985845227324
    C            2.254089824411     1.224985187545    -1.012564412460
    H            2.176107301602     2.033820260179    -0.301359469704
    H            2.379774130931     1.615620522012    -2.009274139063
    H            3.095070018943     0.602056662980    -0.746785607899

  Mulliken Charges: (a.u.)
   Center  Symbol    Alpha    Beta     Spin     Total
       1     O     4.20505  4.20505  0.00000 -0.41010
       2     C     2.80736  2.80736  0.00000  0.38527
       3     C     3.07864  3.07864  0.00000 -0.15728
       4     O     4.14763  4.14763  0.00000 -0.29527
       5     C     3.09100  3.09100  0.00000 -0.18201
       6     H     0.44305  0.44305  0.00000  0.11389
       7     H     0.44169  0.44169  0.00000  0.11662
       8     C     3.15138  3.15138  0.00000 -0.30276
       9     H     0.44977  0.44977  0.00000  0.10046
      10     H     0.44183  0.44183  0.00000  0.11634
      11     H     0.45444  0.45444  0.00000  0.09111
      12     H     0.44608  0.44608  0.00000  0.10783
      13     H     0.45305  0.45305  0.00000  0.09390
      14     C     3.03578  3.03578  0.00000 -0.07156
      15     H     0.45432  0.45432  0.00000  0.09136
      16     H     0.44541  0.44541  0.00000  0.10919
      17     H     0.45350  0.45350  0.00000  0.09300

   Total alpha = 28.00000, Total beta = 28.00000, Total charge = -0.00000

*** Psi4 exiting successfully. Buy a developer a beer!
