  ==> Input File <==

--------------------------------------------------------------------------
set {
	reference rhf
	basis 6-31G*
}

set_num_threads( 4 )
memory 2 gb

molecule MOL {
0 1

O	 -2.042549	 -1.228399	 -0.269030
C	 -1.653912	 -0.146171	 0.050137
C	 -0.332303	 0.024011	 0.778412
C	 -2.438579	 1.106236	 -0.272369
C	 0.091491	 -1.286278	 1.460623
H	 0.442710	 0.350202	 0.090418
H	 -0.466724	 0.796149	 1.527850
C	 1.404763	 -1.150297	 2.232541
H	 0.193762	 -2.072957	 0.715130
H	 -0.700861	 -1.597561	 2.134731
C	 1.823997	 -2.449410	 2.919385
H	 2.191791	 -0.829450	 1.553519
H	 1.302448	 -0.364049	 2.976795
H	 1.967499	 -3.247379	 2.196401
H	 1.070403	 -2.777989	 3.629015
H	 2.755976	 -2.322592	 3.461010
H	 -3.277823	 0.863061	 -0.908988
H	 -1.806773	 1.843019	 -0.759671
H	 -2.802853	 1.554979	 0.648059

	symmetry c1
}
set optking {
	frozen_dihedral = ("
		5 3 2 4
	")
}

ee = optimize('scf')
oeprop('DIPOLE', 'QUADRUPOLE', 'MULLIKEN_CHARGES')
f=open( 'psi4out.xyz', 'w' )
f.write( "19  " )
f.write( str(ee) + "\n" )
f.write( MOL.save_string_xyz() )
f.close()
--------------------------------------------------------------------------

    Molecular point group: c1
  Charge       = 0
  Multiplicity = 1
  Basis Set: 6-31G*
  Basis Set:
  @DF-RHF Final Energy:  -309.06563213828753
    Total Energy =                       -309.0656321382875831
    Molecular point group: c1
  Basis Set: 6-31G*
  Basis Set:
  Basis Set: 6-31G*
  Basis Set:
  @DF-RHF Final Energy:  -309.06580758524399
    Total Energy =                       -309.0658075852439310
  Basis Set: 6-31G*
  Basis Set:
  Basis Set: 6-31G*
  Basis Set:
  @DF-RHF Final Energy:  -309.06652034864413
    Total Energy =                       -309.0665203486445876
  Basis Set: 6-31G*
  Basis Set:
  Basis Set: 6-31G*
  Basis Set:
  @DF-RHF Final Energy:  -309.06669636326814
    Total Energy =                       -309.0666963632681927
  Basis Set: 6-31G*
  Basis Set:
  @DF-RHF Final Energy:  -309.06676804835007
    Total Energy =                       -309.0667680483498998
  Basis Set: 6-31G*
  Basis Set:
  @DF-RHF Final Energy:  -309.06675728708262
    Total Energy =                       -309.0667572870826234
  Basis Set: 6-31G*
  Basis Set:
  Basis Set: 6-31G*
  Basis Set:
  @DF-RHF Final Energy:  -309.06679440595474
    Total Energy =                       -309.0667944059548518
  Basis Set: 6-31G*
  Basis Set:
  Basis Set: 6-31G*
  Basis Set:
  @DF-RHF Final Energy:  -309.06679562496151
    Total Energy =                       -309.0667956249614576
  Basis Set: 6-31G*
  Basis Set:
  Charge       = 0
  Multiplicity = 1
  Basis Set: 6-31G*
  Basis Set:

    Orbital Energies (a.u.)
    -----------------------

    Doubly Occupied:

       1A    -20.549840     2A    -11.326503     3A    -11.232015
       4A    -11.228729     5A    -11.219794     6A    -11.218142
       7A    -11.210373     8A     -1.395501     9A     -1.086071
      10A     -1.029747    11A     -0.983765    12A     -0.886509
      13A     -0.801593    14A     -0.731009    15A     -0.657371
      16A     -0.649752    17A     -0.625297    18A     -0.611265
      19A     -0.581181    20A     -0.571243    21A     -0.554422
      22A     -0.530470    23A     -0.512248    24A     -0.487179
      25A     -0.475874    26A     -0.473276    27A     -0.468804
      28A     -0.399730

  @DF-RHF Final Energy:  -309.06679633247677

   => Energetics <=

    Nuclear Repulsion Energy =            300.8064077288960334
    One-Electron Energy =               -1014.7510048952960915
    Two-Electron Energy =                 404.8778008339235157
    DFT Exchange-Correlation Energy =       0.0000000000000000
    Empirical Dispersion Energy =           0.0000000000000000
    PCM Polarization Energy =               0.0000000000000000
    EFP Energy =                            0.0000000000000000
    Total Energy =                       -309.0667963324765424
    Molecular point group: c1
  Basis Set: 6-31G*
  Basis Set:

  -Total Gradient:
     Atom            X                  Y                   Z
    ------   -----------------  -----------------  -----------------
       1        0.000103888527    -0.000030830396    -0.000011811939
       2        0.000364503305     0.000170512796    -0.000741612283
       3        0.000450517563    -0.000365774256    -0.000689575325
       4       -0.000429588813    -0.000050679695     0.000811112205
       5       -0.000433785965     0.000202298197     0.000659410787
       6       -0.000022178088    -0.000011054597    -0.000010035098
       7       -0.000013474184     0.000023216664    -0.000015423278
       8       -0.000016035613     0.000034290035     0.000012600453
       9        0.000018768448    -0.000008010691     0.000007058232
      10       -0.000026811505     0.000010056246     0.000018224379
      11       -0.000019600050    -0.000022167603    -0.000025479992
      12       -0.000014144764     0.000018744248    -0.000007217238
      13       -0.000012317538    -0.000000319129     0.000007683597
      14       -0.000002820723    -0.000011398444     0.000002982568
      15        0.000005680289    -0.000000931187     0.000008750168
      16       -0.000004331466     0.000009692442    -0.000015678132
      17        0.000038072930    -0.000024122294     0.000007909490
      18        0.000006629617     0.000021412431    -0.000013959639
      19        0.000007028035     0.000035065231    -0.000004938954

  **** Optimization is complete! (in 9 steps) ****
    Final optimized geometry and variables:
    Molecular point group: c1

    Geometry (in Angstrom), charge = 0, multiplicity = 1:

    O           -1.632246976123    -0.472561589882    -1.307741071157
    C           -1.212126445392     0.587742837024    -0.958185024269
    C            0.087679621071     0.724279866391    -0.184908302657
    C           -1.954476040602     1.871439565350    -1.262503947289
    C            0.536020816012    -0.563170521962     0.502350633616
    H            0.843388174455     1.060304366165    -0.895172494876
    H           -0.014742180592     1.531925048506     0.536736357613
    C            1.861659858681    -0.401253346204     1.247660840265
    H            0.621483913480    -1.350151053555    -0.238747671087
    H           -0.236491206506    -0.883963786127     1.196390079795
    C            2.312408851959    -1.688798000313     1.936433243749
    H            2.631803250285    -0.077390780005     0.550349714379
    H            1.769528728281     0.390313529109     1.988778875154
    H            2.445701815654    -2.491331693818     1.216905053351
    H            1.579642570624    -2.019410721683     2.666900579364
    H            3.255916225779    -1.547604167873     2.454370265262
    H           -2.753836354647     1.677231229072    -1.964047386643
    H           -1.284250436271     2.625128801254    -1.664742183937
    H           -2.375222492795     2.271362982510    -0.343752463494

  Mulliken Charges: (a.u.)
   Center  Symbol    Alpha    Beta     Spin     Total
       1     O     4.26204  4.26204  0.00000 -0.52408
       2     C     2.73431  2.73431  0.00000  0.53138
       3     C     3.21114  3.21114  0.00000 -0.42229
       4     C     3.28742  3.28742  0.00000 -0.57485
       5     C     3.14869  3.14869  0.00000 -0.29738
       6     H     0.40604  0.40604  0.00000  0.18792
       7     H     0.41314  0.41314  0.00000  0.17372
       8     C     3.15340  3.15340  0.00000 -0.30680
       9     H     0.40705  0.40705  0.00000  0.18590
      10     H     0.41715  0.41715  0.00000  0.16570
      11     C     3.23937  3.23937  0.00000 -0.47874
      12     H     0.42334  0.42334  0.00000  0.15332
      13     H     0.42423  0.42423  0.00000  0.15154
      14     H     0.41952  0.41952  0.00000  0.16097
      15     H     0.42051  0.42051  0.00000  0.15897
      16     H     0.41912  0.41912  0.00000  0.16176
      17     H     0.39688  0.39688  0.00000  0.20624
      18     H     0.41041  0.41041  0.00000  0.17919
      19     H     0.40624  0.40624  0.00000  0.18752

   Total alpha = 28.00000, Total beta = 28.00000, Total charge =  0.00000
