  ==> Input File <==

--------------------------------------------------------------------------
set {
	reference rhf
	basis 6-31G*
}

set_num_threads( 4 )
memory 2 gb

molecule MOL {
0 1

O	 1.524334	 0.159562	 -1.000945
C	 0.861134	 0.272526	 -0.014869
C	 -0.623889	 -0.118271	 -0.003699
C	 1.489259	 0.817600	 1.255705
C	 -0.895332	 -1.256461	 -1.002431
C	 -1.473649	 1.103340	 -0.370799
C	 -0.983900	 -0.581483	 1.422328
H	 -0.615301	 -0.972064	 -2.012700
H	 -1.954261	 -1.493213	 -1.010207
H	 -0.360539	 -2.164946	 -0.747760
H	 -1.227476	 1.468527	 -1.361691
H	 -2.526716	 0.838935	 -0.358521
H	 -1.314819	 1.915855	 0.325860
H	 -2.039679	 -0.828001	 1.472951
H	 -0.427637	 -1.464071	 1.720694
H	 -0.789023	 0.202493	 2.147048
H	 1.718468	 -0.004560	 1.927253
H	 2.412103	 1.318978	 0.998613
H	 0.836679	 1.499762	 1.786757

	symmetry c1
}
set optking {
	frozen_dihedral = ("
		1 2 3 5
	")
}

ee = optimize('scf')
oeprop('DIPOLE', 'QUADRUPOLE', 'MULLIKEN_CHARGES')
f=open( 'psi4out.xyz', 'w' )
f.write( "19  " )
f.write( str(ee) + "\n" )
f.write( MOL.save_string_xyz() )
f.close()
--------------------------------------------------------------------------

    Molecular point group: c1
  Charge       = 0
  Multiplicity = 1
  Basis Set: 6-31G*
  Basis Set:
  @DF-RHF Final Energy:  -309.06043407117551
    Total Energy =                       -309.0604340711752229
    Molecular point group: c1
  Basis Set: 6-31G*
  Basis Set:
  Basis Set: 6-31G*
  Basis Set:
  @DF-RHF Final Energy:  -309.06041770091065
    Total Energy =                       -309.0604177009105342
  Basis Set: 6-31G*
  Basis Set:
  Basis Set: 6-31G*
  Basis Set:
  @DF-RHF Final Energy:  -309.06154039876378
    Total Energy =                       -309.0615403987637819
  Basis Set: 6-31G*
  Basis Set:
  Basis Set: 6-31G*
  Basis Set:
  @DF-RHF Final Energy:  -309.06273185171017
    Total Energy =                       -309.0627318517099411
  Basis Set: 6-31G*
  Basis Set:
  @DF-RHF Final Energy:  -309.06276167482997
    Total Energy =                       -309.0627616748296873
  Basis Set: 6-31G*
  Basis Set:
  @DF-RHF Final Energy:  -309.06277212758692
    Total Energy =                       -309.0627721275869817
  Basis Set: 6-31G*
  Basis Set:
  Basis Set: 6-31G*
  Basis Set:
  @DF-RHF Final Energy:  -309.06277835669687
    Total Energy =                       -309.0627783566969811
  Basis Set: 6-31G*
  Basis Set:
  Basis Set: 6-31G*
  Basis Set:
  @DF-RHF Final Energy:  -309.06278071374885
    Total Energy =                       -309.0627807137486798
  Basis Set: 6-31G*
  Basis Set:
  Charge       = 0
  Multiplicity = 1
  Basis Set: 6-31G*
  Basis Set:

    Orbital Energies (a.u.)
    -----------------------

    Doubly Occupied:

       1A    -20.547962     2A    -11.323055     3A    -11.246417
       4A    -11.227175     5A    -11.223428     6A    -11.223103
       7A    -11.209866     8A     -1.394548     9A     -1.109107
      10A     -1.002683    11A     -0.945583    12A     -0.935797
      13A     -0.834428    14A     -0.703767    15A     -0.664565
      16A     -0.631567    17A     -0.621186    18A     -0.593128
      19A     -0.589391    20A     -0.567843    21A     -0.547299
      22A     -0.545861    23A     -0.524934    24A     -0.512471
      25A     -0.499961    26A     -0.471491    27A     -0.463757
      28A     -0.392061

  @DF-RHF Final Energy:  -309.06278082652261

   => Energetics <=

    Nuclear Repulsion Energy =            326.2870325482103908
    One-Electron Energy =               -1065.5947590649943777
    Two-Electron Energy =                 430.2449456902616021
    DFT Exchange-Correlation Energy =       0.0000000000000000
    Empirical Dispersion Energy =           0.0000000000000000
    PCM Polarization Energy =               0.0000000000000000
    EFP Energy =                            0.0000000000000000
    Total Energy =                       -309.0627808265223848
    Molecular point group: c1
  Basis Set: 6-31G*
  Basis Set:

  -Total Gradient:
     Atom            X                  Y                   Z
    ------   -----------------  -----------------  -----------------
       1       -0.000325317593     0.001058592122    -0.000246118225
       2        0.000493754131    -0.001711654078     0.000593569927
       3       -0.000396113005     0.001243156934    -0.000890910128
       4       -0.000031057593     0.000049943304     0.000011371595
       5        0.000201631336    -0.000543003983     0.000567998596
       6       -0.000038683795    -0.000045420979    -0.000015630567
       7        0.000048973817     0.000019871762     0.000112603250
       8       -0.000007803103    -0.000019498986    -0.000077171005
       9        0.000016719204     0.000007492233    -0.000013532541
      10       -0.000022544761     0.000010597087    -0.000004148211
      11       -0.000006031108     0.000019669828    -0.000004679280
      12       -0.000006282470    -0.000008427930    -0.000008917389
      13        0.000027343193    -0.000044173312    -0.000020572858
      14        0.000008645060     0.000000624767    -0.000015191421
      15       -0.000006572831     0.000000801058     0.000012876498
      16       -0.000019641638    -0.000020799429     0.000009497448
      17       -0.000000790477    -0.000018425983    -0.000037965665
      18        0.000016920859    -0.000006313206     0.000007717881
      19        0.000046850768     0.000006968789     0.000019202098

  **** Optimization is complete! (in 9 steps) ****
    Final optimized geometry and variables:
    Molecular point group: c1

    Geometry (in Angstrom), charge = 0, multiplicity = 1:

    O            1.492225874741     0.128526427402    -1.084256929377
    C            0.877247371151     0.212866678026    -0.064343453774
    C           -0.603830976519    -0.196283879315    -0.007279489937
    C            1.540219848038     0.785345359227     1.174108063833
    C           -0.858615768848    -1.307378157164    -1.034135148267
    C           -1.425261951006     1.053810272491    -0.380083322817
    C           -1.017285069170    -0.688334985423     1.389100863233
    H           -0.579393313001    -0.991727570327    -2.029993073802
    H           -1.910744053252    -1.575825228669    -1.037688200115
    H           -0.286107674645    -2.198138006754    -0.795867767929
    H           -1.161509309042     1.407504108871    -1.370542496655
    H           -2.484541890652     0.816714595663    -0.374951958150
    H           -1.266973312963     1.866288587240     0.323165054170
    H           -2.058225384199    -0.994196169130     1.374617888203
    H           -0.429645979424    -1.547275335267     1.700173291629
    H           -0.916060428088     0.080790980536     2.146828482684
    H            1.668582537300     0.013079370401     1.925880679350
    H            2.510052673389     1.175344503290     0.898924681754
    H            0.943582370689     1.574287409668     1.619367315961

  Mulliken Charges: (a.u.)
   Center  Symbol    Alpha    Beta     Spin     Total
       1     O     4.26563  4.26563  0.00000 -0.53125
       2     C     2.72577  2.72577  0.00000  0.54845
       3     C     3.06543  3.06543  0.00000 -0.13086
       4     C     3.29006  3.29006  0.00000 -0.58013
       5     C     3.23020  3.23020  0.00000 -0.46040
       6     C     3.24031  3.24031  0.00000 -0.48061
       7     C     3.24128  3.24128  0.00000 -0.48257
       8     H     0.40261  0.40261  0.00000  0.19478
       9     H     0.42234  0.42234  0.00000  0.15532
      10     H     0.41819  0.41819  0.00000  0.16362
      11     H     0.40661  0.40661  0.00000  0.18678
      12     H     0.41376  0.41376  0.00000  0.17249
      13     H     0.41931  0.41931  0.00000  0.16138
      14     H     0.41388  0.41388  0.00000  0.17224
      15     H     0.41681  0.41681  0.00000  0.16637
      16     H     0.41761  0.41761  0.00000  0.16478
      17     H     0.40527  0.40527  0.00000  0.18947
      18     H     0.39567  0.39567  0.00000  0.20867
      19     H     0.40927  0.40927  0.00000  0.18147

   Total alpha = 28.00000, Total beta = 28.00000, Total charge =  0.00000
