  ==> Input File <==

--------------------------------------------------------------------------
set {
	reference rhf
	basis 6-31G*
}

set_num_threads( 4 )
memory 2 gb

molecule MOL {
0 1

H	 -2.273092	 1.173159	 0.000295
O	 -1.438904	 1.618192	 0.000114
C	 -0.409536	 0.736003	 0.000030
C	 0.338056	 0.653037	 -1.164196
C	 -0.105209	 -0.054650	 1.106011
H	 0.069170	 1.280744	 -1.993458
C	 1.403166	 -0.224201	 -1.238383
C	 0.970995	 -0.927702	 1.003279
C	 -0.922192	 0.037247	 2.375302
H	 1.979233	 -0.283793	 -2.144523
C	 1.726301	 -1.021475	 -0.152145
H	 1.219023	 -1.545441	 1.848989
H	 -1.966083	 -0.219207	 2.206580
H	 -0.543228	 -0.646246	 3.124435
H	 -0.891393	 1.035379	 2.807484
H	 2.553372	 -1.706011	 -0.202775

	symmetry c1
}
set optking {
	frozen_dihedral = ("
		4 3 2 1
	")
}

ee = optimize('scf')
oeprop('DIPOLE', 'QUADRUPOLE', 'MULLIKEN_CHARGES')
f=open( 'psi4out.xyz', 'w' )
f.write( "16  " )
f.write( str(ee) + "\n" )
f.write( MOL.save_string_xyz() )
f.close()
--------------------------------------------------------------------------

    Molecular point group: c1
  Charge       = 0
  Multiplicity = 1
  Basis Set: 6-31G*
  Basis Set:
  @DF-RHF Final Energy:  -344.59040714453823
    Total Energy =                       -344.5904071445382897
    Molecular point group: c1
  Basis Set: 6-31G*
  Basis Set:
  Basis Set: 6-31G*
  Basis Set:
  @DF-RHF Final Energy:  -344.59115354724605
    Total Energy =                       -344.5911535472458809
  Basis Set: 6-31G*
  Basis Set:
  Basis Set: 6-31G*
  Basis Set:
  @DF-RHF Final Energy:  -344.59123050497573
    Total Energy =                       -344.5912305049757265
  Basis Set: 6-31G*
  Basis Set:
  Basis Set: 6-31G*
  Basis Set:
  @DF-RHF Final Energy:  -344.59124726834142
    Total Energy =                       -344.5912472683418741
  Basis Set: 6-31G*
  Basis Set:
  Basis Set: 6-31G*
  Basis Set:
  @DF-RHF Final Energy:  -344.59125097146813
    Total Energy =                       -344.5912509714679572
  Basis Set: 6-31G*
  Basis Set:
  Charge       = 0
  Multiplicity = 1
  Basis Set: 6-31G*
  Basis Set:

    Orbital Energies (a.u.)
    -----------------------

    Doubly Occupied:

       1A    -20.576823     2A    -11.283771     3A    -11.235067
       4A    -11.229143     5A    -11.228889     6A    -11.224971
       7A    -11.223587     8A    -11.222646     9A     -1.391385
      10A     -1.148583    11A     -1.045276    12A     -1.003169
      13A     -0.934461    14A     -0.826020    15A     -0.808487
      16A     -0.724943    17A     -0.668813    18A     -0.650976
      19A     -0.621322    20A     -0.591051    21A     -0.571089
      22A     -0.567545    23A     -0.546479    24A     -0.519346
      25A     -0.500123    26A     -0.482687    27A     -0.462908
      28A     -0.328689    29A     -0.316851

  @DF-RHF Final Energy:  -344.59125159055202

   => Energetics <=

    Nuclear Repulsion Energy =            349.7262583947563144
    One-Electron Energy =               -1160.7648237692856128
    Two-Electron Energy =                 466.4473137839771653
    DFT Exchange-Correlation Energy =       0.0000000000000000
    Empirical Dispersion Energy =           0.0000000000000000
    PCM Polarization Energy =               0.0000000000000000
    EFP Energy =                            0.0000000000000000
    Total Energy =                       -344.5912515905521332
    Molecular point group: c1
  Basis Set: 6-31G*
  Basis Set:

  -Total Gradient:
     Atom            X                  Y                   Z
    ------   -----------------  -----------------  -----------------
       1       -0.000012627196     0.000061825670    -0.001170899898
       2       -0.000279995413    -0.000324708546     0.001307218966
       3        0.000851829898     0.000837405008     0.000137147388
       4       -0.000612563571    -0.000508496424    -0.000316150009
       5        0.000036585598    -0.000041286534     0.000045986910
       6        0.000003378440    -0.000013727059     0.000013605384
       7        0.000054798576    -0.000071563588     0.000039844372
       8       -0.000094221188     0.000072473002     0.000051271811
       9       -0.000007537733    -0.000011609463    -0.000040944619
      10        0.000004727822    -0.000001656351    -0.000010037647
      11        0.000033207156     0.000013036981    -0.000090147941
      12        0.000004667871    -0.000009043455     0.000008591542
      13        0.000008458418     0.000004130511    -0.000007549491
      14        0.000006724740    -0.000005059097     0.000023353229
      15        0.000012791431    -0.000004245683     0.000001268289
      16       -0.000010224846     0.000002525032     0.000007441715

  **** Optimization is complete! (in 6 steps) ****
    Final optimized geometry and variables:
    Molecular point group: c1

    Geometry (in Angstrom), charge = 0, multiplicity = 1:

    H           -2.388119679940     1.051123339668    -0.215209854848
    O           -1.551768593403     1.497764604880    -0.212222749703
    C           -0.525887424931     0.589394583949    -0.273728830989
    C            0.220729447936     0.513249200365    -1.434456429287
    C           -0.228966288516    -0.206416181575     0.830221786871
    H           -0.040330125642     1.151184706542    -2.258747722133
    C            1.288349823950    -0.366601843790    -1.514228154294
    C            0.839873860943    -1.086008616583     0.726249890671
    C           -1.051428594338    -0.100204412649     2.091582839940
    H            1.870203421963    -0.422061481567    -2.416789180031
    C            1.597092966457    -1.171126190235    -0.432182671281
    H            1.087320195386    -1.709799987826     1.567536602588
    H           -2.068714712339    -0.453124927415     1.937887037361
    H           -0.617717645537    -0.695512027688     2.886050554901
    H           -1.115371960749     0.927920675113     2.429326760033
    H            2.422623285907    -1.858070420007    -0.484035819923

  Mulliken Charges: (a.u.)
   Center  Symbol    Alpha    Beta     Spin     Total
       1     H     0.27194  0.27194  0.00000  0.45612
       2     O     4.38728  4.38728  0.00000 -0.77456
       3     C     2.83448  2.83448  0.00000  0.33104
       4     C     3.11239  3.11239  0.00000 -0.22478
       5     C     2.99966  2.99966  0.00000  0.00068
       6     H     0.39331  0.39331  0.00000  0.21338
       7     C     3.10151  3.10151  0.00000 -0.20302
       8     C     3.11270  3.11270  0.00000 -0.22539
       9     C     3.25028  3.25028  0.00000 -0.50056
      10     H     0.39895  0.39895  0.00000  0.20211
      11     C     3.10117  3.10117  0.00000 -0.20234
      12     H     0.40108  0.40108  0.00000  0.19784
      13     H     0.41974  0.41974  0.00000  0.16052
      14     H     0.41305  0.41305  0.00000  0.17390
      15     H     0.40230  0.40230  0.00000  0.19541
      16     H     0.40017  0.40017  0.00000  0.19966

   Total alpha = 29.00000, Total beta = 29.00000, Total charge =  0.00000
