  ==> Input File <==

--------------------------------------------------------------------------
set {
	reference rhf
	basis 6-31G*
}

set_num_threads( 1 )
memory 2 gb

molecule MOL {
0 1

H	 0.542689	 -2.919892	 2.108812
O	 0.913557	 -2.353043	 1.439562
C	 0.110885	 -1.298210	 1.300062
C	 0.624473	 -0.343591	 0.253101
O	 -0.878684	 -1.168271	 1.944176
C	 -0.265902	 0.883932	 0.072916
H	 1.636593	 -0.075497	 0.537902
H	 0.715293	 -0.902443	 -0.674901
C	 -1.728698	 0.646073	 0.462102
H	 -0.209144	 1.219470	 -0.958188
H	 0.135059	 1.692851	 0.673903
C	 -2.482460	 -0.343073	 -0.431425
H	 -2.245265	 1.602650	 0.432430
H	 -1.779332	 0.308348	 1.496285
C	 -3.960546	 -0.461025	 -0.060175
H	 -2.395034	 -0.026811	 -1.468912
H	 -2.024850	 -1.327147	 -0.371646
H	 -4.472726	 -1.168004	 -0.705284
H	 -4.465146	 0.496508	 -0.151489
H	 -4.081218	 -0.800940	 0.964585

	symmetry c1
}
set optking {
	frozen_dihedral = ("
		16 12 9 6,
		12 9 6 10,
		5 3 4 7,
		1 2 3 5
	")
}

ee = energy('scf')
oeprop('DIPOLE', 'QUADRUPOLE', 'MULLIKEN_CHARGES')
f=open( 'psi4out.xyz', 'w' )
f.write( "20  " )
f.write( str(ee) + "\n" )
f.write( MOL.save_string_xyz() )
f.close()
--------------------------------------------------------------------------

    Molecular point group: c1

    Geometry (in Angstrom), charge = 0, multiplicity = 1:

       Center              X                  Y                   Z               Mass
    ------------   -----------------  -----------------  -----------------  -----------------
           H          1.495950489854    -2.323515344450     1.461177675423     1.007825032070
           O          1.866818489854    -1.756666344450     0.791927675423    15.994914619560
           C          1.064146489854    -0.701833344450     0.652427675423    12.000000000000
           C          1.577734489854     0.252785655550    -0.394533324577    12.000000000000
           O          0.074577489854    -0.571894344450     1.296541675423    15.994914619560
           C          0.687359489854     1.480308655550    -0.574718324577    12.000000000000
           H          2.589854489854     0.520879655550    -0.109732324577     1.007825032070
           H          1.668554489854    -0.306066344450    -1.322535324577     1.007825032070
           C         -0.775436510146     1.242449655550    -0.185532324577    12.000000000000
           H          0.744117489854     1.815846655550    -1.605822324577     1.007825032070
           H          1.088320489854     2.289227655550     0.026268675423     1.007825032070
           C         -1.529198510146     0.253303655550    -1.079059324577    12.000000000000
           H         -1.292003510146     2.199026655550    -0.215204324577     1.007825032070
           H         -0.826070510146     0.904724655550     0.848650675423     1.007825032070
           C         -3.007284510146     0.135351655550    -0.707809324577    12.000000000000
           H         -1.441772510146     0.569565655550    -2.116546324577     1.007825032070
           H         -1.071588510146    -0.730770344450    -1.019280324577     1.007825032070
           H         -3.519464510146    -0.571627344450    -1.352918324577     1.007825032070
           H         -3.511884510146     1.092884655550    -0.799123324577     1.007825032070
           H         -3.127956510146    -0.204563344450     0.316950675423     1.007825032070

  Charge       = 0
  Multiplicity = 1
  Basis Set: 6-31G*
  Basis Set:

    Orbital Energies (a.u.)
    -----------------------

    Doubly Occupied:

       1A    -20.616709     2A    -20.552864     3A    -11.387289
       4A    -11.241507     5A    -11.220546     6A    -11.205398
       7A    -11.199320     8A    -11.190227     9A     -1.480653
      10A     -1.374350    11A     -1.089007    12A     -1.031864
      13A     -0.952605    14A     -0.865019    15A     -0.809238
      16A     -0.777107    17A     -0.710598    18A     -0.687808
      19A     -0.665988    20A     -0.628661    21A     -0.601458
      22A     -0.586791    23A     -0.566641    24A     -0.545519
      25A     -0.531557    26A     -0.509654    27A     -0.503105
      28A     -0.485840    29A     -0.470557    30A     -0.452731
      31A     -0.442515    32A     -0.407282

  @DF-RHF Final Energy:  -383.92179847444339

   => Energetics <=

    Nuclear Repulsion Energy =            400.5418034402155740
    One-Electron Energy =               -1317.3464949943270312
    Two-Electron Energy =                 532.8828930796678378
    DFT Exchange-Correlation Energy =       0.0000000000000000
    Empirical Dispersion Energy =           0.0000000000000000
    PCM Polarization Energy =               0.0000000000000000
    EFP Energy =                            0.0000000000000000
    Total Energy =                       -383.9217984744436762

  Mulliken Charges: (a.u.)
   Center  Symbol    Alpha    Beta     Spin     Total
       1     H     0.26776  0.26776  0.00000  0.46449
       2     O     4.35016  4.35016  0.00000 -0.70032
       3     C     2.61959  2.61959  0.00000  0.76082
       4     C     3.21518  3.21518  0.00000 -0.43036
       5     O     4.28270  4.28270  0.00000 -0.56541
       6     C     3.15713  3.15713  0.00000 -0.31426
       7     H     0.39422  0.39422  0.00000  0.21156
       8     H     0.39526  0.39526  0.00000  0.20947
       9     C     3.17329  3.17329  0.00000 -0.34658
      10     H     0.41694  0.41694  0.00000  0.16612
      11     H     0.41550  0.41550  0.00000  0.16900
      12     C     3.14725  3.14725  0.00000 -0.29450
      13     H     0.42918  0.42918  0.00000  0.14163
      14     H     0.37645  0.37645  0.00000  0.24710
      15     C     3.23890  3.23890  0.00000 -0.47781
      16     H     0.42908  0.42908  0.00000  0.14183
      17     H     0.42822  0.42822  0.00000  0.14356
      18     H     0.42266  0.42266  0.00000  0.15469
      19     H     0.42319  0.42319  0.00000  0.15362
      20     H     0.41733  0.41733  0.00000  0.16534

   Total alpha = 32.00000, Total beta = 32.00000, Total charge =  0.00000
