                              Psi4 1.0.54 Driver

  ==> Input File <==

--------------------------------------------------------------------------
set {
	reference rhf
	basis cc-pvtz
}

set_num_threads( 4 )
memory 2 gb

molecule MOL {
0 1

O	 -0.694481	 1.313155	 -0.204815
C	 -0.862519	 0.151932	 -0.046791
C	 -2.171428	 -0.477048	 0.339095
O	 0.085519	 -0.757083	 -0.192238
H	 -2.467997	 -1.191667	 -0.417688
H	 -2.923379	 0.287970	 0.444097
H	 -2.053854	 -1.015120	 1.270901
C	 1.392036	 -0.330828	 -0.560749
C	 2.270420	 -0.105291	 0.652294
H	 1.318442	 0.563681	 -1.159291
H	 1.778983	 -1.132235	 -1.172116
H	 3.273427	 0.152598	 0.331479
H	 1.889606	 0.703924	 1.260188
H	 2.326401	 -1.002813	 1.256375

	symmetry c1
}
set optking {
	frozen_dihedral = ("
		10 8 4 2
	")
}

ee,wfn = optimize('scf', return_wfn=True)
oeprop( wfn, 'DIPOLE', 'QUADRUPOLE', 'MULLIKEN_CHARGES')
f=open( 'psi4out.xyz', 'w' )
f.write( "14  " )
f.write( str(ee) + "\n" )
f.write( MOL.save_string_xyz() )
f.close()
--------------------------------------------------------------------------

    Molecular point group: c1
  Charge       = 0
  Multiplicity = 1
  Basis Set: CC-PVTZ
  Basis Set:
  @DF-RHF Final Energy:  -305.99097189700478
    Total Energy =                       -305.9909718970048971
    Molecular point group: c1
  Basis Set: CC-PVTZ
  Basis Set:
  Basis Set: CC-PVTZ
  Basis Set:
  @DF-RHF Final Energy:  -305.99099240909356
    Total Energy =                       -305.9909924090937920
  Basis Set: CC-PVTZ
  Basis Set:
  Basis Set: CC-PVTZ
  Basis Set:
  @DF-RHF Final Energy:  -305.99084848657247
    Total Energy =                       -305.9908484865727587
  Basis Set: CC-PVTZ
  Basis Set:
  Basis Set: CC-PVTZ
  Basis Set:
  @DF-RHF Final Energy:  -305.99102335221022
    Total Energy =                       -305.9910233522102772
  Basis Set: CC-PVTZ
  Basis Set:
  Basis Set: CC-PVTZ
  Basis Set:
  @DF-RHF Final Energy:  -305.99102681946619
    Total Energy =                       -305.9910268194664695
  Basis Set: CC-PVTZ
  Basis Set:
  Charge       = 0
  Multiplicity = 1
  Basis Set: CC-PVTZ
  Basis Set:

    Orbital Energies (a.u.)
    -----------------------

    Doubly Occupied:

       1A    -20.594197     2A    -20.533006     3A    -11.368200
       4A    -11.282633     5A    -11.231556     6A    -11.217901
       7A     -1.470242     8A     -1.365893     9A     -1.056465
      10A     -0.999648    11A     -0.882504    12A     -0.769324
      13A     -0.701196    14A     -0.685736    15A     -0.660239
      16A     -0.612490    17A     -0.586285    18A     -0.570887
      19A     -0.561156    20A     -0.529285    21A     -0.519892
      22A     -0.495132    23A     -0.453595    24A     -0.442877

  @DF-RHF Final Energy:  -305.99102690082248

   => Energetics <=

    Nuclear Repulsion Energy =            248.5997254080915297
    One-Electron Energy =                -910.0008258317084255
    Two-Electron Energy =                 355.4100735227941641
    DFT Exchange-Correlation Energy =       0.0000000000000000
    Empirical Dispersion Energy =           0.0000000000000000
    PCM Polarization Energy =               0.0000000000000000
    EFP Energy =                            0.0000000000000000
    Total Energy =                       -305.9910269008227033
    Molecular point group: c1
  Basis Set: CC-PVTZ
  Basis Set:

  -Total Gradient:
     Atom            X                  Y                   Z
    ------   -----------------  -----------------  -----------------
       1        0.000004225802    -0.000012560304     0.000001221915
       2       -0.000198512725    -0.000084031603    -0.000796181474
       3       -0.000017270050    -0.000006764218    -0.000020159644
       4        0.000314237779     0.000270283337     0.001351012001
       5        0.000002025937    -0.000002183185     0.000010102233
       6       -0.000001898058    -0.000000944434     0.000002374113
       7        0.000001979002     0.000007178538     0.000004924067
       8       -0.000182239531    -0.000700424596    -0.001330667484
       9        0.000016241610    -0.000008743150    -0.000006250395
      10        0.000061699778     0.000530657561     0.000778662768
      11        0.000001605983     0.000002043922     0.000000221389
      12        0.000002094202     0.000002450088     0.000004537827
      13       -0.000000711192     0.000001574588     0.000001887108
      14       -0.000003478535     0.000001463458    -0.000001684424

  **** Optimization is complete! (in 6 steps) ****
    Final optimized geometry and variables:
    Molecular point group: c1

    Geometry (in Angstrom), charge = 0, multiplicity = 1:

    O           -0.699612787068     1.349438641825    -0.184588687019
    C           -0.870934450104     0.186719092871    -0.042895437039
    C           -2.182818538459    -0.443346716790     0.330832970435
    O            0.074747880877    -0.724338229744    -0.193610884287
    H           -2.479916377130    -1.145964692813    -0.436874054484
    H           -2.932475461623     0.322536240420     0.445212497847
    H           -2.069063523137    -0.995209548992     1.254976303350
    C            1.381136036112    -0.307390797445    -0.573151932493
    C            2.251727292820    -0.069755943521     0.643146766437
    H            1.309920794353     0.584770788890    -1.173900942105
    H            1.769572821825    -1.114563608229    -1.176082753364
    H            3.256786625147     0.188102949687     0.328968337790
    H            1.863142274692     0.745331947414     1.239625193668
    H            2.303724748689    -0.959558453480     1.258537688337

  Mulliken Charges: (a.u.)
   Center  Symbol    Alpha    Beta     Spin     Total
       1     O     4.19920  4.19920  0.00000 -0.39839
       2     C     2.80136  2.80136  0.00000  0.39727
       3     C     3.13895  3.13895  0.00000 -0.27790
       4     O     4.15785  4.15785  0.00000 -0.31571
       5     H     0.44575  0.44575  0.00000  0.10849
       6     H     0.43828  0.43828  0.00000  0.12344
       7     H     0.44592  0.44592  0.00000  0.10815
       8     C     2.98566  2.98566  0.00000  0.02868
       9     C     3.14552  3.14552  0.00000 -0.29104
      10     H     0.44726  0.44726  0.00000  0.10547
      11     H     0.44540  0.44540  0.00000  0.10919
      12     H     0.45193  0.45193  0.00000  0.09615
      13     H     0.44476  0.44476  0.00000  0.11048
      14     H     0.45215  0.45215  0.00000  0.09570

   Total alpha = 24.00000, Total beta = 24.00000, Total charge =  0.00000

*** Psi4 exiting successfully. Buy a developer a beer!
