  ==> Input File <==

--------------------------------------------------------------------------
set {
	reference rhf
	basis 6-31G*
}

set_num_threads( 4 )
memory 2 gb

molecule MOL {
0 1

H	 -2.646374	 -0.642757	 1.268656
C	 -2.083525	 -0.384536	 0.393091
O	 -0.807605	 -0.127164	 0.768327
F	 -2.118945	 -1.383102	 -0.486752
F	 -2.621877	 0.670592	 -0.209486
C	 0.084052	 0.273579	 -0.209957
C	 1.457012	 -0.241962	 0.201575
Cl	 0.100759	 2.037974	 -0.364385
H	 -0.155788	 -0.136340	 -1.175470
F	 2.360990	 0.092289	 -0.694661
F	 1.413756	 -1.557687	 0.268182
F	 1.829481	 0.220857	 1.369923

	symmetry c1
}
set optking {
	frozen_dihedral = ("
		9 6 3 2
	")
}

ee = optimize('scf')
oeprop('DIPOLE', 'QUADRUPOLE', 'MULLIKEN_CHARGES')
f=open( 'psi4out.xyz', 'w' )
f.write( "12  " )
f.write( str(ee) + "\n" )
f.write( MOL.save_string_xyz() )
f.close()
--------------------------------------------------------------------------

    Molecular point group: c1
  Charge       = 0
  Multiplicity = 1
  Basis Set: 6-31G*
  Basis Set:
  @DF-RHF Final Energy: -1146.31355678867976
    Total Energy =                      -1146.3135567886795343
    Molecular point group: c1
  Basis Set: 6-31G*
  Basis Set:
  Basis Set: 6-31G*
  Basis Set:
  @DF-RHF Final Energy: -1146.31381875298234
    Total Energy =                      -1146.3138187529830248
  Basis Set: 6-31G*
  Basis Set:
  Basis Set: 6-31G*
  Basis Set:
  @DF-RHF Final Energy: -1146.31387389459860
    Total Energy =                      -1146.3138738945979185
  Basis Set: 6-31G*
  Basis Set:
  Basis Set: 6-31G*
  Basis Set:
  @DF-RHF Final Energy: -1146.31388255505044
    Total Energy =                      -1146.3138825550495312
  Basis Set: 6-31G*
  Basis Set:
  Basis Set: 6-31G*
  Basis Set:
  @DF-RHF Final Energy: -1146.31388359724860
    Total Energy =                      -1146.3138835972486049
  Basis Set: 6-31G*
  Basis Set:
  Basis Set: 6-31G*
  Basis Set:
  @DF-RHF Final Energy: -1146.31388509168528
    Total Energy =                      -1146.3138850916848241
  Basis Set: 6-31G*
  Basis Set:
  Charge       = 0
  Multiplicity = 1
  Basis Set: 6-31G*
  Basis Set:

    Orbital Energies (a.u.)
    -----------------------

    Doubly Occupied:

       1A   -104.842971     2A    -26.359744     3A    -26.358246
       4A    -26.357409     5A    -26.346013     6A    -26.345425
       7A    -20.650109     8A    -11.527599     9A    -11.489374
      10A    -11.400679    11A    -10.577763    12A     -8.047126
      13A     -8.043571    14A     -8.043490    15A     -1.760931
      16A     -1.717344    17A     -1.657381    18A     -1.655858
      19A     -1.638091    20A     -1.485788    21A     -1.179237
      22A     -1.053661    23A     -0.985663    24A     -0.918974
      25A     -0.859449    26A     -0.851979    27A     -0.845451
      28A     -0.820619    29A     -0.810234    30A     -0.790249
      31A     -0.727754    32A     -0.726267    33A     -0.707278
      34A     -0.700067    35A     -0.678864    36A     -0.674630
      37A     -0.658119    38A     -0.657338    39A     -0.645214
      40A     -0.634838    41A     -0.596845    42A     -0.578047
      43A     -0.524295    44A     -0.475973    45A     -0.468403

  @DF-RHF Final Energy: -1146.31388541028468

   => Energetics <=

    Nuclear Repulsion Energy =            737.0370702025443279
    One-Electron Energy =               -3056.9531841464486206
    Two-Electron Energy =                1173.6022285336202913
    DFT Exchange-Correlation Energy =       0.0000000000000000
    Empirical Dispersion Energy =           0.0000000000000000
    PCM Polarization Energy =               0.0000000000000000
    EFP Energy =                            0.0000000000000000
    Total Energy =                      -1146.3138854102840014
    Molecular point group: c1
  Basis Set: 6-31G*
  Basis Set:

  -Total Gradient:
     Atom            X                  Y                   Z
    ------   -----------------  -----------------  -----------------
       1       -0.000004864047    -0.000017920189    -0.000007069968
       2       -0.000450351310     0.001696024472     0.000276085730
       3        0.001014334445    -0.002959480874    -0.000272100436
       4       -0.000003174645    -0.000004337347     0.000014491349
       5        0.000003972193     0.000003511266     0.000001165357
       6       -0.001778374120     0.002944432256    -0.000426828288
       7        0.000009985746    -0.000024984215    -0.000010396227
       8        0.000004526374    -0.000026888167    -0.000000857901
       9        0.001232912279    -0.001648210296     0.000427297659
      10       -0.000003960445     0.000017576722    -0.000006824531
      11       -0.000019568174     0.000007963035     0.000000962683
      12       -0.000005438285     0.000012313276     0.000004074570

  **** Optimization is complete! (in 7 steps) ****
    Final optimized geometry and variables:
    Molecular point group: c1

    Geometry (in Angstrom), charge = 0, multiplicity = 1:

    H           -2.610793700063    -0.821631439056     1.231407372533
    C           -2.071569377123    -0.538192928390     0.348725364283
    O           -0.794796372215    -0.257163501955     0.708237335695
    F           -2.094663640153    -1.530845357683    -0.539718673989
    F           -2.651450289514     0.504074339008    -0.231881345006
    C            0.096755266228     0.144008484961    -0.267977108187
    C            1.458686438930    -0.391973188094     0.158472438631
    CL           0.155499948966     1.907183384323    -0.435567915921
    H           -0.135813922463    -0.280149936808    -1.229815081105
    F            2.375659383807    -0.070919835780    -0.728984880227
    F            1.398380952732    -1.706915895372     0.224516479943
    F            1.826707379633     0.065723302379     1.330328846851

  Mulliken Charges: (a.u.)
   Center  Symbol    Alpha    Beta     Spin     Total
       1     H     0.40196  0.40196  0.00000  0.19608
       2     C     2.56126  2.56126  0.00000  0.87748
       3     O     4.30188  4.30188  0.00000 -0.60377
       4     F     4.68728  4.68728  0.00000 -0.37456
       5     F     4.68220  4.68220  0.00000 -0.36440
       6     C     3.04514  3.04514  0.00000 -0.09027
       7     C     2.43278  2.43278  0.00000  1.13444
       8    CL     8.50038  8.50038  0.00000 -0.00076
       9     H     0.36798  0.36798  0.00000  0.26405
      10     F     4.67430  4.67430  0.00000 -0.34860
      11     F     4.67614  4.67614  0.00000 -0.35227
      12     F     4.66871  4.66871  0.00000 -0.33741

   Total alpha = 45.00000, Total beta = 45.00000, Total charge = -0.00000
