                              Psi4 1.0.54 Driver

  ==> Input File <==

--------------------------------------------------------------------------
set {
	reference rhf
	basis cc-pvtz
}

set_num_threads( 4 )
memory 2 gb

molecule MOL {
0 1

H	 -2.698799	 -0.000846	 0.036018
C	 -1.694291	 -0.000483	 0.434279
O	 -0.828718	 -0.000608	 -0.655022
H	 -1.576855	 0.881100	 1.056504
H	 -1.576401	 -0.881658	 1.057001
C	 -0.888919	 1.065832	 -1.569877
C	 -2.223610	 1.133392	 -2.303570
C	 -0.506525	 2.400340	 -0.939709
H	 -0.125922	 0.812801	 -2.295432
H	 -2.482381	 0.161557	 -2.705605
H	 -2.155244	 1.834999	 -3.126868
H	 -3.029472	 1.464420	 -1.658906
H	 0.425528	 2.307159	 -0.395982
H	 -0.375841	 3.148056	 -1.713412
H	 -1.266768	 2.764918	 -0.258787

	symmetry c1
}
set optking {
	frozen_dihedral = ("
		6 3 2 1
	")
}

ee,wfn = optimize('scf', return_wfn=True)
oeprop( wfn, 'DIPOLE', 'QUADRUPOLE', 'MULLIKEN_CHARGES')
f=open( 'psi4out.xyz', 'w' )
f.write( "15  " )
f.write( str(ee) + "\n" )
f.write( MOL.save_string_xyz() )
f.close()
--------------------------------------------------------------------------

    Molecular point group: c1
  Charge       = 0
  Multiplicity = 1
  Basis Set: CC-PVTZ
  Basis Set:
  @DF-RHF Final Energy:  -232.22383703167796
    Total Energy =                       -232.2238370316778742
    Molecular point group: c1
  Basis Set: CC-PVTZ
  Basis Set:
  Basis Set: CC-PVTZ
  Basis Set:
  @DF-RHF Final Energy:  -232.22565408194779
    Total Energy =                       -232.2256540819478232
  Basis Set: CC-PVTZ
  Basis Set:
  Basis Set: CC-PVTZ
  Basis Set:
  @DF-RHF Final Energy:  -232.22617006674460
    Total Energy =                       -232.2261700667444870
  Basis Set: CC-PVTZ
  Basis Set:
  Basis Set: CC-PVTZ
  Basis Set:
  @DF-RHF Final Energy:  -232.22617222034233
    Total Energy =                       -232.2261722203423346
  Basis Set: CC-PVTZ
  Basis Set:
  Basis Set: CC-PVTZ
  Basis Set:
  @DF-RHF Final Energy:  -232.22617789296970
    Total Energy =                       -232.2261778929698153
  Basis Set: CC-PVTZ
  Basis Set:
  Charge       = 0
  Multiplicity = 1
  Basis Set: CC-PVTZ
  Basis Set:

    Orbital Energies (a.u.)
    -----------------------

    Doubly Occupied:

       1A    -20.541894     2A    -11.272633     3A    -11.258502
       4A    -11.208781     5A    -11.208577     6A     -1.373608
       7A     -1.051638     8A     -0.940193     9A     -0.931673
      10A     -0.781491    11A     -0.675604    12A     -0.642365
      13A     -0.635233    14A     -0.574063    15A     -0.565759
      16A     -0.552826    17A     -0.533748    18A     -0.497846
      19A     -0.497435    20A     -0.444814    21A     -0.409647

  @DF-RHF Final Energy:  -232.22617802747502

   => Energetics <=

    Nuclear Repulsion Energy =            199.0271219794323372
    One-Electron Energy =                -709.3099403425503624
    Two-Electron Energy =                 278.0566403356428964
    DFT Exchange-Correlation Energy =       0.0000000000000000
    Empirical Dispersion Energy =           0.0000000000000000
    PCM Polarization Energy =               0.0000000000000000
    EFP Energy =                            0.0000000000000000
    Total Energy =                       -232.2261780274751573
    Molecular point group: c1
  Basis Set: CC-PVTZ
  Basis Set:

  -Total Gradient:
     Atom            X                  Y                   Z
    ------   -----------------  -----------------  -----------------
       1        0.000014035697     0.000075466130    -0.000010241029
       2        0.000010703599    -0.000130204977     0.000016378516
       3        0.000032884489     0.000102466580     0.000058279613
       4       -0.000009610746    -0.000007728705    -0.000006650973
       5       -0.000009404242     0.000002431194     0.000004842499
       6       -0.000034665027    -0.000031858742    -0.000084488691
       7        0.000009747965     0.000004191293     0.000015275370
       8       -0.000006437664    -0.000009002206     0.000012120384
       9       -0.000003448186     0.000006127672    -0.000011804762
      10       -0.000007315115    -0.000002787883     0.000006558636
      11        0.000007064415    -0.000005625776     0.000001148499
      12        0.000003855716     0.000004908349    -0.000008900706
      13       -0.000007188898    -0.000005844511     0.000006174779
      14        0.000001037488    -0.000006584913     0.000003490156
      15       -0.000001259489     0.000004046496    -0.000002182289

  **** Optimization is complete! (in 6 steps) ****
    Final optimized geometry and variables:
    Molecular point group: c1

    Geometry (in Angstrom), charge = 0, multiplicity = 1:

    H           -1.462720382821    -0.903223468445     1.171717075642
    C           -0.409987780955    -0.910974645708     1.436043118553
    O            0.418598715975    -0.916019886236     0.318474409966
    H           -0.212692927692    -0.069857510050     2.093233144022
    H           -0.205788700759    -1.820918065509     1.981954172322
    C            0.336116587810     0.151794317475    -0.592932297409
    C           -1.014337038758     0.216574587230    -1.297657873246
    C            0.728121668534     1.486758147219     0.030369856040
    H            1.083722980846    -0.097996363864    -1.335429804957
    H           -1.279253426939    -0.755836481980    -1.694292842410
    H           -0.965451302550     0.918667274331    -2.122014716136
    H           -1.807015221694     0.545437339781    -0.635793034703
    H            1.671850643685     1.395963813415     0.554125154056
    H            0.840059645361     2.235689694931    -0.745096627189
    H           -0.018687678219     1.848113149095     0.727782687042

  Mulliken Charges: (a.u.)
   Center  Symbol    Alpha    Beta     Spin     Total
       1     H     0.47060  0.47060  0.00000  0.05880
       2     C     3.03887  3.03887  0.00000 -0.07775
       3     O     4.18302  4.18302  0.00000 -0.36604
       4     H     0.47018  0.47018  0.00000  0.05963
       5     H     0.44078  0.44078  0.00000  0.11844
       6     C     2.93322  2.93322  0.00000  0.13357
       7     C     3.15816  3.15816  0.00000 -0.31632
       8     C     3.15914  3.15914  0.00000 -0.31828
       9     H     0.44701  0.44701  0.00000  0.10598
      10     H     0.44391  0.44391  0.00000  0.11218
      11     H     0.44985  0.44985  0.00000  0.10031
      12     H     0.45606  0.45606  0.00000  0.08788
      13     H     0.44382  0.44382  0.00000  0.11235
      14     H     0.44947  0.44947  0.00000  0.10106
      15     H     0.45591  0.45591  0.00000  0.08819

   Total alpha = 21.00000, Total beta = 21.00000, Total charge = -0.00000

*** Psi4 exiting successfully. Buy a developer a beer!
