  ==> Input File <==

--------------------------------------------------------------------------
set {
	reference rhf
	basis 6-31G*
}

set_num_threads( 4 )
memory 2 gb

molecule MOL {
0 1

O	 -0.682937	 1.318834	 -0.186099
C	 -0.860635	 0.152188	 -0.042321
C	 -2.173363	 -0.477127	 0.338347
O	 0.083258	 -0.765189	 -0.202595
H	 -2.477673	 -1.180929	 -0.427595
H	 -2.923125	 0.290956	 0.455536
H	 -2.058825	 -1.029004	 1.264191
C	 1.391937	 -0.334737	 -0.569838
C	 1.348752	 0.670632	 -1.705627
H	 1.988606	 -1.195683	 -0.830413
H	 1.792033	 0.112842	 0.328547
H	 2.350353	 1.035765	 -1.911060
H	 0.960692	 0.216265	 -2.608582
H	 0.724778	 1.517654	 -1.441760

	symmetry c1
}
set optking {
	frozen_dihedral = ("
		10 8 4 2
	")
}

ee = optimize('scf')
oeprop('DIPOLE', 'QUADRUPOLE', 'MULLIKEN_CHARGES')
f=open( 'psi4out.xyz', 'w' )
f.write( "14  " )
f.write( str(ee) + "\n" )
f.write( MOL.save_string_xyz() )
f.close()
--------------------------------------------------------------------------

    Molecular point group: c1
  Charge       = 0
  Multiplicity = 1
  Basis Set: 6-31G*
  Basis Set:
  @DF-RHF Final Energy:  -305.86004705576181
    Total Energy =                       -305.8600470557619246
    Molecular point group: c1
  Basis Set: 6-31G*
  Basis Set:
  Basis Set: 6-31G*
  Basis Set:
  @DF-RHF Final Energy:  -305.86991688229807
    Total Energy =                       -305.8699168822979573
  Basis Set: 6-31G*
  Basis Set:
  Basis Set: 6-31G*
  Basis Set:
  @DF-RHF Final Energy:  -305.87124502497738
    Total Energy =                       -305.8712450249773838
  Basis Set: 6-31G*
  Basis Set:
  Basis Set: 6-31G*
  Basis Set:
  @DF-RHF Final Energy:  -305.87120590621169
    Total Energy =                       -305.8712059062116850
  Basis Set: 6-31G*
  Basis Set:
  Basis Set: 6-31G*
  Basis Set:
  @DF-RHF Final Energy:  -305.87133572035930
    Total Energy =                       -305.8713357203592977
  Basis Set: 6-31G*
  Basis Set:
  Basis Set: 6-31G*
  Basis Set:
  @DF-RHF Final Energy:  -305.87141970266708
    Total Energy =                       -305.8714197026670831
  Basis Set: 6-31G*
  Basis Set:
  Basis Set: 6-31G*
  Basis Set:
  @DF-RHF Final Energy:  -305.87142318184510
    Total Energy =                       -305.8714231818452163
  Basis Set: 6-31G*
  Basis Set:
  Charge       = 0
  Multiplicity = 1
  Basis Set: 6-31G*
  Basis Set:

    Orbital Energies (a.u.)
    -----------------------

    Doubly Occupied:

       1A    -20.600912     2A    -20.543758     3A    -11.375627
       4A    -11.288949     5A    -11.232480     6A    -11.215912
       7A     -1.465579     8A     -1.362752     9A     -1.054540
      10A     -0.997823    11A     -0.888000    12A     -0.755137
      13A     -0.697959    14A     -0.680731    15A     -0.661976
      16A     -0.614508    17A     -0.587002    18A     -0.570124
      19A     -0.551820    20A     -0.530913    21A     -0.512047
      22A     -0.496365    23A     -0.451055    24A     -0.433937

  @DF-RHF Final Energy:  -305.87142387777862

   => Energetics <=

    Nuclear Repulsion Energy =            249.6945214237009907
    One-Electron Energy =                -911.9920772955561006
    Two-Electron Energy =                 356.4261319940766271
    DFT Exchange-Correlation Energy =       0.0000000000000000
    Empirical Dispersion Energy =           0.0000000000000000
    PCM Polarization Energy =               0.0000000000000000
    EFP Energy =                            0.0000000000000000
    Total Energy =                       -305.8714238777785113
    Molecular point group: c1
  Basis Set: 6-31G*
  Basis Set:

  -Total Gradient:
     Atom            X                  Y                   Z
    ------   -----------------  -----------------  -----------------
       1        0.000023522240    -0.000005111275     0.000032179779
       2       -0.001538609588    -0.000541545937    -0.005583737434
       3       -0.000034300795    -0.000002098085    -0.000097499558
       4        0.001947824659     0.000868134673     0.007108476252
       5        0.000003822396    -0.000019643934     0.000038023373
       6       -0.000000670271    -0.000004950886     0.000013854188
       7        0.000004511616     0.000015817777     0.000036898030
       8        0.001689442685    -0.000788186524     0.004359129335
       9       -0.000088838652     0.000031032240     0.000019734176
      10       -0.002063769686     0.000407829093    -0.005887452582
      11        0.000036544096     0.000025530891    -0.000034642552
      12        0.000008046551    -0.000007966492     0.000000658191
      13        0.000014986554    -0.000005068287     0.000005377153
      14       -0.000002511806     0.000026226740    -0.000010998354

  **** Optimization is complete! (in 8 steps) ****
    Final optimized geometry and variables:
    Molecular point group: c1

    Geometry (in Angstrom), charge = 0, multiplicity = 1:

    O           -0.605515434694     1.235602118834     0.414933212474
    C           -0.736749749039     0.054422628508     0.403840404258
    C           -2.038831414907    -0.663783109008     0.639074347200
    O            0.251911431012    -0.806192106700     0.210960466068
    H           -2.283600776195    -1.271583556035    -0.224325134522
    H           -2.822491961202     0.056785453602     0.819526868996
    H           -1.941148333373    -1.327671329137     1.490224462187
    C            1.545606366554    -0.358621023733    -0.193366571859
    C            1.553745651629     0.522519023140    -1.434928472002
    H            2.057299516941    -1.277824471198    -0.437925438836
    H            2.030385841576     0.125485444668     0.643375268959
    H            2.581285087594     0.632915244115    -1.769178658251
    H            0.993579601065     0.049114792881    -2.235271629102
    H            1.141559071959     1.501775360760    -1.249789761297

  Mulliken Charges: (a.u.)
   Center  Symbol    Alpha    Beta     Spin     Total
       1     O     4.28405  4.28405  0.00000 -0.56809
       2     C     2.61749  2.61749  0.00000  0.76501
       3     C     3.28140  3.28140  0.00000 -0.56280
       4     O     4.31127  4.31127  0.00000 -0.62253
       5     H     0.40154  0.40154  0.00000  0.19691
       6     H     0.39742  0.39742  0.00000  0.20515
       7     H     0.39997  0.39997  0.00000  0.20006
       8     C     2.99664  2.99664  0.00000  0.00672
       9     C     3.26472  3.26472  0.00000 -0.52944
      10     H     0.40967  0.40967  0.00000  0.18066
      11     H     0.41042  0.41042  0.00000  0.17915
      12     H     0.41820  0.41820  0.00000  0.16359
      13     H     0.41661  0.41661  0.00000  0.16679
      14     H     0.39059  0.39059  0.00000  0.21882

   Total alpha = 24.00000, Total beta = 24.00000, Total charge =  0.00000
