  ==> Input File <==

--------------------------------------------------------------------------
set {
	reference rhf
	basis 6-31G*
}

set_num_threads( 1 )
memory 2 gb

molecule MOL {
0 1

O	 0.749854	 1.307668	 -0.000040
C	 0.576249	 0.131685	 -0.000108
C	 -0.766779	 -0.556801	 -0.000461
O	 1.568443	 -0.749345	 -0.000005
C	 -1.945214	 0.412366	 0.000161
H	 -0.796911	 -1.211249	 -0.867467
H	 -0.796854	 -1.212390	 0.865687
C	 -1.526518	 1.824261	 0.407365
H	 -2.711008	 0.044389	 0.674515
H	 -2.394757	 0.429895	 -0.986844
H	 -1.101192	 1.838130	 1.407044
H	 -2.377830	 2.497046	 0.402030
H	 -0.782311	 2.228331	 -0.273339
C	 2.886820	 -0.232538	 0.000322
H	 3.059106	 0.369571	 -0.880203
H	 3.540187	 -1.091012	 0.000050
H	 3.059019	 0.368956	 0.881266

	symmetry c1
}
set optking {
	frozen_dihedral = ("
		1 2 3 6,
		14 4 2 1
	")
}

ee = energy('scf')
oeprop('DIPOLE', 'QUADRUPOLE', 'MULLIKEN_CHARGES')
f=open( 'psi4out.xyz', 'w' )
f.write( "17  " )
f.write( str(ee) + "\n" )
f.write( MOL.save_string_xyz() )
f.close()
--------------------------------------------------------------------------

    Molecular point group: c1

    Geometry (in Angstrom), charge = 0, multiplicity = 1:

       Center              X                  Y                   Z               Mass
    ------------   -----------------  -----------------  -----------------  -----------------
           O          0.490586703226     0.992456627994    -0.059989547666    15.994914619560
           C          0.316981703226    -0.183526372006    -0.060057547666    12.000000000000
           C         -1.026046296774    -0.872012372006    -0.060410547666    12.000000000000
           O          1.309175703226    -1.064556372006    -0.059954547666    15.994914619560
           C         -2.204481296774     0.097154627994    -0.059788547666    12.000000000000
           H         -1.056178296774    -1.526460372006    -0.927416547666     1.007825032070
           H         -1.056121296774    -1.527601372006     0.805737452334     1.007825032070
           C         -1.785785296774     1.509049627994     0.347415452334    12.000000000000
           H         -2.970275296774    -0.270822372006     0.614565452334     1.007825032070
           H         -2.654024296774     0.114683627994    -1.046793547666     1.007825032070
           H         -1.360459296774     1.522918627994     1.347094452334     1.007825032070
           H         -2.637097296774     2.181834627994     0.342080452334     1.007825032070
           H         -1.041578296774     1.913119627994    -0.333288547666     1.007825032070
           C          2.627552703226    -0.547749372006    -0.059627547666    12.000000000000
           H          2.799838703226     0.054359627994    -0.940152547666     1.007825032070
           H          3.280919703226    -1.406223372006    -0.059899547666     1.007825032070
           H          2.799751703226     0.053744627994     0.821316452334     1.007825032070

  Charge       = 0
  Multiplicity = 1
  Basis Set: 6-31G*
  Basis Set:

    Orbital Energies (a.u.)
    -----------------------

    Doubly Occupied:

       1A    -20.606107     2A    -20.542716     3A    -11.376564
       4A    -11.282723     5A    -11.235937     6A    -11.218309
       7A    -11.182448     8A     -1.473406     9A     -1.369716
      10A     -1.077358    11A     -0.998207    12A     -0.931156
      13A     -0.824890    14A     -0.774772    15A     -0.698250
      16A     -0.686235    17A     -0.670664    18A     -0.631999
      19A     -0.614334    20A     -0.557805    21A     -0.550797
      22A     -0.532814    23A     -0.521472    24A     -0.512104
      25A     -0.475690    26A     -0.468082    27A     -0.452638
      28A     -0.405786

  @DF-RHF Final Energy:  -344.87163133425491

   => Energetics <=

    Nuclear Repulsion Energy =            325.0367552804394222
    One-Electron Energy =               -1114.4708735131130197
    Two-Electron Energy =                 444.5624868984188538
    DFT Exchange-Correlation Energy =       0.0000000000000000
    Empirical Dispersion Energy =           0.0000000000000000
    PCM Polarization Energy =               0.0000000000000000
    EFP Energy =                            0.0000000000000000
    Total Energy =                       -344.8716313342548005

  Mulliken Charges: (a.u.)
   Center  Symbol    Alpha    Beta     Spin     Total
       1     O     4.28621  4.28621  0.00000 -0.57242
       2     C     2.60600  2.60600  0.00000  0.78799
       3     C     3.21072  3.21072  0.00000 -0.42144
       4     O     4.30633  4.30633  0.00000 -0.61266
       5     C     3.15663  3.15663  0.00000 -0.31326
       6     H     0.39687  0.39687  0.00000  0.20626
       7     H     0.39753  0.39753  0.00000  0.20493
       8     C     3.24304  3.24304  0.00000 -0.48608
       9     H     0.41743  0.41743  0.00000  0.16514
      10     H     0.41775  0.41775  0.00000  0.16450
      11     H     0.42566  0.42566  0.00000  0.14869
      12     H     0.43062  0.43062  0.00000  0.13875
      13     H     0.38656  0.38656  0.00000  0.22688
      14     C     3.09257  3.09257  0.00000 -0.18513
      15     H     0.40916  0.40916  0.00000  0.18168
      16     H     0.40798  0.40798  0.00000  0.18405
      17     H     0.40895  0.40895  0.00000  0.18211

   Total alpha = 28.00000, Total beta = 28.00000, Total charge = -0.00000
