  ==> Input File <==

--------------------------------------------------------------------------
set {
	reference rhf
	basis 6-31G*
}

set_num_threads( 1 )
memory 2 gb

molecule MOL {
0 1

H	 -4.026422	 1.139306	 -0.734077
O	 -3.310115	 0.568053	 -0.971727
C	 -2.199155	 0.839386	 -0.156412
C	 -1.072346	 -0.093193	 -0.564268
H	 -1.884801	 1.876029	 -0.269811
H	 -2.447747	 0.687026	 0.893030
C	 0.198102	 0.111031	 0.262842
H	 -0.862247	 0.065112	 -1.618558
H	 -1.423283	 -1.116768	 -0.466225
C	 1.331804	 -0.827780	 -0.158768
H	 0.520988	 1.145314	 0.172415
H	 -0.024478	 -0.049999	 1.316904
C	 2.723619	 -0.410569	 0.329459
H	 1.342964	 -0.912588	 -1.244120
H	 1.116806	 -1.824343	 0.220779
C	 3.243875	 0.895854	 -0.272975
H	 3.424222	 -1.207124	 0.091250
H	 2.714788	 -0.329854	 1.414619
H	 3.251977	 0.848779	 -1.358681
H	 2.637085	 1.747371	 0.016682
H	 4.259473	 1.094070	 0.055697

	symmetry c1
}
set optking {
	frozen_dihedral = ("
		2 3 4 8,
		8 4 7 10,
		16 13 10 14,
		1 2 3 5
	")
}

ee = energy('scf')
oeprop('DIPOLE', 'QUADRUPOLE', 'MULLIKEN_CHARGES')
f=open( 'psi4out.xyz', 'w' )
f.write( "21  " )
f.write( str(ee) + "\n" )
f.write( MOL.save_string_xyz() )
f.close()
--------------------------------------------------------------------------

    Molecular point group: c1

    Geometry (in Angstrom), charge = 0, multiplicity = 1:

       Center              X                  Y                   Z               Mass
    ------------   -----------------  -----------------  -----------------  -----------------
           H         -4.089420187040     0.958610830954    -0.501118853339     1.007825032070
           O         -3.373113187040     0.387357830954    -0.738768853339    15.994914619560
           C         -2.262153187040     0.658690830954     0.076546146661    12.000000000000
           C         -1.135344187040    -0.273888169046    -0.331309853339    12.000000000000
           H         -1.947799187040     1.695333830954    -0.036852853339     1.007825032070
           H         -2.510745187040     0.506330830954     1.125988146661     1.007825032070
           C          0.135103812960    -0.069664169046     0.495800146661    12.000000000000
           H         -0.925245187040    -0.115583169046    -1.385599853339     1.007825032070
           H         -1.486281187040    -1.297463169046    -0.233266853339     1.007825032070
           C          1.268805812960    -1.008475169046     0.074190146661    12.000000000000
           H          0.457989812960     0.964618830954     0.405373146661     1.007825032070
           H         -0.087476187040    -0.230694169046     1.549862146661     1.007825032070
           C          2.660620812960    -0.591264169046     0.562417146661    12.000000000000
           H          1.279965812960    -1.093283169046    -1.011161853339     1.007825032070
           H          1.053807812960    -2.005038169046     0.453737146661     1.007825032070
           C          3.180876812960     0.715158830954    -0.040016853339    12.000000000000
           H          3.361223812960    -1.387819169046     0.324208146661     1.007825032070
           H          2.651789812960    -0.510549169046     1.647577146661     1.007825032070
           H          3.188978812960     0.668083830954    -1.125722853339     1.007825032070
           H          2.574086812960     1.566675830954     0.249640146661     1.007825032070
           H          4.196474812960     0.913374830954     0.288655146661     1.007825032070

  Charge       = 0
  Multiplicity = 1
  Basis Set: 6-31G*
  Basis Set:

    Orbital Energies (a.u.)
    -----------------------

    Doubly Occupied:

       1A    -20.551718     2A    -11.266850     3A    -11.215271
       4A    -11.215137     5A    -11.213290     6A    -11.210577
       7A    -11.208241     8A     -1.358541     9A     -1.086296
      10A     -1.033003    11A     -0.954429    12A     -0.875859
      13A     -0.806888    14A     -0.779023    15A     -0.692398
      16A     -0.661467    17A     -0.619638    18A     -0.611649
      19A     -0.586324    20A     -0.565991    21A     -0.539757
      22A     -0.521351    23A     -0.506704    24A     -0.487404
      25A     -0.480570    26A     -0.460392    27A     -0.454675
      28A     -0.442848    29A     -0.433903

  @DF-RHF Final Energy:  -310.21136582849562

   => Energetics <=

    Nuclear Repulsion Energy =            313.1879652679930928
    One-Electron Energy =               -1041.1184897475761773
    Two-Electron Energy =                 417.7191586510875823
    DFT Exchange-Correlation Energy =       0.0000000000000000
    Empirical Dispersion Energy =           0.0000000000000000
    PCM Polarization Energy =               0.0000000000000000
    EFP Energy =                            0.0000000000000000
    Total Energy =                       -310.2113658284954454

  Mulliken Charges: (a.u.)
   Center  Symbol    Alpha    Beta     Spin     Total
       1     H     0.28120  0.28120  0.00000  0.43760
       2     O     4.37180  4.37180  0.00000 -0.74359
       3     C     2.98985  2.98985  0.00000  0.02030
       4     C     3.15936  3.15936  0.00000 -0.31872
       5     H     0.43294  0.43294  0.00000  0.13412
       6     H     0.43294  0.43294  0.00000  0.13412
       7     C     3.16239  3.16239  0.00000 -0.32478
       8     H     0.41467  0.41467  0.00000  0.17067
       9     H     0.41485  0.41485  0.00000  0.17030
      10     C     3.15235  3.15235  0.00000 -0.30470
      11     H     0.42172  0.42172  0.00000  0.15657
      12     H     0.42294  0.42294  0.00000  0.15411
      13     C     3.15290  3.15290  0.00000 -0.30581
      14     H     0.42263  0.42263  0.00000  0.15474
      15     H     0.42051  0.42051  0.00000  0.15898
      16     C     3.24107  3.24107  0.00000 -0.48213
      17     H     0.42058  0.42058  0.00000  0.15884
      18     H     0.42374  0.42374  0.00000  0.15252
      19     H     0.42167  0.42167  0.00000  0.15666
      20     H     0.42090  0.42090  0.00000  0.15820
      21     H     0.41900  0.41900  0.00000  0.16200

   Total alpha = 29.00000, Total beta = 29.00000, Total charge = -0.00000
