  ==> Input File <==

--------------------------------------------------------------------------
set {
	reference rhf
	basis cc-pvtz
}

set_num_threads( 4 )
memory 2 gb

molecule MOL {
0 1

H	 -2.698799	 -0.000846	 0.036018
C	 -1.694291	 -0.000483	 0.434279
O	 -0.828718	 -0.000608	 -0.655022
H	 -1.576855	 0.881100	 1.056504
H	 -1.576401	 -0.881658	 1.057001
C	 0.557892	 0.000078	 -0.420099
C	 1.325431	 0.825194	 -1.446909
C	 0.909017	 0.386358	 1.012293
H	 0.832877	 -1.038077	 -0.558792
H	 1.024717	 0.552011	 -2.450901
H	 2.388520	 0.638872	 -1.347550
H	 1.167367	 1.889650	 -1.318333
H	 0.319590	 -0.191203	 1.713751
H	 1.957004	 0.184193	 1.201041
H	 0.739800	 1.439131	 1.206142

	symmetry c1
}
set optking {
	frozen_dihedral = ("
		9 6 3 2
	")
}

ee = optimize('scf')
oeprop('DIPOLE', 'QUADRUPOLE', 'MULLIKEN_CHARGES')
f=open( 'psi4out.xyz', 'w' )
f.write( "15  " )
f.write( str(ee) + "\n" )
f.write( MOL.save_string_xyz() )
f.close()
--------------------------------------------------------------------------

    Molecular point group: c1
  Charge       = 0
  Multiplicity = 1
  Basis Set: CC-PVTZ
  Basis Set:
  @DF-RHF Final Energy:  -232.21884874963237
    Total Energy =                       -232.2188487496324001
    Molecular point group: c1
  Basis Set: CC-PVTZ
  Basis Set:
  Basis Set: CC-PVTZ
  Basis Set:
  @DF-RHF Final Energy:  -232.22109326641396
    Total Energy =                       -232.2210932664138454
  Basis Set: CC-PVTZ
  Basis Set:
  Basis Set: CC-PVTZ
  Basis Set:
  @DF-RHF Final Energy:  -232.22359491384475
    Total Energy =                       -232.2235949138448063
  Basis Set: CC-PVTZ
  Basis Set:
  Basis Set: CC-PVTZ
  Basis Set:
  @DF-RHF Final Energy:  -232.22375180374254
    Total Energy =                       -232.2237518037425161
  Basis Set: CC-PVTZ
  Basis Set:
  Basis Set: CC-PVTZ
  Basis Set:
  @DF-RHF Final Energy:  -232.22379046507862
    Total Energy =                       -232.2237904650785936
  Basis Set: CC-PVTZ
  Basis Set:
  Basis Set: CC-PVTZ
  Basis Set:
  @DF-RHF Final Energy:  -232.22380317636936
    Total Energy =                       -232.2238031763693016
  Basis Set: CC-PVTZ
  Basis Set:
  Charge       = 0
  Multiplicity = 1
  Basis Set: CC-PVTZ
  Basis Set:

    Orbital Energies (a.u.)
    -----------------------

    Doubly Occupied:

       1A    -20.540579     2A    -11.273246     3A    -11.259861
       4A    -11.213195     5A    -11.203096     6A     -1.371962
       7A     -1.054417     8A     -0.950327     9A     -0.914201
      10A     -0.784547    11A     -0.677939    12A     -0.643241
      13A     -0.632039    14A     -0.591326    15A     -0.551940
      16A     -0.542397    17A     -0.527766    18A     -0.504945
      19A     -0.494808    20A     -0.450570    21A     -0.403602

  @DF-RHF Final Energy:  -232.22380347979970

   => Energetics <=

    Nuclear Repulsion Energy =            198.1096290626007885
    One-Electron Energy =                -707.4948556992503654
    Two-Electron Energy =                 277.1614231568497644
    DFT Exchange-Correlation Energy =       0.0000000000000000
    Empirical Dispersion Energy =           0.0000000000000000
    PCM Polarization Energy =               0.0000000000000000
    EFP Energy =                            0.0000000000000000
    Total Energy =                       -232.2238034797998125
    Molecular point group: c1
  Basis Set: CC-PVTZ
  Basis Set:

  -Total Gradient:
     Atom            X                  Y                   Z
    ------   -----------------  -----------------  -----------------
       1        0.000000762342    -0.000000817700    -0.000009298621
       2        0.000199893791     0.003966252940     0.000192250752
       3       -0.000033218092    -0.005744965532    -0.001302795317
       4        0.000006140149     0.000004161019    -0.000001900747
       5        0.000000768791    -0.000000428188    -0.000004612107
       6       -0.001089262915     0.000813438013     0.005494539029
       7       -0.000033120245    -0.000019008899    -0.000024106186
       8       -0.000000289891     0.000005734275     0.000042099875
       9        0.000958574033     0.000981832703    -0.004386475814
      10        0.000002889952     0.000017994710    -0.000026029948
      11       -0.000007538499    -0.000012034462     0.000000955648
      12       -0.000003178030    -0.000015550606     0.000013388727
      13        0.000005573538     0.000005352500     0.000016762297
      14       -0.000011330635    -0.000005273626    -0.000009451602
      15        0.000003335710     0.000003312854     0.000004674016

  **** Optimization is complete! (in 7 steps) ****
    Final optimized geometry and variables:
    Molecular point group: c1

    Geometry (in Angstrom), charge = 0, multiplicity = 1:

    H           -2.750545279664    -0.160704240973     0.102722367292
    C           -1.777402454813    -0.210743226850     0.570229281318
    O           -0.841106652468    -0.204570304461    -0.456341614093
    H           -1.674562191668     0.640797948023     1.233714829359
    H           -1.734150730212    -1.120523376972     1.164614740897
    C            0.537369268827    -0.289411231739    -0.173121997772
    C            1.240138577593     0.554037435128    -1.226249996929
    C            0.943744890352     0.131226166201     1.232386871176
    H            0.840671016390    -1.322166692148    -0.337609484871
    H            0.922108647884     0.251846506256    -2.215573580180
    H            2.316061128876     0.437074990079    -1.159472572883
    H            0.996670094707     1.602742904311    -1.098213361770
    H            0.486170691493    -0.482009506575     1.997450216430
    H            2.017571500135     0.027756229096     1.329473829929
    H            0.690714462447     1.167801573321     1.424006485850

  Mulliken Charges: (a.u.)
   Center  Symbol    Alpha    Beta     Spin     Total
       1     H     0.44280  0.44280  0.00000  0.11440
       2     C     3.03821  3.03821  0.00000 -0.07643
       3     O     4.18563  4.18563  0.00000 -0.37127
       4     H     0.46929  0.46929  0.00000  0.06142
       5     H     0.47088  0.47088  0.00000  0.05823
       6     C     2.92067  2.92067  0.00000  0.15866
       7     C     3.13917  3.13917  0.00000 -0.27835
       8     C     3.17044  3.17044  0.00000 -0.34089
       9     H     0.46029  0.46029  0.00000  0.07942
      10     H     0.44592  0.44592  0.00000  0.10815
      11     H     0.46016  0.46016  0.00000  0.07968
      12     H     0.45709  0.45709  0.00000  0.08581
      13     H     0.44502  0.44502  0.00000  0.10995
      14     H     0.44401  0.44401  0.00000  0.11199
      15     H     0.45039  0.45039  0.00000  0.09921

   Total alpha = 21.00000, Total beta = 21.00000, Total charge = -0.00000
