  ==> Input File <==

--------------------------------------------------------------------------
set {
	reference rhf
	basis cc-pvtz
}

set_num_threads( 4 )
memory 2 gb

molecule MOL {
0 1

H	 2.190573	 -0.629143	 -0.208718
O	 1.355408	 -0.529451	 0.208662
C	 0.700177	 0.619554	 -0.266242
C	 -0.713111	 0.588314	 0.266177
H	 0.678680	 0.627133	 -1.351786
H	 1.199747	 1.521489	 0.077736
O	 -1.421673	 -0.521378	 -0.196983
H	 -1.244794	 1.469161	 -0.069059
H	 -0.685100	 0.604721	 1.352683
H	 -0.914965	 -0.940114	 -0.870727

	symmetry c1
}
set optking {
	frozen_dihedral = ("
		10 7 4 3
	")
}

ee = optimize('scf')
oeprop('DIPOLE', 'QUADRUPOLE', 'MULLIKEN_CHARGES')
f=open( 'psi4out.xyz', 'w' )
f.write( "10  " )
f.write( str(ee) + "\n" )
f.write( MOL.save_string_xyz() )
f.close()
--------------------------------------------------------------------------

    Molecular point group: c1
  Charge       = 0
  Multiplicity = 1
  Basis Set: CC-PVTZ
  Basis Set:
  @DF-RHF Final Energy:  -229.02223944816475
    Total Energy =                       -229.0222394481647825
    Molecular point group: c1
  Basis Set: CC-PVTZ
  Basis Set:
  Basis Set: CC-PVTZ
  Basis Set:
  @DF-RHF Final Energy:  -229.02322645674340
    Total Energy =                       -229.0232264567434584
  Basis Set: CC-PVTZ
  Basis Set:
  Basis Set: CC-PVTZ
  Basis Set:
  @DF-RHF Final Energy:  -229.02345857787881
    Total Energy =                       -229.0234585778789551
  Basis Set: CC-PVTZ
  Basis Set:
  Basis Set: CC-PVTZ
  Basis Set:
  @DF-RHF Final Energy:  -229.02346638583563
    Total Energy =                       -229.0234663858355475
  Basis Set: CC-PVTZ
  Basis Set:
  Charge       = 0
  Multiplicity = 1
  Basis Set: CC-PVTZ
  Basis Set:

    Orbital Energies (a.u.)
    -----------------------

    Doubly Occupied:

       1A    -20.560391     2A    -20.541929     3A    -11.280135
       4A    -11.267755     5A     -1.385377     6A     -1.355874
       7A     -1.006339     8A     -0.850692     9A     -0.725245
      10A     -0.674236    11A     -0.665242    12A     -0.602392
      13A     -0.576401    14A     -0.553973    15A     -0.473976
      16A     -0.457266    17A     -0.439959

  @DF-RHF Final Energy:  -229.02346690217382

   => Energetics <=

    Nuclear Repulsion Energy =            134.1464570747219227
    One-Electron Energy =                -579.5054814101767988
    Two-Electron Energy =                 216.3355574332811671
    DFT Exchange-Correlation Energy =       0.0000000000000000
    Empirical Dispersion Energy =           0.0000000000000000
    PCM Polarization Energy =               0.0000000000000000
    EFP Energy =                            0.0000000000000000
    Total Energy =                       -229.0234669021737091
    Molecular point group: c1
  Basis Set: CC-PVTZ
  Basis Set:

  -Total Gradient:
     Atom            X                  Y                   Z
    ------   -----------------  -----------------  -----------------
       1       -0.000001315717     0.000010288692    -0.000005025257
       2       -0.000033771915     0.000060969945    -0.000002871807
       3        0.000309827405    -0.000598820962     0.000874856663
       4       -0.000661167383     0.000990590712    -0.001599588492
       5        0.000014394703    -0.000007751423     0.000007178565
       6        0.000038359096     0.000005768928     0.000021792827
       7        0.001073530989    -0.001454968440     0.001975229595
       8        0.000024454016     0.000012908869    -0.000004416987
       9       -0.000009254878     0.000004099237     0.000005610252
      10       -0.000755056311     0.000976914440    -0.001272765360

  **** Optimization is complete! (in 5 steps) ****
    Final optimized geometry and variables:
    Molecular point group: c1

    Geometry (in Angstrom), charge = 0, multiplicity = 1:

    H            2.247968050608    -0.565083687099    -0.145145888950
    O            1.365693413874    -0.554030113427     0.177037708714
    C            0.710520137405     0.609744606110    -0.243083152882
    C           -0.709609105726     0.592798637840     0.273082485779
    H            0.703097120844     0.671795494407    -1.330757934737
    H            1.204749177216     1.500593663998     0.135432376171
    O           -1.447216393221    -0.518838035607    -0.146338489052
    H           -1.200411355900     1.505019404267    -0.054515546234
    H           -0.693140591836     0.592499299221     1.356578041433
    H           -0.979281057059    -0.996104478846    -0.806006859022

  Mulliken Charges: (a.u.)
   Center  Symbol    Alpha    Beta     Spin     Total
       1     H     0.39297  0.39297  0.00000  0.21407
       2     O     4.19684  4.19684  0.00000 -0.39367
       3     C     2.98576  2.98576  0.00000  0.02847
       4     C     2.94588  2.94588  0.00000  0.10825
       5     H     0.47238  0.47238  0.00000  0.05523
       6     H     0.46786  0.46786  0.00000  0.06428
       7     O     4.20517  4.20517  0.00000 -0.41033
       8     H     0.47547  0.47547  0.00000  0.04905
       9     H     0.46823  0.46823  0.00000  0.06354
      10     H     0.38944  0.38944  0.00000  0.22112

   Total alpha = 17.00000, Total beta = 17.00000, Total charge = -0.00000
