  ==> Input File <==

--------------------------------------------------------------------------
set {
	reference rhf
	basis 6-31G*
}

set_num_threads( 1 )
memory 2 gb

molecule MOL {
0 1

H	 -3.784552	 0.081537	 2.271671
O	 -3.067760	 -0.475529	 2.003734
C	 -2.077913	 0.297838	 1.375485
C	 -0.946450	 -0.625926	 0.960518
H	 -2.485019	 0.804759	 0.501641
H	 -1.703804	 1.064731	 2.052432
C	 0.198102	 0.111031	 0.262842
H	 -1.353066	 -1.391688	 0.305536
H	 -0.579125	 -1.136073	 1.846689
C	 1.331804	 -0.827780	 -0.158768
H	 -0.191538	 0.634755	 -0.606679
H	 0.597366	 0.875502	 0.928193
C	 2.723619	 -0.410569	 0.329459
H	 1.342964	 -0.912588	 -1.244120
H	 1.116806	 -1.824343	 0.220779
C	 3.243875	 0.895854	 -0.272975
H	 3.424222	 -1.207124	 0.091250
H	 2.714788	 -0.329854	 1.414619
H	 3.251977	 0.848779	 -1.358681
H	 2.637085	 1.747371	 0.016682
H	 4.259473	 1.094070	 0.055697

	symmetry c1
}
set optking {
	frozen_dihedral = ("
		2 3 4 8,
		8 4 7 10,
		16 13 10 14,
		1 2 3 5
	")
}

ee = energy('scf')
oeprop('DIPOLE', 'QUADRUPOLE', 'MULLIKEN_CHARGES')
f=open( 'psi4out.xyz', 'w' )
f.write( "21  " )
f.write( str(ee) + "\n" )
f.write( MOL.save_string_xyz() )
f.close()
--------------------------------------------------------------------------

    Molecular point group: c1

    Geometry (in Angstrom), charge = 0, multiplicity = 1:

       Center              X                  Y                   Z               Mass
    ------------   -----------------  -----------------  -----------------  -----------------
           H         -3.920959592988     0.218339031943     1.600252523486     1.007825032070
           O         -3.204167592988    -0.338726968057     1.332315523486    15.994914619560
           C         -2.214320592988     0.434640031943     0.704066523486    12.000000000000
           C         -1.082857592988    -0.489123968057     0.289099523486    12.000000000000
           H         -2.621426592988     0.941561031943    -0.169777476514     1.007825032070
           H         -1.840211592988     1.201533031943     1.381013523486     1.007825032070
           C          0.061694407012     0.247833031943    -0.408576476514    12.000000000000
           H         -1.489473592988    -1.254885968057    -0.365882476514     1.007825032070
           H         -0.715532592988    -0.999270968057     1.175270523486     1.007825032070
           C          1.195396407012    -0.690977968057    -0.830186476514    12.000000000000
           H         -0.327945592988     0.771557031943    -1.278097476514     1.007825032070
           H          0.460958407012     1.012304031943     0.256774523486     1.007825032070
           C          2.587211407012    -0.273766968057    -0.341959476514    12.000000000000
           H          1.206556407012    -0.775785968057    -1.915538476514     1.007825032070
           H          0.980398407012    -1.687540968057    -0.450639476514     1.007825032070
           C          3.107467407012     1.032656031943    -0.944393476514    12.000000000000
           H          3.287814407012    -1.070321968057    -0.580168476514     1.007825032070
           H          2.578380407012    -0.193051968057     0.743200523486     1.007825032070
           H          3.115569407012     0.985581031943    -2.030099476514     1.007825032070
           H          2.500677407012     1.884173031943    -0.654736476514     1.007825032070
           H          4.123065407012     1.230872031943    -0.615721476514     1.007825032070

  Charge       = 0
  Multiplicity = 1
  Basis Set: 6-31G*
  Basis Set:

    Orbital Energies (a.u.)
    -----------------------

    Doubly Occupied:

       1A    -20.551681     2A    -11.266547     3A    -11.215192
       4A    -11.214401     5A    -11.212020     6A    -11.210958
       7A    -11.208304     8A     -1.358498     9A     -1.086461
      10A     -1.032680    11A     -0.954271    12A     -0.875030
      13A     -0.810286    14A     -0.776895    15A     -0.692031
      16A     -0.659424    17A     -0.626399    18A     -0.605448
      19A     -0.580951    20A     -0.572661    21A     -0.539089
      22A     -0.522513    23A     -0.505129    24A     -0.489414
      25A     -0.481791    26A     -0.456293    27A     -0.452950
      28A     -0.443065    29A     -0.434049

  @DF-RHF Final Energy:  -310.20776754186340

   => Energetics <=

    Nuclear Repulsion Energy =            313.2239583708209238
    One-Electron Energy =               -1041.1945730484860633
    Two-Electron Energy =                 417.7628471358016213
    DFT Exchange-Correlation Energy =       0.0000000000000000
    Empirical Dispersion Energy =           0.0000000000000000
    PCM Polarization Energy =               0.0000000000000000
    EFP Energy =                            0.0000000000000000
    Total Energy =                       -310.2077675418635181

  Mulliken Charges: (a.u.)
   Center  Symbol    Alpha    Beta     Spin     Total
       1     H     0.28121  0.28121  0.00000  0.43757
       2     O     4.37179  4.37179  0.00000 -0.74358
       3     C     2.99034  2.99034  0.00000  0.01931
       4     C     3.16211  3.16211  0.00000 -0.32422
       5     H     0.43293  0.43293  0.00000  0.13414
       6     H     0.43291  0.43291  0.00000  0.13418
       7     C     3.16241  3.16241  0.00000 -0.32482
       8     H     0.41425  0.41425  0.00000  0.17149
       9     H     0.41460  0.41460  0.00000  0.17081
      10     C     3.15494  3.15494  0.00000 -0.30989
      11     H     0.42075  0.42075  0.00000  0.15850
      12     H     0.42140  0.42140  0.00000  0.15720
      13     C     3.15434  3.15434  0.00000 -0.30867
      14     H     0.42157  0.42157  0.00000  0.15687
      15     H     0.41740  0.41740  0.00000  0.16520
      16     C     3.24055  3.24055  0.00000 -0.48110
      17     H     0.42133  0.42133  0.00000  0.15734
      18     H     0.42322  0.42322  0.00000  0.15357
      19     H     0.42212  0.42212  0.00000  0.15576
      20     H     0.42062  0.42062  0.00000  0.15876
      21     H     0.41922  0.41922  0.00000  0.16156

   Total alpha = 29.00000, Total beta = 29.00000, Total charge = -0.00000
