                              Psi4 1.0.54 Driver

  ==> Input File <==

--------------------------------------------------------------------------
set {
	reference rhf
	basis cc-pvtz
}

set_num_threads( 4 )
memory 2 gb

molecule MOL {
0 1

O	 0.749630	 1.305591	 -0.000460
C	 0.576499	 0.134701	 -0.003900
C	 -0.765656	 -0.550508	 -0.002152
O	 1.564816	 -0.744612	 -0.000631
C	 -1.945526	 0.411052	 0.000603
H	 -0.794329	 -1.203792	 -0.868145
H	 -0.791555	 -1.205429	 0.862701
C	 -3.282915	 -0.321280	 0.002596
H	 -1.880300	 1.059126	 -0.864925
H	 -1.877207	 1.057892	 0.866807
H	 -3.388495	 -0.952755	 -0.873419
H	 -4.107811	 0.380864	 0.004116
H	 -3.385717	 -0.953283	 0.878571
C	 2.831736	 -0.295312	 0.436465
H	 3.189531	 0.506281	 -0.192411
H	 3.489376	 -1.146283	 0.365406
H	 2.781255	 0.052983	 1.457339

	symmetry c1
}
set optking {
	frozen_dihedral = ("
		14 4 2 1
	")
}

ee,wfn = optimize('scf', return_wfn=True)
oeprop( wfn, 'DIPOLE', 'QUADRUPOLE', 'MULLIKEN_CHARGES')
f=open( 'psi4out.xyz', 'w' )
f.write( "17  " )
f.write( str(ee) + "\n" )
f.write( MOL.save_string_xyz() )
f.close()
--------------------------------------------------------------------------

    Molecular point group: c1
  Charge       = 0
  Multiplicity = 1
  Basis Set: CC-PVTZ
  Basis Set:
  @DF-RHF Final Energy:  -345.03295822517742
    Total Energy =                       -345.0329582251779357
    Molecular point group: c1
  Basis Set: CC-PVTZ
  Basis Set:
  Basis Set: CC-PVTZ
  Basis Set:
  @DF-RHF Final Energy:  -344.84373430395601
    Total Energy =                       -344.8437343039557277
  Basis Set: CC-PVTZ
  Basis Set:
  Basis Set: CC-PVTZ
  Basis Set:
  @DF-RHF Final Energy:  -344.97318347136718
    Total Energy =                       -344.9731834713670082
  Basis Set: CC-PVTZ
  Basis Set:
  Basis Set: CC-PVTZ
  Basis Set:
  @DF-RHF Final Energy:  -345.02825599940587
    Total Energy =                       -345.0282559994058715
  Basis Set: CC-PVTZ
  Basis Set:
  @DF-RHF Final Energy:  -344.36874928483212
    Total Energy =                       -344.3687492848321199
  @DF-RHF Final Energy:  -344.39951944906625
    Total Energy =                       -344.3995194490665313
  @DF-RHF Final Energy:  -344.51082792933653
    Total Energy =                       -344.5108279293366991
  @DF-RHF Final Energy:  -344.70790501958055
    Total Energy =                       -344.7079050195802665
  @DF-RHF Final Energy:  -344.90610874469684
    Total Energy =                       -344.9061087446968941
  @DF-RHF Final Energy:  -345.02327352585826
    Total Energy =                       -345.0232735258581442
  @DF-RHF Final Energy:  -345.02803351740528
    Total Energy =                       -345.0280335174054471
  @DF-RHF Final Energy:  -345.03223325694699
    Total Energy =                       -345.0322332569463697
  @DF-RHF Final Energy:  -345.03302096511419
    Total Energy =                       -345.0330209651139057
  @DF-RHF Final Energy:  -345.03318295271009
    Total Energy =                       -345.0331829527098080
  @DF-RHF Final Energy:  -345.03330181315994
    Total Energy =                       -345.0333018131598237
  @DF-RHF Final Energy:  -345.03330627568153
    Total Energy =                       -345.0333062756813547
  @DF-RHF Final Energy:  -345.03331076199942
    Total Energy =                       -345.0333107619994735
  @DF-RHF Final Energy:  -345.03330280349411
    Total Energy =                       -345.0333028034942799
  @DF-RHF Final Energy:  -345.03331151463522
    Total Energy =                       -345.0333115146353293
  Basis Set: CC-PVTZ
  Basis Set:
  @DF-RHF Final Energy:  -345.03331128793263
    Total Energy =                       -345.0333112879327473
  Basis Set: CC-PVTZ
  Basis Set:
  Basis Set: CC-PVTZ
  Basis Set:
  @DF-RHF Final Energy:  -345.03331151151349
    Total Energy =                       -345.0333115115133182
  Basis Set: CC-PVTZ
  Basis Set:
  Basis Set: CC-PVTZ
  Basis Set:
  @DF-RHF Final Energy:  -345.03331157135648
    Total Energy =                       -345.0333115713560801
  Basis Set: CC-PVTZ
  Basis Set:
  Charge       = 0
  Multiplicity = 1
  Basis Set: CC-PVTZ
  Basis Set:

    Orbital Energies (a.u.)
    -----------------------

    Doubly Occupied:

       1A    -20.594722     2A    -20.535449     3A    -11.365274
       4A    -11.279727     5A    -11.234584     6A    -11.220222
       7A    -11.212870     8A     -1.471350     9A     -1.366563
      10A     -1.081769    11A     -1.001856    12A     -0.941115
      13A     -0.828421    14A     -0.769039    15A     -0.702398
      16A     -0.685562    17A     -0.676354    18A     -0.637592
      19A     -0.598929    20A     -0.576355    21A     -0.568681
      22A     -0.529327    23A     -0.524259    24A     -0.500221
      25A     -0.487998    26A     -0.479563    27A     -0.459554
      28A     -0.440807

  @DF-RHF Final Energy:  -345.03331164362868

   => Energetics <=

    Nuclear Repulsion Energy =            312.9056759555723488
    One-Electron Energy =               -1090.3368433692312465
    Two-Electron Energy =                 432.3978557700301053
    DFT Exchange-Correlation Energy =       0.0000000000000000
    Empirical Dispersion Energy =           0.0000000000000000
    PCM Polarization Energy =               0.0000000000000000
    EFP Energy =                            0.0000000000000000
    Total Energy =                       -345.0333116436287355
    Molecular point group: c1
  Basis Set: CC-PVTZ
  Basis Set:

  -Total Gradient:
     Atom            X                  Y                   Z
    ------   -----------------  -----------------  -----------------
       1       -0.003059062014     0.000049444786    -0.005250715380
       2        0.006196965622    -0.001108115799     0.009145330785
       3       -0.000133989718     0.000061197489     0.000247816819
       4       -0.005841580680     0.003039888255    -0.007680906540
       5        0.000302684346    -0.000096596979     0.000000672922
       6       -0.000078676725    -0.000010218977    -0.000087137361
       7        0.000070713597     0.000046135285     0.000069463669
       8       -0.000308963585     0.000107667483    -0.000013003565
       9       -0.000079768100    -0.000076582715    -0.000049684740
      10        0.000007699129    -0.000024500311     0.000025230073
      11       -0.000006047660     0.000002718378    -0.000034223819
      12        0.000058833480    -0.000021987503    -0.000030922123
      13        0.000087954374     0.000044366942     0.000064098602
      14        0.002963143094    -0.001952296721     0.003574006057
      15       -0.000113542943    -0.000022787008    -0.000044060516
      16       -0.000039628979     0.000030529291     0.000041184936
      17       -0.000026733237    -0.000068861891     0.000022850183

  **** Optimization is complete! (in 23 steps) ****
    Final optimized geometry and variables:
    Molecular point group: c1

    Geometry (in Angstrom), charge = 0, multiplicity = 1:

    O           -0.548581895567     1.348107899076     0.420738794022
    C            0.185668369450     0.564050800801    -0.074622454242
    C           -0.012183044377    -0.929461349934    -0.087509590912
    O            1.278422852047     0.913313368765    -0.738239379604
    C           -1.336077761450    -1.380501909315     0.512333083526
    H            0.089732632607    -1.261859025119    -1.115121915109
    H            0.827014615831    -1.363792591923     0.447984625634
    C           -1.492261351993    -2.896867737991     0.487016887640
    H           -2.151015717889    -0.917530394251    -0.031694224234
    H           -1.409236943500    -1.018075496286     1.530338209071
    H           -1.454611566986    -3.281050907091    -0.527102840824
    H           -2.440338048997    -3.195245869788     0.917645096774
    H           -0.704644052653    -3.383502643135     1.053266446331
    C            1.800670405142     2.203891753538    -0.494404158430
    H            1.118198329736     2.967359414710    -0.836470470868
    H            2.726637576814     2.260695673237    -1.043044137759
    H            1.985772771736     2.342032114318     0.561339107655

  Mulliken Charges: (a.u.)
   Center  Symbol    Alpha    Beta     Spin     Total
       1     O     4.19402  4.19402  0.00000 -0.38805
       2     C     2.80604  2.80604  0.00000  0.38793
       3     C     3.09606  3.09606  0.00000 -0.19212
       4     O     4.14887  4.14887  0.00000 -0.29775
       5     C     3.07901  3.07901  0.00000 -0.15802
       6     H     0.43933  0.43933  0.00000  0.12134
       7     H     0.44342  0.44342  0.00000  0.11315
       8     C     3.15107  3.15107  0.00000 -0.30214
       9     H     0.44746  0.44746  0.00000  0.10508
      10     H     0.44593  0.44593  0.00000  0.10814
      11     H     0.45571  0.45571  0.00000  0.08857
      12     H     0.44553  0.44553  0.00000  0.10893
      13     H     0.45603  0.45603  0.00000  0.08794
      14     C     3.03713  3.03713  0.00000 -0.07426
      15     H     0.45061  0.45061  0.00000  0.09879
      16     H     0.44520  0.44520  0.00000  0.10961
      17     H     0.45857  0.45857  0.00000  0.08286

   Total alpha = 28.00000, Total beta = 28.00000, Total charge =  0.00000

*** Psi4 exiting successfully. Buy a developer a beer!
