                              Psi4 1.0.54 Driver

  ==> Input File <==

--------------------------------------------------------------------------
set {
	reference rhf
	basis cc-pvtz
}

set_num_threads( 4 )
memory 2 gb

molecule MOL {
0 1

H	 3.083659	 -1.378387	 0.000000
O	 2.179005	 -1.633391	 0.000000
C	 1.366950	 -0.558201	 0.000000
C	 0.041581	 -0.631158	 -0.400944
C	 1.895348	 0.646119	 0.417648
H	 -0.368412	 -1.570134	 -0.725997
C	 -0.751256	 0.498469	 -0.383422
H	 2.918591	 0.705721	 0.727913
C	 1.093731	 1.773313	 0.432087
H	 -1.775234	 0.430015	 -0.695842
C	 -0.230336	 1.707048	 0.032989
C	 1.650764	 3.076645	 0.879770
H	 -0.844420	 2.587146	 0.047692
O	 2.764701	 3.245578	 1.240360
H	 0.941163	 3.909422	 0.856351

	symmetry c1
}
set optking {
	frozen_dihedral = ("
		4 3 2 1
	")
}

ee,wfn = optimize('scf', return_wfn=True)
oeprop( wfn, 'DIPOLE', 'QUADRUPOLE', 'MULLIKEN_CHARGES')
f=open( 'psi4out.xyz', 'w' )
f.write( "15  " )
f.write( str(ee) + "\n" )
f.write( MOL.save_string_xyz() )
f.close()
--------------------------------------------------------------------------

    Molecular point group: c1
  Charge       = 0
  Multiplicity = 1
  Basis Set: CC-PVTZ
  Basis Set:
  @DF-RHF Final Energy:  -418.43768086802010
    Total Energy =                       -418.4376808680203794
    Molecular point group: c1
  Basis Set: CC-PVTZ
  Basis Set:
  Basis Set: CC-PVTZ
  Basis Set:
  @DF-RHF Final Energy:  -418.43951208729055
    Total Energy =                       -418.4395120872904954
  Basis Set: CC-PVTZ
  Basis Set:
  Basis Set: CC-PVTZ
  Basis Set:
  @DF-RHF Final Energy:  -418.43955219156175
    Total Energy =                       -418.4395521915619156
  Basis Set: CC-PVTZ
  Basis Set:
  Basis Set: CC-PVTZ
  Basis Set:
  @DF-RHF Final Energy:  -418.43920489592165
    Total Energy =                       -418.4392048959216481
  Basis Set: CC-PVTZ
  Basis Set:
  Basis Set: CC-PVTZ
  Basis Set:
  @DF-RHF Final Energy:  -418.43969069102184
    Total Energy =                       -418.4396906910218377
  Basis Set: CC-PVTZ
  Basis Set:
  Charge       = 0
  Multiplicity = 1
  Basis Set: CC-PVTZ
  Basis Set:

    Orbital Energies (a.u.)
    -----------------------

    Doubly Occupied:

       1A    -20.593873     2A    -20.556619     3A    -11.329995
       4A    -11.310726     5A    -11.252050     6A    -11.249228
       7A    -11.245040     8A    -11.243205     9A    -11.241742
      10A     -1.425205    11A     -1.412271    12A     -1.174655
      13A     -1.053246    14A     -1.029682    15A     -0.903837
      16A     -0.857112    17A     -0.799829    18A     -0.758578
      19A     -0.704109    20A     -0.672484    21A     -0.665723
      22A     -0.633917    23A     -0.617726    24A     -0.611405
      25A     -0.574198    26A     -0.558754    27A     -0.539147
      28A     -0.520432    29A     -0.492569    30A     -0.429182
      31A     -0.358097    32A     -0.333211

  @DF-RHF Final Energy:  -418.43969488057320

   => Energetics <=

    Nuclear Repulsion Energy =            404.1951492128791301
    One-Electron Energy =               -1370.9739981394538972
    Two-Electron Energy =                 548.3391540460016813
    DFT Exchange-Correlation Energy =       0.0000000000000000
    Empirical Dispersion Energy =           0.0000000000000000
    PCM Polarization Energy =               0.0000000000000000
    EFP Energy =                            0.0000000000000000
    Total Energy =                       -418.4396948805730290
    Molecular point group: c1
  Basis Set: CC-PVTZ
  Basis Set:

  -Total Gradient:
     Atom            X                  Y                   Z
    ------   -----------------  -----------------  -----------------
       1        0.000034558397     0.000039625959    -0.002066157527
       2        0.000159418563     0.000090067957     0.001936293983
       3       -0.000810757874    -0.000424165055     0.001447159427
       4        0.000668044037     0.000130530271    -0.001345245215
       5       -0.000071460623     0.000182760939     0.000044486745
       6        0.000024458132     0.000015282497     0.000006973214
       7       -0.000034423063     0.000417530113     0.000090025254
       8        0.000016934916     0.000012120598     0.000000051278
       9        0.000376862535    -0.000126290354     0.000023671080
      10       -0.000000569936    -0.000026077144    -0.000005831811
      11       -0.000327985913    -0.000255365713    -0.000153005674
      12       -0.000233452540    -0.000091961205     0.000036716442
      13        0.000026881179     0.000015396530     0.000016299725
      14        0.000151881077     0.000012915027     0.000001717504
      15        0.000019611119     0.000007629569    -0.000033154422

  **** Optimization is complete! (in 6 steps) ****
    Final optimized geometry and variables:
    Molecular point group: c1

    Geometry (in Angstrom), charge = 0, multiplicity = 1:

    H            1.860305763332    -2.382379381262    -0.262821365576
    O            0.939242625443    -2.572571738719    -0.264093042466
    C            0.209745928894    -1.437687617885    -0.243373806693
    C           -1.112336374172    -1.520437493202    -0.664258721454
    C            0.725454543444    -0.232260819119     0.173091695692
    H           -1.491549350409    -2.468572958761    -0.991210163797
    C           -1.909705852659    -0.399851065931    -0.653325282475
    H            1.743173511994    -0.147960788325     0.503217939424
    C           -0.083043590440     0.896620033066     0.172014993489
    H           -2.929824045563    -0.472853160184    -0.977161634839
    C           -1.398428755405     0.818778281690    -0.235785312630
    C            0.467190446792     2.201764761595     0.616470160235
    H           -2.018610860647     1.694864304206    -0.231004648233
    O            1.581491061254     2.374223773239     0.976925753355
    H           -0.244819808231     3.032175304741     0.589989206230

  Mulliken Charges: (a.u.)
   Center  Symbol    Alpha    Beta     Spin     Total
       1     H     0.38393  0.38393  0.00000  0.23214
       2     O     4.17507  4.17507  0.00000 -0.35015
       3     C     2.84472  2.84472  0.00000  0.31057
       4     C     3.10164  3.10164  0.00000 -0.20327
       5     C     3.14058  3.14058  0.00000 -0.28116
       6     H     0.41491  0.41491  0.00000  0.17019
       7     C     3.05709  3.05709  0.00000 -0.11418
       8     H     0.41572  0.41572  0.00000  0.16856
       9     C     2.98016  2.98016  0.00000  0.03968
      10     H     0.41930  0.41930  0.00000  0.16141
      11     C     3.10727  3.10727  0.00000 -0.21453
      12     C     2.90927  2.90927  0.00000  0.18145
      13     H     0.42304  0.42304  0.00000  0.15393
      14     O     4.17223  4.17223  0.00000 -0.34446
      15     H     0.45508  0.45508  0.00000  0.08984

   Total alpha = 32.00000, Total beta = 32.00000, Total charge = -0.00000

*** Psi4 exiting successfully. Buy a developer a beer!
