                              Psi4 1.0.54 Driver

  ==> Input File <==

--------------------------------------------------------------------------
set {
	reference rhf
	basis cc-pvtz
}

set_num_threads( 4 )
memory 2 gb

molecule MOL {
0 1

H	 1.346914	 0.577523	 -0.967475
C	 0.848385	 0.440008	 0.000011
C	 -0.623497	 0.751021	 0.000090
O	 1.465358	 0.073809	 0.939419
C	 -1.523725	 -0.474323	 -0.000013
H	 -0.813143	 1.382932	 -0.864897
H	 -0.813071	 1.382716	 0.865253
H	 -1.342980	 -1.087348	 -0.873016
H	 -2.565269	 -0.177464	 0.000070
H	 -1.342898	 -1.087564	 0.872820

	symmetry c1
}
set optking {
	frozen_dihedral = ("
		4 2 3 6
	")
}

ee,wfn = optimize('scf', return_wfn=True)
oeprop( wfn, 'DIPOLE', 'QUADRUPOLE', 'MULLIKEN_CHARGES')
f=open( 'psi4out.xyz', 'w' )
f.write( "10  " )
f.write( str(ee) + "\n" )
f.write( MOL.save_string_xyz() )
f.close()
--------------------------------------------------------------------------

    Molecular point group: c1
  Charge       = 0
  Multiplicity = 1
  Basis Set: CC-PVTZ
  Basis Set:
  @DF-RHF Final Energy:  -192.02069954951469
    Total Energy =                       -192.0206995495146600
    Molecular point group: c1
  Basis Set: CC-PVTZ
  Basis Set:
  Basis Set: CC-PVTZ
  Basis Set:
  @DF-RHF Final Energy:  -192.02129986305766
    Total Energy =                       -192.0212998630578625
  Basis Set: CC-PVTZ
  Basis Set:
  Basis Set: CC-PVTZ
  Basis Set:
  @DF-RHF Final Energy:  -192.02166189927587
    Total Energy =                       -192.0216618992757560
  Basis Set: CC-PVTZ
  Basis Set:
  Basis Set: CC-PVTZ
  Basis Set:
  @DF-RHF Final Energy:  -192.02171759355235
    Total Energy =                       -192.0217175935522391
  Basis Set: CC-PVTZ
  Basis Set:
  Basis Set: CC-PVTZ
  Basis Set:
  @DF-RHF Final Energy:  -192.02181489324511
    Total Energy =                       -192.0218148932451356
  Basis Set: CC-PVTZ
  Basis Set:
  Basis Set: CC-PVTZ
  Basis Set:
  @DF-RHF Final Energy:  -192.02181771531650
    Total Energy =                       -192.0218177153165016
  Basis Set: CC-PVTZ
  Basis Set:
  Charge       = 0
  Multiplicity = 1
  Basis Set: CC-PVTZ
  Basis Set:

    Orbital Energies (a.u.)
    -----------------------

    Doubly Occupied:

       1A    -20.553372     2A    -11.323030     3A    -11.237537
       4A    -11.229586     5A     -1.408680     6A     -1.064117
       7A     -0.905102     8A     -0.788174     9A     -0.685051
      10A     -0.643060    11A     -0.606755    12A     -0.577030
      13A     -0.541115    14A     -0.510726    15A     -0.498258
      16A     -0.414344

  @DF-RHF Final Energy:  -192.02181800339059

   => Energetics <=

    Nuclear Repulsion Energy =            118.5425754467234327
    One-Electron Energy =                -495.1569124764733942
    Two-Electron Energy =                 184.5925190263591844
    DFT Exchange-Correlation Energy =       0.0000000000000000
    Empirical Dispersion Energy =           0.0000000000000000
    PCM Polarization Energy =               0.0000000000000000
    EFP Energy =                            0.0000000000000000
    Total Energy =                       -192.0218180033907629
    Molecular point group: c1
  Basis Set: CC-PVTZ
  Basis Set:

  -Total Gradient:
     Atom            X                  Y                   Z
    ------   -----------------  -----------------  -----------------
       1        0.000011330205    -0.000000617878     0.000009335247
       2        0.000429118087     0.001605432925     0.000383698817
       3        0.000197413941     0.000667896289     0.000870092854
       4       -0.000340332230    -0.001290257143    -0.000421730663
       5        0.000008563432     0.000020231679    -0.000000432212
       6       -0.000304664056    -0.001021441521    -0.000846404013
       7       -0.000003693891     0.000000558250     0.000003004639
       8        0.000009402948     0.000009459529    -0.000002519801
       9       -0.000011543255     0.000004623218    -0.000001144014
      10        0.000004404819     0.000004114652     0.000006099145

  **** Optimization is complete! (in 7 steps) ****
    Final optimized geometry and variables:
    Molecular point group: c1

    Geometry (in Angstrom), charge = 0, multiplicity = 1:

    H            1.299530606382     0.416955141909    -1.188336449518
    C            0.803078792523     0.259251195353    -0.222996203779
    C           -0.656584150098     0.633754075770    -0.153796814346
    O            1.401248213716    -0.218561840976     0.678086556236
    C           -1.535499509816    -0.610128483284    -0.324199379886
    H           -0.883317085002     1.350578974473    -0.934841446863
    H           -0.844838788728     1.092803814116     0.808269318178
    H           -1.354035542086    -1.093392454254    -1.277947955823
    H           -2.582771251275    -0.339615178835    -0.283311844252
    H           -1.334750954894    -1.326760726088     0.461039047205

  Mulliken Charges: (a.u.)
   Center  Symbol    Alpha    Beta     Spin     Total
       1     H     0.46039  0.46039  0.00000  0.07923
       2     C     2.90463  2.90463  0.00000  0.19074
       3     C     3.08230  3.08230  0.00000 -0.16460
       4     O     4.16795  4.16795  0.00000 -0.33589
       5     C     3.14546  3.14546  0.00000 -0.29091
       6     H     0.45174  0.45174  0.00000  0.09652
       7     H     0.44295  0.44295  0.00000  0.11411
       8     H     0.45419  0.45419  0.00000  0.09161
       9     H     0.44708  0.44708  0.00000  0.10585
      10     H     0.44333  0.44333  0.00000  0.11335

   Total alpha = 16.00000, Total beta = 16.00000, Total charge = -0.00000

*** Psi4 exiting successfully. Buy a developer a beer!
