  ==> Input File <==

--------------------------------------------------------------------------
set {
	reference rhf
	basis 6-31G*
}

set_num_threads( 1 )
memory 2 gb

molecule MOL {
0 1

H	 -1.663847	 -1.149727	 0.513795
O	 -1.422729	 -0.573567	 -0.196946
C	 -0.731407	 0.539437	 0.309156
C	 0.680193	 0.672443	 -0.251532
H	 -1.319765	 1.404033	 0.030086
H	 -0.700012	 0.506517	 1.397677
C	 1.599139	 -0.492137	 0.118598
H	 0.616402	 0.758534	 -1.332349
H	 1.107032	 1.602637	 0.117369
H	 1.239738	 -1.428634	 -0.297334
H	 2.601428	 -0.335055	 -0.265730
H	 1.674954	 -0.608418	 1.197020

	symmetry c1
}
set optking {
	frozen_dihedral = ("
		8 4 3 2
	")
}

ee = energy('scf')
oeprop('DIPOLE', 'QUADRUPOLE', 'MULLIKEN_CHARGES')
f=open( 'psi4out.xyz', 'w' )
f.write( "12  " )
f.write( str(ee) + "\n" )
f.write( MOL.save_string_xyz() )
f.close()
--------------------------------------------------------------------------

    Molecular point group: c1

    Geometry (in Angstrom), charge = 0, multiplicity = 1:

       Center              X                  Y                   Z               Mass
    ------------   -----------------  -----------------  -----------------  -----------------
           H         -1.653896977647    -1.153365440530     0.508205195490     1.007825032070
           O         -1.412778977647    -0.577205440530    -0.202535804510    15.994914619560
           C         -0.721456977647     0.535798559470     0.303566195490    12.000000000000
           C          0.690143022353     0.668804559470    -0.257121804510    12.000000000000
           H         -1.309814977647     1.400394559470     0.024496195490     1.007825032070
           H         -0.690061977647     0.502878559470     1.392087195490     1.007825032070
           C          1.609089022353    -0.495775440530     0.113008195490    12.000000000000
           H          0.626352022353     0.754895559470    -1.337938804510     1.007825032070
           H          1.116982022353     1.598998559470     0.111779195490     1.007825032070
           H          1.249688022353    -1.432272440530    -0.302923804510     1.007825032070
           H          2.611378022353    -0.338693440530    -0.271319804510     1.007825032070
           H          1.684904022353    -0.612056440530     1.191430195490     1.007825032070

  Charge       = 0
  Multiplicity = 1
  Basis Set: 6-31G*
  Basis Set:

    Orbital Energies (a.u.)
    -----------------------

    Doubly Occupied:

       1A    -20.552178     2A    -11.267923     3A    -11.215733
       4A    -11.208495     5A     -1.359608     6A     -1.047008
       7A     -0.921431     8A     -0.802017     9A     -0.704253
      10A     -0.635366    11A     -0.594798    12A     -0.583486
      13A     -0.523116    14A     -0.512165    15A     -0.488348
      16A     -0.466894    17A     -0.427050

  @DF-RHF Final Energy:  -193.10822552771100

   => Energetics <=

    Nuclear Repulsion Energy =            132.6899064444907594
    One-Electron Energy =                -524.9764862028209791
    Two-Electron Energy =                 199.1783542306194477
    DFT Exchange-Correlation Energy =       0.0000000000000000
    Empirical Dispersion Energy =           0.0000000000000000
    PCM Polarization Energy =               0.0000000000000000
    EFP Energy =                            0.0000000000000000
    Total Energy =                       -193.1082255277107720

  Mulliken Charges: (a.u.)
   Center  Symbol    Alpha    Beta     Spin     Total
       1     H     0.27923  0.27923  0.00000  0.44155
       2     O     4.37139  4.37139  0.00000 -0.74278
       3     C     2.99750  2.99750  0.00000  0.00501
       4     C     3.15747  3.15747  0.00000 -0.31495
       5     H     0.42076  0.42076  0.00000  0.15847
       6     H     0.43343  0.43343  0.00000  0.13313
       7     C     3.24490  3.24490  0.00000 -0.48980
       8     H     0.41439  0.41439  0.00000  0.17122
       9     H     0.42397  0.42397  0.00000  0.15206
      10     H     0.41219  0.41219  0.00000  0.17562
      11     H     0.41837  0.41837  0.00000  0.16326
      12     H     0.42640  0.42640  0.00000  0.14720

   Total alpha = 17.00000, Total beta = 17.00000, Total charge = -0.00000
