                              Psi4 1.0.54 Driver

  ==> Input File <==

--------------------------------------------------------------------------
set {
	reference rhf
	basis cc-pvtz
}

set_num_threads( 4 )
memory 2 gb

molecule MOL {
0 1

H	 3.283645	 -0.487017	 -0.000000
C	 2.228138	 -0.292414	 -0.000000
C	 1.768840	 1.016164	 0.000000
C	 1.335991	 -1.345785	 -0.000000
H	 2.468361	 1.829468	 0.000000
C	 0.415592	 1.270175	 0.000000
H	 1.694164	 -2.356818	 -0.000000
C	 -0.022788	 -1.089092	 -0.000000
H	 0.041253	 2.274430	 0.000000
C	 -0.486398	 0.214248	 0.000000
H	 -0.722717	 -1.904122	 -0.000000
C	 -1.946525	 0.470130	 0.000000
O	 -2.779618	 -0.371226	 0.000000
H	 -2.227127	 1.528393	 0.000000

	symmetry c1
}
set optking {
	frozen_dihedral = ("
		8 10 12 14
	")
}

ee,wfn = optimize('scf', return_wfn=True)
oeprop( wfn, 'DIPOLE', 'QUADRUPOLE', 'MULLIKEN_CHARGES')
f=open( 'psi4out.xyz', 'w' )
f.write( "14  " )
f.write( str(ee) + "\n" )
f.write( MOL.save_string_xyz() )
f.close()
--------------------------------------------------------------------------

    Molecular point group: c1
  Charge       = 0
  Multiplicity = 1
  Basis Set: CC-PVTZ
  Basis Set:
  @DF-RHF Final Energy:  -343.54983723390018
    Total Energy =                       -343.5498372339004050
    Molecular point group: c1
  Basis Set: CC-PVTZ
  Basis Set:
  Basis Set: CC-PVTZ
  Basis Set:
  @DF-RHF Final Energy:  -343.55008082123391
    Total Energy =                       -343.5500808212340758
  Basis Set: CC-PVTZ
  Basis Set:
  Basis Set: CC-PVTZ
  Basis Set:
  @DF-RHF Final Energy:  -343.55010965390483
    Total Energy =                       -343.5501096539048831
  Basis Set: CC-PVTZ
  Basis Set:
  Basis Set: CC-PVTZ
  Basis Set:
  @DF-RHF Final Energy:  -343.55011468965341
    Total Energy =                       -343.5501146896534124
  Basis Set: CC-PVTZ
  Basis Set:
  Charge       = 0
  Multiplicity = 1
  Basis Set: CC-PVTZ
  Basis Set:

    Orbital Energies (a.u.)
    -----------------------

    Doubly Occupied:

       1A    -20.552591     2A    -11.326906     3A    -11.252800
       4A    -11.250347     5A    -11.246647     6A    -11.245331
       7A    -11.243951     8A    -11.242358     9A     -1.408504
      10A     -1.177168    11A     -1.051865    12A     -1.036267
      13A     -0.892765    14A     -0.848533    15A     -0.794489
      16A     -0.725553    17A     -0.682396    18A     -0.656529
      19A     -0.623691    20A     -0.620771    21A     -0.606070
      22A     -0.562405    23A     -0.530247    24A     -0.510176
      25A     -0.508300    26A     -0.425512    27A     -0.355936
      28A     -0.352596

  @DF-RHF Final Energy:  -343.55011504233534

   => Energetics <=

    Nuclear Repulsion Energy =            323.9705845334119090
    One-Electron Energy =               -1107.5799862718968143
    Two-Electron Energy =                 440.0592866961494565
    DFT Exchange-Correlation Energy =       0.0000000000000000
    Empirical Dispersion Energy =           0.0000000000000000
    PCM Polarization Energy =               0.0000000000000000
    EFP Energy =                            0.0000000000000000
    Total Energy =                       -343.5501150423353920
    Molecular point group: c1
  Basis Set: CC-PVTZ
  Basis Set:

  -Total Gradient:
     Atom            X                  Y                   Z
    ------   -----------------  -----------------  -----------------
       1       -0.000001120259    -0.000006383858     0.000000370379
       2       -0.000002443415     0.000008688501     0.000001117291
       3       -0.000004998502    -0.000004789396    -0.000005687930
       4        0.000002225127    -0.000015340824    -0.000002259040
       5       -0.000004265019     0.000000763547    -0.000000552954
       6        0.000000543471     0.000030163819     0.000002056644
       7        0.000002234547    -0.000000164665     0.000000367500
       8        0.000010515612     0.000029969033    -0.000004996310
       9        0.000002416159    -0.000009501785     0.000001664942
      10       -0.000024380766    -0.000033229567     0.000060204087
      11       -0.000004472455    -0.000011986803    -0.000000434410
      12       -0.000003979529     0.000000917263    -0.000160383411
      13        0.000020811411     0.000002869822     0.000058222348
      14        0.000006913622     0.000008024913     0.000050310865

  **** Optimization is complete! (in 5 steps) ****
    Final optimized geometry and variables:
    Molecular point group: c1

    Geometry (in Angstrom), charge = 0, multiplicity = 1:

    H            3.291254886400    -0.456380017664     0.000048005868
    C            2.235148319220    -0.264741319912     0.000001349766
    C            1.773267767124     1.035775412841    -0.000004494683
    C            1.342508693214    -1.326676637759    -0.000076586884
    H            2.465588655350     1.855079595114     0.000033437679
    C            0.411107550396     1.276306884689    -0.000063208247
    H            1.709503961525    -2.334749595442    -0.000093879774
    C           -0.012833066599    -1.085702961279    -0.000144175673
    H            0.044855277145     2.286338252709    -0.000080677886
    C           -0.483161161008     0.221316147087    -0.000100473503
    H           -0.718233189331    -1.892689819538    -0.000229587448
    C           -1.939599154047     0.498567174742    -0.000298340250
    O           -2.784775866688    -0.330413509371     0.000550354472
    H           -2.203894408866     1.561228696605    -0.000244578572

  Mulliken Charges: (a.u.)
   Center  Symbol    Alpha    Beta     Spin     Total
       1     H     0.41948  0.41948  0.00000  0.16104
       2     C     3.06946  3.06946  0.00000 -0.13893
       3     C     3.07382  3.07382  0.00000 -0.14764
       4     C     3.07267  3.07267  0.00000 -0.14535
       5     H     0.42060  0.42060  0.00000  0.15880
       6     C     3.08683  3.08683  0.00000 -0.17366
       7     H     0.41949  0.41949  0.00000  0.16102
       8     C     3.07921  3.07921  0.00000 -0.15841
       9     H     0.42286  0.42286  0.00000  0.15427
      10     C     2.98645  2.98645  0.00000  0.02711
      11     H     0.40863  0.40863  0.00000  0.18273
      12     C     2.90922  2.90922  0.00000  0.18155
      13     O     4.17285  4.17285  0.00000 -0.34570
      14     H     0.45842  0.45842  0.00000  0.08316

   Total alpha = 28.00000, Total beta = 28.00000, Total charge = -0.00000

*** Psi4 exiting successfully. Buy a developer a beer!
