  ==> Input File <==

--------------------------------------------------------------------------
set {
	reference rhf
	basis 6-31G*
}

set_num_threads( 4 )
memory 2 gb

molecule MOL {
0 1

O	 -1.276010	 1.052711	 -0.768302
C	 -1.204840	 0.067374	 -0.106123
C	 -2.388195	 -0.672128	 0.458071
O	 -0.067104	 -0.527208	 0.221609
H	 -2.388023	 -1.694060	 0.097175
H	 -3.300579	 -0.174919	 0.164318
H	 -2.315377	 -0.706351	 1.539059
C	 0.889689	 -0.815855	 -0.807545
C	 1.710023	 -1.987372	 -0.297458
C	 1.728760	 0.420521	 -1.090351
H	 0.345512	 -1.099244	 -1.696403
H	 1.073290	 -2.840756	 -0.093609
H	 2.446803	 -2.278685	 -1.038825
H	 2.229685	 -1.722304	 0.617060
H	 2.470224	 0.201993	 -1.852252
H	 1.107875	 1.232650	 -1.446615
H	 2.246200	 0.741235	 -0.191793

	symmetry c1
}
set optking {
	frozen_dihedral = ("
		8 4 2 1
	")
}

ee = optimize('scf')
oeprop('DIPOLE', 'QUADRUPOLE', 'MULLIKEN_CHARGES')
f=open( 'psi4out.xyz', 'w' )
f.write( "17  " )
f.write( str(ee) + "\n" )
f.write( MOL.save_string_xyz() )
f.close()
--------------------------------------------------------------------------

    Molecular point group: c1
  Charge       = 0
  Multiplicity = 1
  Basis Set: 6-31G*
  Basis Set:
  @DF-RHF Final Energy:  -344.90252035870066
    Total Energy =                       -344.9025203587008264
    Molecular point group: c1
  Basis Set: 6-31G*
  Basis Set:
  Basis Set: 6-31G*
  Basis Set:
  @DF-RHF Final Energy:  -344.90104777207068
    Total Energy =                       -344.9010477720709105
  Basis Set: 6-31G*
  Basis Set:
  Basis Set: 6-31G*
  Basis Set:
  @DF-RHF Final Energy:  -344.90383854354889
    Total Energy =                       -344.9038385435488863
  Basis Set: 6-31G*
  Basis Set:
  Basis Set: 6-31G*
  Basis Set:
  @DF-RHF Final Energy:  -344.90401263486029
    Total Energy =                       -344.9040126348595550
  Basis Set: 6-31G*
  Basis Set:
  Basis Set: 6-31G*
  Basis Set:
  @DF-RHF Final Energy:  -344.90407829145880
    Total Energy =                       -344.9040782914589158
  Basis Set: 6-31G*
  Basis Set:
  Basis Set: 6-31G*
  Basis Set:
  @DF-RHF Final Energy:  -344.90409400682910
    Total Energy =                       -344.9040940068290979
  Basis Set: 6-31G*
  Basis Set:
  Basis Set: 6-31G*
  Basis Set:
  @DF-RHF Final Energy:  -344.90409569268422
    Total Energy =                       -344.9040956926844501
  Basis Set: 6-31G*
  Basis Set:
  Charge       = 0
  Multiplicity = 1
  Basis Set: 6-31G*
  Basis Set:

    Orbital Energies (a.u.)
    -----------------------

    Doubly Occupied:

       1A    -20.588315     2A    -20.549426     3A    -11.375949
       4A    -11.296460     5A    -11.233725     6A    -11.221853
       7A    -11.212742     8A     -1.459754     9A     -1.362748
      10A     -1.076245    11A     -1.006841    12A     -0.947549
      13A     -0.845099    14A     -0.770778    15A     -0.691616
      16A     -0.671372    17A     -0.651978    18A     -0.609765
      19A     -0.589432    20A     -0.581628    21A     -0.563342
      22A     -0.550463    23A     -0.546278    24A     -0.514631
      25A     -0.495458    26A     -0.488582    27A     -0.443273
      28A     -0.436356

  @DF-RHF Final Energy:  -344.90409647446063

   => Energetics <=

    Nuclear Repulsion Energy =            321.9058202837228464
    One-Electron Energy =               -1108.0565222660234213
    Two-Electron Energy =                 441.2466055078399449
    DFT Exchange-Correlation Energy =       0.0000000000000000
    Empirical Dispersion Energy =           0.0000000000000000
    PCM Polarization Energy =               0.0000000000000000
    EFP Energy =                            0.0000000000000000
    Total Energy =                       -344.9040964744606299
    Molecular point group: c1
  Basis Set: 6-31G*
  Basis Set:

  -Total Gradient:
     Atom            X                  Y                   Z
    ------   -----------------  -----------------  -----------------
       1       -0.000314992274     0.006984962963     0.007357293272
       2       -0.000850236304    -0.014230630365    -0.010922814840
       3       -0.000006293362    -0.000033641286    -0.000076898253
       4        0.003633301368     0.014857101264     0.003626360362
       5       -0.000004170350    -0.000009748963    -0.000001663148
       6        0.000036487881     0.000017051504    -0.000006839003
       7        0.000002477243     0.000026110383     0.000010012790
       8       -0.002478231418    -0.007544738199     0.000107953928
       9        0.000041545919    -0.000020048847    -0.000033211096
      10       -0.000102757641     0.000043938124    -0.000078536674
      11       -0.000021145310    -0.000019204469    -0.000060390329
      12        0.000003929303     0.000015377301     0.000001658894
      13        0.000006630239    -0.000021993946     0.000012141671
      14        0.000005283715    -0.000000386500     0.000002559262
      15        0.000009589160    -0.000031425746     0.000005173422
      16        0.000038982958    -0.000023869972     0.000044481503
      17       -0.000000401128    -0.000008853247     0.000012718234

  **** Optimization is complete! (in 8 steps) ****
    Final optimized geometry and variables:
    Molecular point group: c1

    Geometry (in Angstrom), charge = 0, multiplicity = 1:

    O           -1.341621934123     1.200123347177    -0.648563726390
    C           -1.169630659195     0.346663390593     0.157141855726
    C           -2.270153534371    -0.333513341664     0.925083823580
    O            0.041535860058    -0.048582273448     0.561836060316
    H           -2.260802528693    -1.396701612414     0.709554371958
    H           -3.226248276539     0.089782229798     0.655140563047
    H           -2.095213519297    -0.216565585113     1.988382802542
    C            1.027618213736    -0.372637195298    -0.431229570699
    C            1.752016669662    -1.609956790752     0.068653994564
    C            1.950218689572     0.816267890465    -0.645044351396
    H            0.508785104133    -0.594642626503    -1.356027321449
    H            1.058678578455    -2.431220785708     0.210917001089
    H            2.507798873167    -1.917802404812    -0.646611789464
    H            2.238334318327    -1.406328918122     1.016380744930
    H            2.707546603644     0.578901324332    -1.386026048408
    H            1.385546517996     1.673440217546    -0.987081677728
    H            2.448248682807     1.076015297816     0.283484445600

  Mulliken Charges: (a.u.)
   Center  Symbol    Alpha    Beta     Spin     Total
       1     O     4.26992  4.26992  0.00000 -0.53985
       2     C     2.62190  2.62190  0.00000  0.75620
       3     C     3.28247  3.28247  0.00000 -0.56494
       4     O     4.31785  4.31785  0.00000 -0.63570
       5     H     0.40512  0.40512  0.00000  0.18976
       6     H     0.39798  0.39798  0.00000  0.20405
       7     H     0.39849  0.39849  0.00000  0.20303
       8     C     2.92926  2.92926  0.00000  0.14147
       9     C     3.23871  3.23871  0.00000 -0.47742
      10     C     3.24426  3.24426  0.00000 -0.48852
      11     H     0.41297  0.41297  0.00000  0.17406
      12     H     0.41520  0.41520  0.00000  0.16960
      13     H     0.41780  0.41780  0.00000  0.16439
      14     H     0.41180  0.41180  0.00000  0.17639
      15     H     0.42203  0.42203  0.00000  0.15593
      16     H     0.39812  0.39812  0.00000  0.20375
      17     H     0.41610  0.41610  0.00000  0.16779

   Total alpha = 28.00000, Total beta = 28.00000, Total charge =  0.00000
