  ==> Input File <==

--------------------------------------------------------------------------
set {
	reference rhf
	basis cc-pvtz
}

set_num_threads( 4 )
memory 2 gb

molecule MOL {
0 1

H	 0.891547	 0.730104	 2.158197
C	 -0.058468	 0.804107	 1.649566
O	 -0.000000	 0.000000	 0.518769
H	 -0.845096	 0.480856	 2.328227
H	 -0.236098	 1.845531	 1.389299
C	 -1.165153	 0.000000	 -0.236961
H	 -1.229451	 0.882440	 -0.870223
H	 -2.002557	 0.000000	 0.445289
H	 -1.229451	 -0.882440	 -0.870223

	symmetry c1
}
set optking {
	frozen_dihedral = ("
		2 3 6 7
	")
}

ee = optimize('scf')
oeprop('DIPOLE', 'QUADRUPOLE', 'MULLIKEN_CHARGES')
f=open( 'psi4out.xyz', 'w' )
f.write( "9  " )
f.write( str(ee) + "\n" )
f.write( MOL.save_string_xyz() )
f.close()
--------------------------------------------------------------------------

    Molecular point group: c1
  Charge       = 0
  Multiplicity = 1
  Basis Set: CC-PVTZ
  Basis Set:
  @DF-RHF Final Energy:  -154.12518481878624
    Total Energy =                       -154.1251848187862379
    Molecular point group: c1
  Basis Set: CC-PVTZ
  Basis Set:
  Basis Set: CC-PVTZ
  Basis Set:
  @DF-RHF Final Energy:  -154.12611379662275
    Total Energy =                       -154.1261137966227466
  Basis Set: CC-PVTZ
  Basis Set:
  Basis Set: CC-PVTZ
  Basis Set:
  @DF-RHF Final Energy:  -154.12633293772757
    Total Energy =                       -154.1263329377277387
  Basis Set: CC-PVTZ
  Basis Set:
  Charge       = 0
  Multiplicity = 1
  Basis Set: CC-PVTZ
  Basis Set:

    Orbital Energies (a.u.)
    -----------------------

    Doubly Occupied:

       1A    -20.549600     2A    -11.263294     3A    -11.262988
       4A     -1.381723     5A     -0.975972     6A     -0.872531
       7A     -0.663407     8A     -0.655198     9A     -0.646472
      10A     -0.553799    11A     -0.528854    12A     -0.476508
      13A     -0.419236

  @DF-RHF Final Energy:  -154.12633409336803

   => Energetics <=

    Nuclear Repulsion Energy =             84.7914482906536051
    One-Electron Energy =                -377.3364061959765650
    Two-Electron Energy =                 138.4186238119548307
    DFT Exchange-Correlation Energy =       0.0000000000000000
    Empirical Dispersion Energy =           0.0000000000000000
    PCM Polarization Energy =               0.0000000000000000
    EFP Energy =                            0.0000000000000000
    Total Energy =                       -154.1263340933681434
    Molecular point group: c1
  Basis Set: CC-PVTZ
  Basis Set:

  -Total Gradient:
     Atom            X                  Y                   Z
    ------   -----------------  -----------------  -----------------
       1        0.000002725179    -0.000048126991    -0.000053729603
       2       -0.000810717546    -0.001426673212     0.000993381876
       3        0.001315787351     0.001761378579    -0.002086273085
       4       -0.000000294136    -0.000024878991    -0.000003520739
       5        0.000011240160     0.000011334377     0.000022953099
       6       -0.001779482367     0.000963594882     0.002847386558
       7        0.001228242131    -0.001234083082    -0.001745753791
       8       -0.000012828536     0.000005178991     0.000020982511
       9        0.000045327764    -0.000007724554     0.000004573174

  **** Optimization is complete! (in 4 steps) ****
    Final optimized geometry and variables:
    Molecular point group: c1

    Geometry (in Angstrom), charge = 0, multiplicity = 1:

    H            1.335124819252     0.445976488504     1.494338396576
    C            0.379022216596     0.530052029486     0.998314230002
    O            0.412350017435    -0.282017509930    -0.128065486863
    H           -0.402500655900     0.219379532668     1.688094482238
    H            0.212622616242     1.573653051241     0.737858374316
    C           -0.756147399417    -0.271248779434    -0.880845135033
    H           -0.806911036528     0.607049684811    -1.520456979198
    H           -1.642035216911    -0.304186680816    -0.251897064504
    H           -0.750229593714    -1.147575499915    -1.514129387494

  Mulliken Charges: (a.u.)
   Center  Symbol    Alpha    Beta     Spin     Total
       1     H     0.44879  0.44879  0.00000  0.10241
       2     C     3.02176  3.02176  0.00000 -0.04351
       3     O     4.16845  4.16845  0.00000 -0.33690
       4     H     0.47209  0.47209  0.00000  0.05581
       5     H     0.47381  0.47381  0.00000  0.05238
       6     C     3.02080  3.02080  0.00000 -0.04160
       7     H     0.46898  0.46898  0.00000  0.06205
       8     H     0.47512  0.47512  0.00000  0.04976
       9     H     0.45020  0.45020  0.00000  0.09960

   Total alpha = 13.00000, Total beta = 13.00000, Total charge =  0.00000
