  ==> Input File <==

--------------------------------------------------------------------------
set {
	reference rhf
	basis 6-31G*
}

set_num_threads( 4 )
memory 2 gb

molecule MOL {
0 1

O	 -2.330649	 -0.403190	 -1.058660
C	 -1.921153	 0.064240	 -0.045697
C	 -2.779908	 0.630789	 1.052441
O	 -0.632575	 0.154573	 0.251549
H	 -2.525990	 1.671847	 1.215753
H	 -3.821131	 0.542214	 0.780695
H	 -2.590656	 0.097848	 1.977057
C	 0.160891	 -1.019931	 0.106212
C	 1.589627	 -0.672828	 0.480843
H	 0.089836	 -1.367806	 -0.916050
H	 -0.238459	 -1.792301	 0.749618
C	 2.246377	 0.346236	 -0.452210
H	 2.163194	 -1.597435	 0.473358
H	 1.604769	 -0.303424	 1.502885
C	 3.691736	 0.652107	 -0.061850
H	 2.219579	 -0.032311	 -1.472055
H	 1.666466	 1.263317	 -0.447249
H	 4.134505	 1.377213	 -0.737283
H	 4.305508	 -0.243868	 -0.089969
H	 3.748266	 1.059562	 0.943567

	symmetry c1
}
set optking {
	frozen_dihedral = ("
		1 2 4 8
	")
}

ee = optimize('scf')
oeprop('DIPOLE', 'QUADRUPOLE', 'MULLIKEN_CHARGES')
f=open( 'psi4out.xyz', 'w' )
f.write( "20  " )
f.write( str(ee) + "\n" )
f.write( MOL.save_string_xyz() )
f.close()
--------------------------------------------------------------------------

    Molecular point group: c1
  Charge       = 0
  Multiplicity = 1
  Basis Set: 6-31G*
  Basis Set:
  @DF-RHF Final Energy:  -383.93415010185834
    Total Energy =                       -383.9341501018582221
    Molecular point group: c1
  Basis Set: 6-31G*
  Basis Set:
  Basis Set: 6-31G*
  Basis Set:
  @DF-RHF Final Energy:  -383.93141957533231
    Total Energy =                       -383.9314195753327112
  Basis Set: 6-31G*
  Basis Set:
  Basis Set: 6-31G*
  Basis Set:
  @DF-RHF Final Energy:  -383.93483845831855
    Total Energy =                       -383.9348384583183815
  Basis Set: 6-31G*
  Basis Set:
  Basis Set: 6-31G*
  Basis Set:
  @DF-RHF Final Energy:  -383.93491142343652
    Total Energy =                       -383.9349114234362332
  Basis Set: 6-31G*
  Basis Set:
  @DF-RHF Final Energy:  -383.93491647423645
    Total Energy =                       -383.9349164742368430
  Basis Set: 6-31G*
  Basis Set:
  @DF-RHF Final Energy:  -383.93491903300952
    Total Energy =                       -383.9349190330098054
  Basis Set: 6-31G*
  Basis Set:
  Basis Set: 6-31G*
  Basis Set:
  @DF-RHF Final Energy:  -383.93491729936858
    Total Energy =                       -383.9349172993684078
  Basis Set: 6-31G*
  Basis Set:
  Basis Set: 6-31G*
  Basis Set:
  @DF-RHF Final Energy:  -383.93492034856695
    Total Energy =                       -383.9349203485669477
  Basis Set: 6-31G*
  Basis Set:
  Charge       = 0
  Multiplicity = 1
  Basis Set: 6-31G*
  Basis Set:

    Orbital Energies (a.u.)
    -----------------------

    Doubly Occupied:

       1A    -20.590676     2A    -20.550272     3A    -11.376179
       4A    -11.286957     5A    -11.234346     6A    -11.226064
       7A    -11.218620     8A    -11.212125     9A     -1.460935
      10A     -1.363993    11A     -1.084463    12A     -1.025190
      13A     -0.983312    14A     -0.880027    15A     -0.808975
      16A     -0.775013    17A     -0.694144    18A     -0.679643
      19A     -0.659510    20A     -0.630472    21A     -0.607794
      22A     -0.592264    23A     -0.575164    24A     -0.553563
      25A     -0.541970    26A     -0.534378    27A     -0.502108
      28A     -0.483964    29A     -0.476442    30A     -0.473314
      31A     -0.447023    32A     -0.435303

  @DF-RHF Final Energy:  -383.93492048177865

   => Energetics <=

    Nuclear Repulsion Energy =            384.3515546557954963
    One-Electron Energy =               -1284.6445373027436290
    Two-Electron Energy =                 516.3580621651693718
    DFT Exchange-Correlation Energy =       0.0000000000000000
    Empirical Dispersion Energy =           0.0000000000000000
    PCM Polarization Energy =               0.0000000000000000
    EFP Energy =                            0.0000000000000000
    Total Energy =                       -383.9349204817787040
    Molecular point group: c1
  Basis Set: 6-31G*
  Basis Set:

  -Total Gradient:
     Atom            X                  Y                   Z
    ------   -----------------  -----------------  -----------------
       1        0.000628783782     0.008696598733    -0.003464508253
       2       -0.001784424155    -0.014143541839     0.008478490595
       3        0.000041048990     0.000046812388     0.000024830216
       4        0.002957392543     0.007706270833    -0.011755849307
       5        0.000004442681     0.000014373060    -0.000001630604
       6        0.000016871872    -0.000004244576    -0.000005560008
       7       -0.000003682021    -0.000005111552     0.000006526059
       8       -0.001823313844    -0.002365754278     0.006735125135
       9       -0.000032716325     0.000091322143     0.000021677363
      10       -0.000014344727    -0.000017635091    -0.000017595271
      11       -0.000001686961    -0.000015440335    -0.000016160863
      12        0.000013354922    -0.000007927247     0.000003339562
      13       -0.000021388284     0.000003434824    -0.000010913824
      14        0.000011014813     0.000002673337     0.000009941985
      15        0.000004201446     0.000006336836    -0.000006277155
      16        0.000000435804     0.000000304856    -0.000003010935
      17        0.000000991566    -0.000007519368     0.000002660235
      18        0.000002840108     0.000002270714     0.000002143302
      19        0.000001776786     0.000000289822    -0.000002433125
      20       -0.000001598993    -0.000003513258    -0.000000795107

  **** Optimization is complete! (in 9 steps) ****
    Final optimized geometry and variables:
    Molecular point group: c1

    Geometry (in Angstrom), charge = 0, multiplicity = 1:

    O           -2.275889912598    -0.315235464264    -1.121923149933
    C           -1.915581753815     0.079989857638    -0.064530036380
    C           -2.818257850875     0.671595836083     0.982891433551
    O           -0.625665258857     0.146685109913     0.292885612875
    H           -2.482601181835     1.673392766906     1.225337323355
    H           -3.836374280926     0.695914577869     0.623700728226
    H           -2.758387571369     0.080785151601     1.890744862476
    C            0.177097283266    -1.014563473870     0.100033610113
    C            1.613467113573    -0.665194809671     0.440948034764
    H            0.083679499282    -1.348600059735    -0.924416581800
    H           -0.192089702735    -1.798050401120     0.753618165902
    C            2.232920155011     0.372944798213    -0.496089163618
    H            2.192981674832    -1.585543795960     0.404438568695
    H            1.652918516979    -0.309645656390     1.467101068138
    C            3.683219961433     0.693794271338    -0.137134164054
    H            2.185348079752     0.005562335212    -1.518864589313
    H            1.640006143900     1.280871687770    -0.466470226167
    H            4.099561999491     1.431446209568    -0.815699837482
    H            4.308430366277    -0.193307279952    -0.189192913820
    H            3.758919467673     1.092303566306     0.870664851300

  Mulliken Charges: (a.u.)
   Center  Symbol    Alpha    Beta     Spin     Total
       1     O     4.26746  4.26746  0.00000 -0.53492
       2     C     2.61895  2.61895  0.00000  0.76209
       3     C     3.28404  3.28404  0.00000 -0.56808
       4     O     4.31661  4.31661  0.00000 -0.63322
       5     H     0.39853  0.39853  0.00000  0.20294
       6     H     0.39771  0.39771  0.00000  0.20457
       7     H     0.40454  0.40454  0.00000  0.19092
       8     C     3.00454  3.00454  0.00000 -0.00908
       9     C     3.16415  3.16415  0.00000 -0.32830
      10     H     0.40441  0.40441  0.00000  0.19118
      11     H     0.41887  0.41887  0.00000  0.16226
      12     C     3.15506  3.15506  0.00000 -0.31012
      13     H     0.41900  0.41900  0.00000  0.16200
      14     H     0.41475  0.41475  0.00000  0.17049
      15     C     3.24064  3.24064  0.00000 -0.48128
      16     H     0.42096  0.42096  0.00000  0.15808
      17     H     0.40944  0.40944  0.00000  0.18112
      18     H     0.41705  0.41705  0.00000  0.16590
      19     H     0.42226  0.42226  0.00000  0.15547
      20     H     0.42101  0.42101  0.00000  0.15797

   Total alpha = 32.00000, Total beta = 32.00000, Total charge =  0.00000
