  ==> Input File <==

--------------------------------------------------------------------------
set {
	reference rhf
	basis cc-pvtz
}

set_num_threads( 4 )
memory 2 gb

molecule MOL {
0 1

H	 -0.328776	 2.379036	 0.952316
C	 0.528107	 1.718357	 1.139154
C	 0.692262	 0.592428	 0.156232
O	 1.238483	 1.918175	 2.062774
C	 -0.554654	 -0.292621	 0.086567
H	 1.567243	 0.019584	 0.433890
H	 0.874472	 1.036718	 -0.820131
C	 -1.846385	 0.513195	 -0.016346
H	 -0.473986	 -0.956115	 -0.769708
H	 -0.597929	 -0.929215	 0.966651
C	 -3.089953	 -0.365049	 -0.098564
H	 -1.798267	 1.154820	 -0.891143
H	 -1.925398	 1.173265	 0.842889
H	 -3.055079	 -1.012299	 -0.968245
H	 -3.988403	 0.236438	 -0.170014
H	 -3.183055	 -0.995885	 0.779079

	symmetry c1
}
set optking {
	frozen_dihedral = ("
		6 3 5 9
	")
}

ee = optimize('scf')
oeprop('DIPOLE', 'QUADRUPOLE', 'MULLIKEN_CHARGES')
f=open( 'psi4out.xyz', 'w' )
f.write( "16  " )
f.write( str(ee) + "\n" )
f.write( MOL.save_string_xyz() )
f.close()
--------------------------------------------------------------------------

    Molecular point group: c1
  Charge       = 0
  Multiplicity = 1
  Basis Set: CC-PVTZ
  Basis Set:
  @DF-RHF Final Energy:  -270.11325946357283
    Total Energy =                       -270.1132594635728310
    Molecular point group: c1
  Basis Set: CC-PVTZ
  Basis Set:
  Basis Set: CC-PVTZ
  Basis Set:
  @DF-RHF Final Energy:  -270.11383059412816
    Total Energy =                       -270.1138305941281033
  Basis Set: CC-PVTZ
  Basis Set:
  Basis Set: CC-PVTZ
  Basis Set:
  @DF-RHF Final Energy:  -270.11542246912694
    Total Energy =                       -270.1154224691269405
  Basis Set: CC-PVTZ
  Basis Set:
  Basis Set: CC-PVTZ
  Basis Set:
  @DF-RHF Final Energy:  -270.11527467326840
    Total Energy =                       -270.1152746732685159
  Basis Set: CC-PVTZ
  Basis Set:
  @DF-RHF Final Energy:  -270.11556446439272
    Total Energy =                       -270.1155644643927189
  @DF-RHF Final Energy:  -270.11594854512441
    Total Energy =                       -270.1159485451242972
  Basis Set: CC-PVTZ
  Basis Set:
  @DF-RHF Final Energy:  -270.11598641039029
    Total Energy =                       -270.1159864103901214
  Basis Set: CC-PVTZ
  Basis Set:
  Basis Set: CC-PVTZ
  Basis Set:
  @DF-RHF Final Energy:  -270.11602851269618
    Total Energy =                       -270.1160285126964595
  Basis Set: CC-PVTZ
  Basis Set:
  Basis Set: CC-PVTZ
  Basis Set:
  @DF-RHF Final Energy:  -270.11603045452654
    Total Energy =                       -270.1160304545268218
  Basis Set: CC-PVTZ
  Basis Set:
  Charge       = 0
  Multiplicity = 1
  Basis Set: CC-PVTZ
  Basis Set:

    Orbital Energies (a.u.)
    -----------------------

    Doubly Occupied:

       1A    -20.551469     2A    -11.320104     3A    -11.234130
       4A    -11.233457     5A    -11.228215     6A    -11.216853
       7A     -1.405945     8A     -1.096064     9A     -1.017273
      10A     -0.905510    11A     -0.831885    12A     -0.773595
      13A     -0.684820    14A     -0.650410    15A     -0.622970
      16A     -0.603408    17A     -0.583959    18A     -0.558119
      19A     -0.530318    20A     -0.517847    21A     -0.491161
      22A     -0.479772    23A     -0.470996    24A     -0.409959

  @DF-RHF Final Energy:  -270.11603061062237

   => Energetics <=

    Nuclear Repulsion Energy =            233.9931308863652077
    One-Electron Energy =                -829.3818455222738066
    Two-Electron Energy =                 325.2726840252860825
    DFT Exchange-Correlation Energy =       0.0000000000000000
    Empirical Dispersion Energy =           0.0000000000000000
    PCM Polarization Energy =               0.0000000000000000
    EFP Energy =                            0.0000000000000000
    Total Energy =                       -270.1160306106225448
    Molecular point group: c1
  Basis Set: CC-PVTZ
  Basis Set:

  -Total Gradient:
     Atom            X                  Y                   Z
    ------   -----------------  -----------------  -----------------
       1       -0.000016071014    -0.000000378459     0.000000354105
       2        0.000029379004     0.000002825113     0.000001034988
       3        0.000302312659    -0.000391419019    -0.004080200151
       4       -0.000015657980    -0.000005471034    -0.000014177647
       5        0.001587785253    -0.002360120260     0.002874523460
       6       -0.000482672361     0.000664703309     0.003005892327
       7       -0.000007940015     0.000005250063     0.000002551005
       8        0.000011226483     0.000003665679    -0.000020063742
       9       -0.001415473803     0.002068144587    -0.001785621867
      10        0.000007503882     0.000011418537     0.000002181457
      11        0.000001665315    -0.000008324845     0.000006240171
      12       -0.000001865841     0.000004807256    -0.000002155186
      13        0.000000968630     0.000004476267     0.000002775832
      14        0.000000415101     0.000003666505     0.000001408969
      15        0.000000341739     0.000001762560     0.000003121597
      16       -0.000001917047    -0.000005006257     0.000002134681

  **** Optimization is complete! (in 10 steps) ****
    Final optimized geometry and variables:
    Molecular point group: c1

    Geometry (in Angstrom), charge = 0, multiplicity = 1:

    H            0.555590855809     1.966016333585     0.248658341804
    C            1.148323623776     1.093107145489     0.543668124929
    C            1.216816916314    -0.033964935419    -0.455273380372
    O            1.685118023786     1.075692132045     1.597985678894
    C           -0.047907445597    -0.909370013091    -0.458998643709
    H            2.074914095485    -0.634768759501    -0.184796444135
    H            1.373325964706     0.391861294684    -1.441806101611
    C           -1.366868551669    -0.144425800376    -0.579742943883
    H            0.023693595188    -1.587241324667    -1.303123275650
    H           -0.061734156885    -1.514057862506     0.441058808062
    C           -2.567105442255    -1.076469405370    -0.707725917390
    H           -1.327793365154     0.512914288312    -1.444669058480
    H           -1.509381749927     0.494699880292     0.285938465897
    H           -2.484932145343    -1.701247607732    -1.590622228116
    H           -3.491243427635    -0.515853435386    -0.783245465306
    H           -2.646228648311    -1.730659388640     0.153802907338

  Mulliken Charges: (a.u.)
   Center  Symbol    Alpha    Beta     Spin     Total
       1     H     0.46030  0.46030  0.00000  0.07941
       2     C     2.90627  2.90627  0.00000  0.18746
       3     C     3.09193  3.09193  0.00000 -0.18385
       4     O     4.16675  4.16675  0.00000 -0.33350
       5     C     3.09660  3.09660  0.00000 -0.19320
       6     H     0.43839  0.43839  0.00000  0.12322
       7     H     0.44875  0.44875  0.00000  0.10250
       8     C     3.09475  3.09475  0.00000 -0.18950
       9     H     0.44892  0.44892  0.00000  0.10215
      10     H     0.44444  0.44444  0.00000  0.11113
      11     C     3.14859  3.14859  0.00000 -0.29717
      12     H     0.45197  0.45197  0.00000  0.09606
      13     H     0.44918  0.44918  0.00000  0.10163
      14     H     0.45393  0.45393  0.00000  0.09214
      15     H     0.44669  0.44669  0.00000  0.10663
      16     H     0.45255  0.45255  0.00000  0.09490

   Total alpha = 24.00000, Total beta = 24.00000, Total charge = -0.00000
