  ==> Input File <==

--------------------------------------------------------------------------
set {
	reference rhf
	basis 6-31G*
}

set_num_threads( 1 )
memory 2 gb

molecule MOL {
0 1

H	 1.347721	 -1.546973	 0.309195
O	 1.586534	 -0.678666	 -0.000226
C	 0.489431	 0.077273	 0.000046
C	 -0.764129	 -0.759190	 0.000191
O	 0.537743	 1.263962	 0.000257
C	 -2.038368	 0.075731	 -0.000248
H	 -0.717284	 -1.412404	 -0.866059
H	 -0.717458	 -1.411724	 0.866967
H	 -2.086483	 0.712501	 -0.875098
H	 -2.908485	 -0.571682	 -0.000042
H	 -2.086576	 0.713280	 0.874068

	symmetry c1
}
set optking {
	frozen_dihedral = ("
		2 3 4 7
	")
}

ee = energy('scf')
oeprop('DIPOLE', 'QUADRUPOLE', 'MULLIKEN_CHARGES')
f=open( 'psi4out.xyz', 'w' )
f.write( "11  " )
f.write( str(ee) + "\n" )
f.write( MOL.save_string_xyz() )
f.close()
--------------------------------------------------------------------------

    Molecular point group: c1

    Geometry (in Angstrom), charge = 0, multiplicity = 1:

       Center              X                  Y                   Z               Mass
    ------------   -----------------  -----------------  -----------------  -----------------
           H          1.361279423468    -1.527293657956     0.304983403788     1.007825032070
           O          1.600092423468    -0.658986657956    -0.004437596212    15.994914619560
           C          0.502989423468     0.096952342044    -0.004165596212    12.000000000000
           C         -0.750570576532    -0.739510657956    -0.004020596212    12.000000000000
           O          0.551301423468     1.283641342044    -0.003954596212    15.994914619560
           C         -2.024809576532     0.095410342044    -0.004459596212    12.000000000000
           H         -0.703725576532    -1.392724657956    -0.870270596212     1.007825032070
           H         -0.703899576532    -1.392044657956     0.862755403788     1.007825032070
           H         -2.072924576532     0.732180342044    -0.879309596212     1.007825032070
           H         -2.894926576532    -0.552002657956    -0.004253596212     1.007825032070
           H         -2.073017576532     0.732959342044     0.869856403788     1.007825032070

  Charge       = 0
  Multiplicity = 1
  Basis Set: 6-31G*
  Basis Set:

    Orbital Energies (a.u.)
    -----------------------

    Doubly Occupied:

       1A    -20.615194     2A    -20.551556     3A    -11.382097
       4A    -11.256079     5A    -11.227458     6A     -1.472083
       7A     -1.372104     8A     -1.072212     9A     -0.911135
      10A     -0.827408    11A     -0.719514    12A     -0.671762
      13A     -0.660832    14A     -0.614997    15A     -0.593686
      16A     -0.536827    17A     -0.527986    18A     -0.514842
      19A     -0.477965    20A     -0.443119

  @DF-RHF Final Energy:  -266.83208797395883

   => Energetics <=

    Nuclear Repulsion Energy =            180.0722214895224056
    One-Electron Energy =                -720.9108865990702952
    Two-Electron Energy =                 274.0065771355880884
    DFT Exchange-Correlation Energy =       0.0000000000000000
    Empirical Dispersion Energy =           0.0000000000000000
    PCM Polarization Energy =               0.0000000000000000
    EFP Energy =                            0.0000000000000000
    Total Energy =                       -266.8320879739598581

  Mulliken Charges: (a.u.)
   Center  Symbol    Alpha    Beta     Spin     Total
       1     H     0.26798  0.26798  0.00000  0.46403
       2     O     4.34779  4.34779  0.00000 -0.69558
       3     C     2.60801  2.60801  0.00000  0.78397
       4     C     3.23697  3.23697  0.00000 -0.47395
       5     O     4.26634  4.26634  0.00000 -0.53267
       6     C     3.23780  3.23780  0.00000 -0.47559
       7     H     0.39817  0.39817  0.00000  0.20366
       8     H     0.40851  0.40851  0.00000  0.18298
       9     H     0.40516  0.40516  0.00000  0.18967
      10     H     0.41690  0.41690  0.00000  0.16620
      11     H     0.40636  0.40636  0.00000  0.18728

   Total alpha = 20.00000, Total beta = 20.00000, Total charge = -0.00000
