                              Psi4 1.0.54 Driver

  ==> Input File <==

--------------------------------------------------------------------------
set {
	reference rhf
	basis cc-pvtz
}

set_num_threads( 4 )
memory 2 gb

molecule MOL {
0 1

H	 -2.362939	 -1.309000	 -0.383250
C	 -1.359344	 -1.272457	 0.020748
C	 -0.684082	 0.000127	 -0.464918
H	 -0.825835	 -2.151141	 -0.318537
H	 -1.416276	 -1.292399	 1.099455
C	 -1.359089	 1.272668	 0.021259
N	 0.742439	 -0.000109	 0.007333
H	 -0.596914	 0.000345	 -1.538146
H	 -2.362696	 1.309620	 -0.382686
H	 -0.825392	 2.151374	 -0.317674
H	 -1.415983	 1.292181	 1.099973
O	 1.512432	 -0.676481	 -0.587037
O	 1.008185	 0.676226	 0.944478

	symmetry c1
}
set optking {
	frozen_dihedral = ("
		12 7 3 8
	")
}

ee,wfn = optimize('scf', return_wfn=True)
oeprop( wfn, 'DIPOLE', 'QUADRUPOLE', 'MULLIKEN_CHARGES')
f=open( 'psi4out.xyz', 'w' )
f.write( "13  " )
f.write( str(ee) + "\n" )
f.write( MOL.save_string_xyz() )
f.close()
--------------------------------------------------------------------------

    Molecular point group: c1
  Charge       = 0
  Multiplicity = 1
  Basis Set: CC-PVTZ
  Basis Set:
  @DF-RHF Final Energy:  -321.86319086209414
    Total Energy =                       -321.8631908620941999
    Molecular point group: c1
  Basis Set: CC-PVTZ
  Basis Set:
  Basis Set: CC-PVTZ
  Basis Set:
  @DF-RHF Final Energy:  -321.85856053473003
    Total Energy =                       -321.8585605347298610
  Basis Set: CC-PVTZ
  Basis Set:
  Basis Set: CC-PVTZ
  Basis Set:
  @DF-RHF Final Energy:  -321.86220821180450
    Total Energy =                       -321.8622082118043863
  Basis Set: CC-PVTZ
  Basis Set:
  Basis Set: CC-PVTZ
  Basis Set:
  @DF-RHF Final Energy:  -321.86376731990993
    Total Energy =                       -321.8637673199101528
  Basis Set: CC-PVTZ
  Basis Set:
  Basis Set: CC-PVTZ
  Basis Set:
  @DF-RHF Final Energy:  -321.86361095080019
    Total Energy =                       -321.8636109508004211
  Basis Set: CC-PVTZ
  Basis Set:
  Basis Set: CC-PVTZ
  Basis Set:
  @DF-RHF Final Energy:  -321.86391849236645
    Total Energy =                       -321.8639184923664516
  Basis Set: CC-PVTZ
  Basis Set:
  Charge       = 0
  Multiplicity = 1
  Basis Set: CC-PVTZ
  Basis Set:

    Orbital Energies (a.u.)
    -----------------------

    Doubly Occupied:

       1A    -20.590718     2A    -20.586732     3A    -15.833043
       4A    -11.305119     5A    -11.244825     6A    -11.238422
       7A     -1.634092     8A     -1.418300     9A     -1.141843
      10A     -0.972062    11A     -0.957466    12A     -0.815919
      13A     -0.757468    14A     -0.731127    15A     -0.725760
      16A     -0.646909    17A     -0.593674    18A     -0.587577
      19A     -0.571244    20A     -0.528502    21A     -0.521814
      22A     -0.484938    23A     -0.471354    24A     -0.451597

  @DF-RHF Final Energy:  -321.86391937166945

   => Energetics <=

    Nuclear Repulsion Energy =            257.4113308855062314
    One-Electron Energy =                -948.9294906283357705
    Two-Electron Energy =                 369.6542403711600855
    DFT Exchange-Correlation Energy =       0.0000000000000000
    Empirical Dispersion Energy =           0.0000000000000000
    PCM Polarization Energy =               0.0000000000000000
    EFP Energy =                            0.0000000000000000
    Total Energy =                       -321.8639193716694535
    Molecular point group: c1
  Basis Set: CC-PVTZ
  Basis Set:

  -Total Gradient:
     Atom            X                  Y                   Z
    ------   -----------------  -----------------  -----------------
       1        0.000005665236     0.000010294177    -0.000014424434
       2        0.000071349658     0.000039332549    -0.000001657410
       3       -0.000229619057    -0.001510154992     0.000233915533
       4        0.000003171919    -0.000033566215     0.000005526421
       5        0.000005090070     0.000003269129    -0.000011485189
       6       -0.000012262881     0.000061314262     0.000027242438
       7        0.000435764139     0.001131078901    -0.000887469582
       8        0.000095797915     0.001021828366     0.000032440444
       9       -0.000001447713     0.000004693997    -0.000002002100
      10       -0.000004515355     0.000004458457     0.000004859158
      11        0.000002432116    -0.000004029950    -0.000012442233
      12       -0.000299319209    -0.000794925449     0.000574750468
      13       -0.000072106844     0.000066406766     0.000050746486

  **** Optimization is complete! (in 7 steps) ****
    Final optimized geometry and variables:
    Molecular point group: c1

    Geometry (in Angstrom), charge = 0, multiplicity = 1:

    H           -2.392042372982    -1.223580471372    -0.358932930979
    C           -1.373499464725    -1.222572698214     0.006271177379
    C           -0.684986761112     0.055802332787    -0.454601716858
    H           -0.867423883203    -2.096064602738    -0.378006692236
    H           -1.398728365506    -1.274184110048     1.087638284120
    C           -1.355524486587     1.321662518301     0.040933444677
    N            0.746894007469    -0.016189981994     0.005326759819
    H           -0.599578142877     0.064715904121    -1.529757686621
    H           -2.345821950048     1.373019091787    -0.394806439087
    H           -0.805152039173     2.202819228546    -0.258176926623
    H           -1.448291508884     1.325375411584     1.116807405071
    O            1.463382124478    -0.726437719901    -0.618285192765
    O            1.065139430899     0.600959809198     0.964333044872

  Mulliken Charges: (a.u.)
   Center  Symbol    Alpha    Beta     Spin     Total
       1     H     0.44865  0.44865  0.00000  0.10270
       2     C     3.14322  3.14322  0.00000 -0.28645
       3     C     3.00758  3.00758  0.00000 -0.01517
       4     H     0.43429  0.43429  0.00000  0.13143
       5     H     0.44416  0.44416  0.00000  0.11168
       6     C     3.14334  3.14334  0.00000 -0.28667
       7     N     3.27416  3.27416  0.00000  0.45168
       8     H     0.42705  0.42705  0.00000  0.14590
       9     H     0.45018  0.45018  0.00000  0.09963
      10     H     0.43983  0.43983  0.00000  0.12034
      11     H     0.44014  0.44014  0.00000  0.11973
      12     O     4.17547  4.17547  0.00000 -0.35093
      13     O     4.17193  4.17193  0.00000 -0.34386

   Total alpha = 24.00000, Total beta = 24.00000, Total charge = -0.00000

*** Psi4 exiting successfully. Buy a developer a beer!
