  ==> Input File <==

--------------------------------------------------------------------------
set {
	reference rhf
	basis 6-31G*
}

set_num_threads( 4 )
memory 2 gb

molecule MOL {
0 1

H	 0.129065	 -3.479640	 0.339392
O	 0.662010	 -2.691423	 0.377332
C	 -0.140873	 -1.641066	 0.208381
C	 0.624473	 -0.343591	 0.253101
O	 -1.311415	 -1.760838	 0.045586
C	 -0.265902	 0.883932	 0.072916
H	 1.160469	 -0.324199	 1.196343
H	 1.386578	 -0.392873	 -0.520539
C	 -1.728698	 0.646073	 0.462102
H	 -0.209144	 1.219470	 -0.958188
H	 0.135059	 1.692851	 0.673903
C	 -2.482460	 -0.343073	 -0.431425
H	 -2.245265	 1.602650	 0.432430
H	 -1.779332	 0.308348	 1.496285
C	 -3.960546	 -0.461025	 -0.060175
H	 -2.395034	 -0.026811	 -1.468912
H	 -2.024850	 -1.327147	 -0.371646
H	 -4.472726	 -1.168004	 -0.705284
H	 -4.465146	 0.496508	 -0.151489
H	 -4.081218	 -0.800940	 0.964585

	symmetry c1
}
set optking {
	frozen_dihedral = ("
		7 4 6 10
	")
}

ee = optimize('scf')
oeprop('DIPOLE', 'QUADRUPOLE', 'MULLIKEN_CHARGES')
f=open( 'psi4out.xyz', 'w' )
f.write( "20  " )
f.write( str(ee) + "\n" )
f.write( MOL.save_string_xyz() )
f.close()
--------------------------------------------------------------------------

    Molecular point group: c1
  Charge       = 0
  Multiplicity = 1
  Basis Set: 6-31G*
  Basis Set:
  @DF-RHF Final Energy:  -383.65331883221808
    Total Energy =                       -383.6533188322180195
    Molecular point group: c1
  Basis Set: 6-31G*
  Basis Set:
  Basis Set: 6-31G*
  Basis Set:
  @DF-RHF Final Energy:  -383.81223707151867
    Total Energy =                       -383.8122370715186662
  Basis Set: 6-31G*
  Basis Set:
  Basis Set: 6-31G*
  Basis Set:
  @DF-RHF Final Energy:  -383.86259505052891
    Total Energy =                       -383.8625950505290803
  Basis Set: 6-31G*
  Basis Set:
  Basis Set: 6-31G*
  Basis Set:
  @DF-RHF Final Energy:  -383.90445247652593
    Total Energy =                       -383.9044524765259894
  Basis Set: 6-31G*
  Basis Set:
  @DF-RHF Final Energy:  -383.92077172732911
    Total Energy =                       -383.9207717273293383
  @DF-RHF Final Energy:  -383.92841820561279
    Total Energy =                       -383.9284182056129566
  @DF-RHF Final Energy:  -383.93282024820559
    Total Energy =                       -383.9328202482051893
  @DF-RHF Final Energy:  -383.93507514449198
    Total Energy =                       -383.9350751444920888
  @DF-RHF Final Energy:  -383.93620705286372
    Total Energy =                       -383.9362070528634376
  @DF-RHF Final Energy:  -383.93695619776850
    Total Energy =                       -383.9369561977682679
  @DF-RHF Final Energy:  -383.93741835149882
    Total Energy =                       -383.9374183514985361
  @DF-RHF Final Energy:  -383.93786515788099
    Total Energy =                       -383.9378651578809922
  @DF-RHF Final Energy:  -383.93793139488196
    Total Energy =                       -383.9379313948822983
  @DF-RHF Final Energy:  -383.93801787787555
    Total Energy =                       -383.9380178778754953
  @DF-RHF Final Energy:  -383.93805881966637
    Total Energy =                       -383.9380588196665940
  @DF-RHF Final Energy:  -383.93810136122579
    Total Energy =                       -383.9381013612255629
  @DF-RHF Final Energy:  -383.93812326794682
    Total Energy =                       -383.9381232679464802
  @DF-RHF Final Energy:  -383.93814123944179
    Total Energy =                       -383.9381412394420749
  @DF-RHF Final Energy:  -383.93815794822217
    Total Energy =                       -383.9381579482220559
  @DF-RHF Final Energy:  -383.93817249939246
    Total Energy =                       -383.9381724993928628
  @DF-RHF Final Energy:  -383.93827243301320
    Total Energy =                       -383.9382724330131396
  @DF-RHF Final Energy:  -383.93828018492684
    Total Energy =                       -383.9382801849271800
  @DF-RHF Final Energy:  -383.93827484583460
    Total Energy =                       -383.9382748458345986
  @DF-RHF Final Energy:  -383.93828762466478
    Total Energy =                       -383.9382876246648948
  @DF-RHF Final Energy:  -383.93829014589045
    Total Energy =                       -383.9382901458901642
  @DF-RHF Final Energy:  -383.93829216676471
    Total Energy =                       -383.9382921667645405
  @DF-RHF Final Energy:  -383.93829196007681
    Total Energy =                       -383.9382919600768673
  @DF-RHF Final Energy:  -383.93828286839164
    Total Energy =                       -383.9382828683918660
  @DF-RHF Final Energy:  -383.93829341942620
    Total Energy =                       -383.9382934194261452
  @DF-RHF Final Energy:  -383.93829335264263
    Total Energy =                       -383.9382933526430861
  @DF-RHF Final Energy:  -383.93829325800664
    Total Energy =                       -383.9382932580064107
  @DF-RHF Final Energy:  -383.93829321428478
    Total Energy =                       -383.9382932142843856
  @DF-RHF Final Energy:  -383.93829319936765
    Total Energy =                       -383.9382931993677630
  @DF-RHF Final Energy:  -383.93817285124703
    Total Energy =                       -383.9381728512468044
  @DF-RHF Final Energy:  -383.93829317253818
    Total Energy =                       -383.9382931725380104
  @DF-RHF Final Energy:  -383.93829288447307
    Total Energy =                       -383.9382928844726166
  Basis Set: 6-31G*
  Basis Set:
  @DF-RHF Final Energy:  -383.93829108571674
    Total Energy =                       -383.9382910857167417
  Basis Set: 6-31G*
  Basis Set:
  Basis Set: 6-31G*
  Basis Set:
  @DF-RHF Final Energy:  -383.93829255864665
    Total Energy =                       -383.9382925586467081
  Basis Set: 6-31G*
  Basis Set:
  Basis Set: 6-31G*
  Basis Set:
  @DF-RHF Final Energy:  -383.93828952912435
    Total Energy =                       -383.9382895291244040
  Basis Set: 6-31G*
  Basis Set:
  Charge       = 0
  Multiplicity = 1
  Basis Set: 6-31G*
  Basis Set:

    Orbital Energies (a.u.)
    -----------------------

    Doubly Occupied:

       1A    -20.614148     2A    -20.553236     3A    -11.384427
       4A    -11.242955     5A    -11.227085     6A    -11.212304
       7A    -11.203070     8A    -11.199703     9A     -1.476876
      10A     -1.367196    11A     -1.086529    12A     -1.035313
      13A     -0.954550    14A     -0.870335    15A     -0.805745
      16A     -0.776918    17A     -0.703738    18A     -0.686204
      19A     -0.659318    20A     -0.627780    21A     -0.599776
      22A     -0.587889    23A     -0.559258    24A     -0.553559
      25A     -0.548257    26A     -0.498292    27A     -0.493915
      28A     -0.480146    29A     -0.465102    30A     -0.457185
      31A     -0.449173    32A     -0.435446

  @DF-RHF Final Energy:  -383.93829239553276

   => Energetics <=

    Nuclear Repulsion Energy =            388.0894424041202342
    One-Electron Energy =               -1292.4246069841626650
    Two-Electron Energy =                 520.3968721845101300
    DFT Exchange-Correlation Energy =       0.0000000000000000
    Empirical Dispersion Energy =           0.0000000000000000
    PCM Polarization Energy =               0.0000000000000000
    EFP Energy =                            0.0000000000000000
    Total Energy =                       -383.9382923955322440
    Molecular point group: c1
  Basis Set: 6-31G*
  Basis Set:

  -Total Gradient:
     Atom            X                  Y                   Z
    ------   -----------------  -----------------  -----------------
       1       -0.000038660972    -0.000107024276     0.000038421523
       2        0.000135569495    -0.000058471085    -0.000189177046
       3        0.000167684119     0.000306054986    -0.000394040309
       4       -0.004643731531    -0.003548308346     0.005664752847
       5       -0.000118418645    -0.000052063931     0.000409149233
       6       -0.004524362388    -0.005631836613    -0.002145936174
       7        0.004432771031     0.003497559346    -0.003688343346
       8       -0.000023331969     0.000320649060    -0.000172296765
       9       -0.000604007503     0.000149509577    -0.000095879247
      10        0.004754565121     0.005225274372     0.000537959448
      11        0.000315973186    -0.000085733127    -0.000211573108
      12        0.000023087533    -0.000154545369     0.000677513511
      13        0.000031299779    -0.000037064669     0.000029918059
      14       -0.000009435403     0.000020704438     0.000067916385
      15        0.000168193730     0.000039928532    -0.000167459754
      16       -0.000038936490     0.000019671156    -0.000023185361
      17        0.000026222374     0.000128693762    -0.000372548275
      18       -0.000011630416    -0.000012632284     0.000050861064
      19        0.000020145601     0.000027797486    -0.000028317316
      20       -0.000062996656    -0.000048163013     0.000012264629

    Molecular point group: c1

    Geometry (in Angstrom), charge = 0, multiplicity = 1:

    H            1.875533214579    -2.654800741232     0.864969469629
    O            2.164800768032    -1.747808602226     0.846404475281
    C            1.232893571451    -1.031144475629     0.218740066432
    C            1.651044703105     0.408698509379     0.090208394246
    O            0.238924856737    -1.529063140478    -0.201147278243
    C            0.587726935004     1.454127966062    -0.301068809170
    H            2.184121142940     0.707966328981     0.985241948160
    H            2.425929008642     0.400551765963    -0.675357800848
    C           -0.842811695056     1.286411990755     0.254468329240
    H            0.579532547799     1.574279452462    -1.379619596992
    H            0.987818233831     2.398970060758     0.056475939603
    C           -1.872048477315     0.866193568340    -0.797442167596
    H           -1.160793494351     2.232216086631     0.686384888350
    H           -0.848710635228     0.569506635873     1.069318452326
    C           -3.264802398022     0.658626230948    -0.206863046327
    H           -1.919862458209     1.634811896109    -1.567331290793
    H           -1.541912464077    -0.044444470051    -1.281869771168
    H           -3.980691675225     0.386887394626    -0.976409665087
    H           -3.628504527870     1.560779012417     0.278464182424
    H           -3.259033984013    -0.135941303876     0.533390941839

  Mulliken Charges: (a.u.)
   Center  Symbol    Alpha    Beta     Spin     Total
       1     H     0.26760  0.26760  0.00000  0.46480
       2     O     4.34944  4.34944  0.00000 -0.69888
       3     C     2.62426  2.62426  0.00000  0.75148
       4     C     3.21561  3.21561  0.00000 -0.43121
       5     O     4.28049  4.28049  0.00000 -0.56097
       6     C     3.15590  3.15590  0.00000 -0.31180
       7     H     0.39622  0.39622  0.00000  0.20755
       8     H     0.39568  0.39568  0.00000  0.20865
       9     C     3.15337  3.15337  0.00000 -0.30674
      10     H     0.41279  0.41279  0.00000  0.17443
      11     H     0.41604  0.41604  0.00000  0.16793
      12     C     3.15341  3.15341  0.00000 -0.30683
      13     H     0.42259  0.42259  0.00000  0.15481
      14     H     0.41836  0.41836  0.00000  0.16328
      15     C     3.24112  3.24112  0.00000 -0.48224
      16     H     0.42872  0.42872  0.00000  0.14256
      17     H     0.40296  0.40296  0.00000  0.19407
      18     H     0.42040  0.42040  0.00000  0.15920
      19     H     0.42546  0.42546  0.00000  0.14908
      20     H     0.41960  0.41960  0.00000  0.16080

   Total alpha = 32.00000, Total beta = 32.00000, Total charge =  0.00000
