                              Psi4 1.0.54 Driver

  ==> Input File <==

--------------------------------------------------------------------------
set {
	reference rhf
	basis cc-pvtz
}

set_num_threads( 4 )
memory 2 gb

molecule MOL {
0 1

H	 2.867672	 -0.456275	 0.875795
C	 2.403497	 -0.020426	 0.000000
N	 0.989899	 -0.304564	 0.000000
H	 2.867672	 -0.456275	 -0.875795
H	 2.620366	 1.051270	 0.000000
C	 0.218958	 0.722753	 -0.669205
C	 0.473633	 -0.544269	 1.331758
H	 0.332848	 1.693047	 -0.175946
H	 0.574442	 0.828834	 -1.687588
C	 -1.249396	 0.343419	 -0.686085
H	 1.015982	 -1.367844	 1.781546
H	 0.606680	 0.330725	 1.975519
C	 -1.001264	 -0.891049	 1.263465
H	 -1.843616	 1.145460	 -1.101127
H	 -1.388819	 -0.543261	 -1.301275
O	 -1.724418	 0.106939	 0.606036
H	 -1.416124	 -0.981328	 2.257632
H	 -1.127847	 -1.841609	 0.749159

	symmetry c1
}
set optking {
	frozen_dihedral = ("
		6 3 2 5
	")
}

ee,wfn = optimize('scf', return_wfn=True)
oeprop( wfn, 'DIPOLE', 'QUADRUPOLE', 'MULLIKEN_CHARGES')
f=open( 'psi4out.xyz', 'w' )
f.write( "18  " )
f.write( str(ee) + "\n" )
f.write( MOL.save_string_xyz() )
f.close()
--------------------------------------------------------------------------

    Molecular point group: c1
  Charge       = 0
  Multiplicity = 1
  Basis Set: CC-PVTZ
  Basis Set:
  @DF-RHF Final Energy:  -325.14208864422056
    Total Energy =                       -325.1420886442207916
    Molecular point group: c1
  Basis Set: CC-PVTZ
  Basis Set:
  Basis Set: CC-PVTZ
  Basis Set:
  @DF-RHF Final Energy:  -325.14230578520670
    Total Energy =                       -325.1423057852070428
  Basis Set: CC-PVTZ
  Basis Set:
  Basis Set: CC-PVTZ
  Basis Set:
  @DF-RHF Final Energy:  -325.14234284992682
    Total Energy =                       -325.1423428499268766
  Basis Set: CC-PVTZ
  Basis Set:
  Charge       = 0
  Multiplicity = 1
  Basis Set: CC-PVTZ
  Basis Set:

    Orbital Energies (a.u.)
    -----------------------

    Doubly Occupied:

       1A    -20.547251     2A    -15.544027     3A    -11.264049
       4A    -11.263906     5A    -11.242517     6A    -11.242452
       7A    -11.238952     8A     -1.386267     9A     -1.231857
      10A     -1.038634    11A     -0.981464    12A     -0.883307
      13A     -0.870163    14A     -0.775111    15A     -0.684758
      16A     -0.645981    17A     -0.644314    18A     -0.633566
      19A     -0.629435    20A     -0.573484    21A     -0.558444
      22A     -0.542544    23A     -0.527813    24A     -0.500801
      25A     -0.484188    26A     -0.453512    27A     -0.409982
      28A     -0.354971

  @DF-RHF Final Energy:  -325.14234431689994

   => Energetics <=

    Nuclear Repulsion Energy =            341.7079425602036622
    One-Electron Energy =               -1119.3930772807721041
    Two-Electron Energy =                 452.5427904036687323
    DFT Exchange-Correlation Energy =       0.0000000000000000
    Empirical Dispersion Energy =           0.0000000000000000
    PCM Polarization Energy =               0.0000000000000000
    EFP Energy =                            0.0000000000000000
    Total Energy =                       -325.1423443168996528
    Molecular point group: c1
  Basis Set: CC-PVTZ
  Basis Set:

  -Total Gradient:
     Atom            X                  Y                   Z
    ------   -----------------  -----------------  -----------------
       1        0.000009485878    -0.000003031074     0.000007987654
       2       -0.000096706319     0.000631926969     0.007659694165
       3        0.000507535552    -0.002404264595    -0.005839161493
       4        0.000001222015    -0.000001736119    -0.000025027170
       5       -0.000040828002     0.000037156948    -0.004998623757
       6       -0.000310852139     0.001710994529     0.003318113247
       7        0.000027512505    -0.000018288550    -0.000144894839
       8        0.000010511660     0.000021331855    -0.000003289914
       9       -0.000003751648     0.000002980630     0.000006923225
      10       -0.000025135354     0.000009065520    -0.000037150042
      11       -0.000002298700     0.000013672429    -0.000004616122
      12       -0.000007406498    -0.000001909246     0.000001277938
      13       -0.000023782735    -0.000013735222     0.000064941488
      14       -0.000021734427     0.000001616780     0.000006129212
      15       -0.000006698279    -0.000001798443     0.000003003335
      16        0.000015392792    -0.000005711672    -0.000021405385
      17       -0.000036384179    -0.000006039013     0.000014104617
      18        0.000003917873     0.000027768277    -0.000008006157

  **** Optimization is complete! (in 4 steps) ****
    Final optimized geometry and variables:
    Molecular point group: c1

    Geometry (in Angstrom), charge = 0, multiplicity = 1:

    H            2.890305782684    -0.396396434302     0.560006410539
    C            2.395997761732     0.062154639483    -0.285183985279
    N            0.975799362809    -0.229188268810    -0.270574555479
    H            2.848382083148    -0.334080631576    -1.188350980526
    H            2.602379969640     1.132360088774    -0.277567257967
    C            0.199120341104     0.806080483985    -0.922476073569
    C            0.458784654731    -0.464974224187     1.064442771455
    H            0.312136417520     1.766433743440    -0.411157606493
    H            0.553503970185     0.933334430205    -1.939594129164
    C           -1.268263652602     0.424487329095    -0.947755881832
    H            0.999718014486    -1.287421601126     1.516992013214
    H            0.585049544137     0.410756799121     1.708324016338
    C           -1.014427018078    -0.819750103509     0.994127716424
    H           -1.862180519923     1.230372057419    -1.356119681400
    H           -1.404967095304    -0.455739307288    -1.572760703049
    O           -1.745568992544     0.174938674914     0.340806348574
    H           -1.428467098525    -0.917555974126     1.988095302360
    H           -1.133202764015    -1.769277109636     0.475868410018

  Mulliken Charges: (a.u.)
   Center  Symbol    Alpha    Beta     Spin     Total
       1     H     0.45417  0.45417  0.00000  0.09166
       2     C     3.09347  3.09347  0.00000 -0.18694
       3     N     3.61929  3.61929  0.00000 -0.23859
       4     H     0.44925  0.44925  0.00000  0.10150
       5     H     0.46585  0.46585  0.00000  0.06830
       6     C     3.04260  3.04260  0.00000 -0.08519
       7     C     3.03990  3.03990  0.00000 -0.07980
       8     H     0.46787  0.46787  0.00000  0.06425
       9     H     0.45383  0.45383  0.00000  0.09234
      10     C     2.98402  2.98402  0.00000  0.03196
      11     H     0.45408  0.45408  0.00000  0.09185
      12     H     0.46928  0.46928  0.00000  0.06145
      13     C     2.98441  2.98441  0.00000  0.03119
      14     H     0.45002  0.45002  0.00000  0.09997
      15     H     0.46770  0.46770  0.00000  0.06460
      16     O     4.18648  4.18648  0.00000 -0.37296
      17     H     0.44989  0.44989  0.00000  0.10022
      18     H     0.46790  0.46790  0.00000  0.06419

   Total alpha = 28.00000, Total beta = 28.00000, Total charge = -0.00000

*** Psi4 exiting successfully. Buy a developer a beer!
