  ==> Input File <==

--------------------------------------------------------------------------
set {
	reference rhf
	basis 6-31G*
}

set_num_threads( 4 )
memory 2 gb

molecule MOL {
0 1

H	 1.216412	 -2.302012	 0.179799
C	 0.246841	 -1.832300	 0.216651
O	 0.464886	 -0.454746	 -0.000158
H	 -0.199321	 -2.007800	 1.188332
H	 -0.384550	 -2.253196	 -0.556817
C	 -0.590998	 0.343045	 0.000118
O	 -1.699443	 -0.054298	 0.000227
H	 -0.340329	 1.404368	 0.000207

	symmetry c1
}
set optking {
	frozen_dihedral = ("
		2 3 6 7
	")
}

ee = optimize('scf')
oeprop('DIPOLE', 'QUADRUPOLE', 'MULLIKEN_CHARGES')
f=open( 'psi4out.xyz', 'w' )
f.write( "8  " )
f.write( str(ee) + "\n" )
f.write( MOL.save_string_xyz() )
f.close()
--------------------------------------------------------------------------

    Molecular point group: c1
  Charge       = 0
  Multiplicity = 1
  Basis Set: 6-31G*
  Basis Set:
  @DF-RHF Final Energy:  -227.78720374096213
    Total Energy =                       -227.7872037409621555
    Molecular point group: c1
  Basis Set: 6-31G*
  Basis Set:
  Basis Set: 6-31G*
  Basis Set:
  @DF-RHF Final Energy:  -227.78681993778315
    Total Energy =                       -227.7868199377831218
  Basis Set: 6-31G*
  Basis Set:
  Basis Set: 6-31G*
  Basis Set:
  @DF-RHF Final Energy:  -227.78543434229405
    Total Energy =                       -227.7854343422941383
  Basis Set: 6-31G*
  Basis Set:
  Basis Set: 6-31G*
  Basis Set:
  @DF-RHF Final Energy:  -227.78841029927929
    Total Energy =                       -227.7884102992791497
  Basis Set: 6-31G*
  Basis Set:
  Basis Set: 6-31G*
  Basis Set:
  @DF-RHF Final Energy:  -227.78843068027896
    Total Energy =                       -227.7884306802788501
  Basis Set: 6-31G*
  Basis Set:
  Charge       = 0
  Multiplicity = 1
  Basis Set: 6-31G*
  Basis Set:

    Orbital Energies (a.u.)
    -----------------------

    Doubly Occupied:

       1A    -20.616665     2A    -20.560031     3A    -11.380632
       4A    -11.289258     5A     -1.479372     6A     -1.376658
       7A     -0.997862     8A     -0.819338     9A     -0.744882
      10A     -0.681298    11A     -0.679936    12A     -0.600934
      13A     -0.557833    14A     -0.533354    15A     -0.465441
      16A     -0.458590

  @DF-RHF Final Energy:  -227.78843276193993

   => Energetics <=

    Nuclear Repulsion Energy =            123.7342408935344196
    One-Electron Energy =                -556.5611764211046193
    Two-Electron Energy =                 205.0385027656303123
    DFT Exchange-Correlation Energy =       0.0000000000000000
    Empirical Dispersion Energy =           0.0000000000000000
    PCM Polarization Energy =               0.0000000000000000
    EFP Energy =                            0.0000000000000000
    Total Energy =                       -227.7884327619398732
    Molecular point group: c1
  Basis Set: 6-31G*
  Basis Set:

  -Total Gradient:
     Atom            X                  Y                   Z
    ------   -----------------  -----------------  -----------------
       1       -0.000001427226    -0.000039146898     0.000011497020
       2        0.000476456431     0.000547457715     0.002826880972
       3       -0.000609024960    -0.000787137253    -0.006243129024
       4       -0.000005002670    -0.000012888223     0.000001193700
       5       -0.000008880197    -0.000030649630     0.000010033951
       6        0.000166734429     0.000292951661     0.007177337928
       7       -0.000029315166     0.000036976229    -0.003823610170
       8        0.000010459360    -0.000007563599     0.000039795623

  **** Optimization is complete! (in 6 steps) ****
    Final optimized geometry and variables:
    Molecular point group: c1

    Geometry (in Angstrom), charge = 0, multiplicity = 1:

    H            1.633108372159    -1.766523431900     0.137456487607
    C            0.653562926852    -1.315954627144     0.141435545286
    O            0.862659260747     0.069609966756    -0.083056248044
    H            0.171923596040    -1.472279691812     1.096036239280
    H            0.042103823631    -1.739599009170    -0.641827678671
    C           -0.200850042503     0.846184639457    -0.050256946447
    O           -1.324822921058     0.477542109788    -0.016974810394
    H            0.097362124355     1.888172383771    -0.089747516048

  Mulliken Charges: (a.u.)
   Center  Symbol    Alpha    Beta     Spin     Total
       1     H     0.40581  0.40581  0.00000  0.18839
       2     C     3.09587  3.09587  0.00000 -0.19174
       3     O     4.28473  4.28473  0.00000 -0.56946
       4     H     0.40806  0.40806  0.00000  0.18388
       5     H     0.40554  0.40554  0.00000  0.18892
       6     C     2.72917  2.72917  0.00000  0.54166
       7     O     4.26105  4.26105  0.00000 -0.52210
       8     H     0.40978  0.40978  0.00000  0.18044

   Total alpha = 16.00000, Total beta = 16.00000, Total charge =  0.00000
