                              Psi4 1.0.54 Driver

  ==> Input File <==

--------------------------------------------------------------------------
set {
	reference rhf
	basis cc-pvtz
}

set_num_threads( 4 )
memory 2 gb

molecule MOL {
0 1

H	 -2.816458	 -0.841657	 -0.064679
N	 -1.878861	 -0.711874	 0.250184
C	 -1.341419	 0.551458	 -0.220231
H	 -1.333674	 -1.468530	 -0.105118
C	 0.082190	 0.731516	 0.254705
H	 -1.357065	 0.652078	 -1.304747
H	 -1.939897	 1.357530	 0.189797
O	 0.881195	 -0.248324	 -0.336237
H	 0.440901	 1.722476	 -0.020063
H	 0.119896	 0.643586	 1.338114
C	 2.238772	 0.045057	 -0.347708
H	 2.752176	 -0.775542	 -0.827729
H	 2.443703	 0.957838	 -0.903161
H	 2.629259	 0.161146	 0.660561

	symmetry c1
}
set optking {
	frozen_dihedral = ("
		11 8 5 3
	")
}

ee,wfn = optimize('scf', return_wfn=True)
oeprop( wfn, 'DIPOLE', 'QUADRUPOLE', 'MULLIKEN_CHARGES')
f=open( 'psi4out.xyz', 'w' )
f.write( "14  " )
f.write( str(ee) + "\n" )
f.write( MOL.save_string_xyz() )
f.close()
--------------------------------------------------------------------------

    Molecular point group: c1
  Charge       = 0
  Multiplicity = 1
  Basis Set: CC-PVTZ
  Basis Set:
  @DF-RHF Final Energy:  -248.22493984954622
    Total Energy =                       -248.2249398495463311
    Molecular point group: c1
  Basis Set: CC-PVTZ
  Basis Set:
  Basis Set: CC-PVTZ
  Basis Set:
  @DF-RHF Final Energy:  -248.22498998649093
    Total Energy =                       -248.2249899864909821
  Basis Set: CC-PVTZ
  Basis Set:
  Basis Set: CC-PVTZ
  Basis Set:
  @DF-RHF Final Energy:  -248.22499633335138
    Total Energy =                       -248.2249963333514415
  Basis Set: CC-PVTZ
  Basis Set:
  Charge       = 0
  Multiplicity = 1
  Basis Set: CC-PVTZ
  Basis Set:

    Orbital Energies (a.u.)
    -----------------------

    Doubly Occupied:

       1A    -20.550063     2A    -15.523074     3A    -11.264411
       4A    -11.264064     5A    -11.239847     6A     -1.383707
       7A     -1.175590     8A     -1.000462     9A     -0.908908
      10A     -0.815132    11A     -0.683453    12A     -0.677863
      13A     -0.646538    14A     -0.611342    15A     -0.608633
      16A     -0.542520    17A     -0.531864    18A     -0.498090
      19A     -0.474216    20A     -0.418957    21A     -0.383220

  @DF-RHF Final Energy:  -248.22499659602462

   => Energetics <=

    Nuclear Repulsion Energy =            194.4219146037818575
    One-Electron Energy =                -722.8899147619522410
    Two-Electron Energy =                 280.2430035621457023
    DFT Exchange-Correlation Energy =       0.0000000000000000
    Empirical Dispersion Energy =           0.0000000000000000
    PCM Polarization Energy =               0.0000000000000000
    EFP Energy =                            0.0000000000000000
    Total Energy =                       -248.2249965960247096
    Molecular point group: c1
  Basis Set: CC-PVTZ
  Basis Set:

  -Total Gradient:
     Atom            X                  Y                   Z
    ------   -----------------  -----------------  -----------------
       1        0.000002817040     0.000014635445     0.000000664682
       2        0.000001328224    -0.000021622322    -0.000002931422
       3        0.000343535445     0.001223817262    -0.001532912231
       4       -0.000000457112     0.000008065531     0.000002967277
       5       -0.000578669868    -0.001221307064     0.001231443543
       6        0.000013639883    -0.000009106886     0.000014741884
       7       -0.000013578131    -0.000005299182     0.000002244894
       8        0.000466582490    -0.000970911642     0.002322528405
       9       -0.000000771269     0.000008172531    -0.000004774662
      10       -0.000000656166    -0.000005162907    -0.000020430320
      11       -0.000219309502     0.000982879978    -0.002020795322
      12        0.000011740640    -0.000003039260     0.000002689765
      13       -0.000009890987     0.000000187526     0.000008759953
      14       -0.000016310686    -0.000001309010    -0.000004196445

  **** Optimization is complete! (in 4 steps) ****
    Final optimized geometry and variables:
    Molecular point group: c1

    Geometry (in Angstrom), charge = 0, multiplicity = 1:

    H           -2.817922403229    -0.910812221461     0.016904048972
    N           -1.883718909359    -0.774120908503     0.338769786893
    C           -1.351721682191     0.493567108019    -0.126012245936
    H           -1.330499851363    -1.527385406060    -0.011508876394
    C            0.073940748846     0.677644070106     0.342652032040
    H           -1.369491559361     0.599724651751    -1.209978814880
    H           -1.952450380019     1.294959076651     0.290455328732
    O            0.875480302726    -0.305294937750    -0.243366921531
    H            0.419935850957     1.666710521800     0.047944078444
    H            0.126601158501     0.607256751689     1.426179931553
    C            2.234228959699    -0.018487257134    -0.264882776418
    H            2.741733173692    -0.851221460430    -0.730132403217
    H            2.439636389623     0.882186928691    -0.838664937908
    H            2.632737435601     0.114454172491     0.738646237860

  Mulliken Charges: (a.u.)
   Center  Symbol    Alpha    Beta     Spin     Total
       1     H     0.43051  0.43051  0.00000  0.13898
       2     N     3.69362  3.69362  0.00000 -0.38723
       3     C     3.02065  3.02065  0.00000 -0.04129
       4     H     0.42225  0.42225  0.00000  0.15551
       5     C     2.96771  2.96771  0.00000  0.06457
       6     H     0.46651  0.46651  0.00000  0.06698
       7     H     0.45974  0.45974  0.00000  0.08052
       8     O     4.18040  4.18040  0.00000 -0.36081
       9     H     0.47309  0.47309  0.00000  0.05383
      10     H     0.46489  0.46489  0.00000  0.07022
      11     C     3.03075  3.03075  0.00000 -0.06149
      12     H     0.44841  0.44841  0.00000  0.10318
      13     H     0.47086  0.47086  0.00000  0.05829
      14     H     0.47062  0.47062  0.00000  0.05876

   Total alpha = 21.00000, Total beta = 21.00000, Total charge =  0.00000

*** Psi4 exiting successfully. Buy a developer a beer!
