                              Psi4 1.0.54 Driver

  ==> Input File <==

--------------------------------------------------------------------------
set {
	reference rhf
	basis cc-pvtz
}

set_num_threads( 4 )
memory 2 gb

molecule MOL {
0 1

H	 1.728373	 1.962570	 -2.461089
O	 0.965586	 1.873596	 -1.920448
C	 1.278443	 1.149503	 -0.758628
C	 0.027642	 1.012027	 0.090274
H	 2.041879	 1.667902	 -0.184000
H	 1.674997	 0.171436	 -1.016681
C	 -1.138737	 0.285728	 -0.581921
H	 -0.294762	 2.008204	 0.375220
H	 0.301462	 0.495869	 1.007235
C	 -1.933983	 -0.631436	 0.343653
H	 -0.763151	 -0.285569	 -1.422081
H	 -1.808359	 1.035291	 -0.992333
H	 -2.789188	 -1.049673	 -0.174718
H	 -1.335629	 -1.461368	 0.700418
H	 -2.305435	 -0.092167	 1.209725

	symmetry c1
}
set optking {
	frozen_dihedral = ("
		8 4 7 11
	")
}

ee,wfn = optimize('scf', return_wfn=True)
oeprop( wfn, 'DIPOLE', 'QUADRUPOLE', 'MULLIKEN_CHARGES')
f=open( 'psi4out.xyz', 'w' )
f.write( "15  " )
f.write( str(ee) + "\n" )
f.write( MOL.save_string_xyz() )
f.close()
--------------------------------------------------------------------------

    Molecular point group: c1
  Charge       = 0
  Multiplicity = 1
  Basis Set: CC-PVTZ
  Basis Set:
  @DF-RHF Final Energy:  -232.23477600705957
    Total Energy =                       -232.2347760070595086
    Molecular point group: c1
  Basis Set: CC-PVTZ
  Basis Set:
  Basis Set: CC-PVTZ
  Basis Set:
  @DF-RHF Final Energy:  -232.23528417838708
    Total Energy =                       -232.2352841783870758
  Basis Set: CC-PVTZ
  Basis Set:
  Basis Set: CC-PVTZ
  Basis Set:
  @DF-RHF Final Energy:  -232.23534021760048
    Total Energy =                       -232.2353402176004238
  Basis Set: CC-PVTZ
  Basis Set:
  Basis Set: CC-PVTZ
  Basis Set:
  @DF-RHF Final Energy:  -232.23534144710817
    Total Energy =                       -232.2353414471082829
  Basis Set: CC-PVTZ
  Basis Set:
  Charge       = 0
  Multiplicity = 1
  Basis Set: CC-PVTZ
  Basis Set:

    Orbital Energies (a.u.)
    -----------------------

    Doubly Occupied:

       1A    -20.546215     2A    -11.265810     3A    -11.210441
       4A    -11.207762     5A    -11.204178     6A     -1.364223
       7A     -1.064554     8A     -0.975460     9A     -0.857787
      10A     -0.787422    11A     -0.706429    12A     -0.647464
      13A     -0.603488    14A     -0.589528    15A     -0.552168
      16A     -0.538425    17A     -0.506262    18A     -0.477017
      19A     -0.469327    20A     -0.453383    21A     -0.432989

  @DF-RHF Final Energy:  -232.23534194237374

   => Energetics <=

    Nuclear Repulsion Energy =            188.8553449764642096
    One-Electron Energy =                -689.2607034410913229
    Two-Electron Energy =                 268.1700165222532632
    DFT Exchange-Correlation Energy =       0.0000000000000000
    Empirical Dispersion Energy =           0.0000000000000000
    PCM Polarization Energy =               0.0000000000000000
    EFP Energy =                            0.0000000000000000
    Total Energy =                       -232.2353419423738501
    Molecular point group: c1
  Basis Set: CC-PVTZ
  Basis Set:

  -Total Gradient:
     Atom            X                  Y                   Z
    ------   -----------------  -----------------  -----------------
       1       -0.000004966141     0.000002443001     0.000010429647
       2       -0.000027823390     0.000032491831    -0.000024053482
       3        0.000051997398    -0.000033925922    -0.000017588396
       4       -0.001560643857    -0.000891501000     0.003545386324
       5       -0.000010794946    -0.000012443114     0.000006199290
       6        0.000002108209    -0.000007554156     0.000026199221
       7        0.000898208133    -0.003293860266     0.002011129892
       8        0.001141303087     0.001283109353    -0.003285627264
       9       -0.000003172119     0.000004554833    -0.000016497660
      10       -0.000001083409    -0.000024257048    -0.000006895759
      11       -0.000498533037     0.002902775028    -0.002241274856
      12        0.000000422081     0.000012972735     0.000001834530
      13        0.000017086436     0.000005736973     0.000007853985
      14       -0.000005791427     0.000009297179    -0.000007590152
      15        0.000001682982     0.000010160571    -0.000009505324

  **** Optimization is complete! (in 5 steps) ****
    Final optimized geometry and variables:
    Molecular point group: c1

    Geometry (in Angstrom), charge = 0, multiplicity = 1:

    H            1.802893815583     1.215886281448    -1.876260753097
    O            1.063335752610     1.145902291009    -1.301731019291
    C            1.397236835428     0.381434723286    -0.172472006381
    C            0.165494122185     0.238422630524     0.700662159808
    H            2.192002857895     0.864851567426     0.390459421902
    H            1.755068086910    -0.601937746982    -0.471515036950
    C           -0.994871199915    -0.494001092276     0.008291450649
    H           -0.143711411103     1.239097740726     0.983025585039
    H            0.457760368968    -0.283639330047     1.606674685511
    C           -1.798642725592    -1.382022469858     0.950972935649
    H           -0.614855921153    -1.073784770411    -0.826589073704
    H           -1.655022786518     0.238081510026    -0.442200868659
    H           -2.629669050368    -1.850939822078     0.436519760220
    H           -1.181339296708    -2.169627958971     1.370922884414
    H           -2.204314755648    -0.807332549497     1.777512935106

  Mulliken Charges: (a.u.)
   Center  Symbol    Alpha    Beta     Spin     Total
       1     H     0.39594  0.39594  0.00000  0.20813
       2     O     4.19979  4.19979  0.00000 -0.39957
       3     C     2.97240  2.97240  0.00000  0.05519
       4     C     3.09037  3.09037  0.00000 -0.18075
       5     H     0.46608  0.46608  0.00000  0.06783
       6     H     0.47449  0.47449  0.00000  0.05102
       7     C     3.08123  3.08123  0.00000 -0.16247
       8     H     0.45096  0.45096  0.00000  0.09808
       9     H     0.45510  0.45510  0.00000  0.08980
      10     C     3.14889  3.14889  0.00000 -0.29778
      11     H     0.45418  0.45418  0.00000  0.09163
      12     H     0.44846  0.44846  0.00000  0.10309
      13     H     0.44944  0.44944  0.00000  0.10113
      14     H     0.45778  0.45778  0.00000  0.08444
      15     H     0.45490  0.45490  0.00000  0.09021

   Total alpha = 21.00000, Total beta = 21.00000, Total charge =  0.00000

*** Psi4 exiting successfully. Buy a developer a beer!
