                              Psi4 1.0.54 Driver

  ==> Input File <==

--------------------------------------------------------------------------
set {
	reference rhf
	basis cc-pvtz
}

set_num_threads( 4 )
memory 2 gb

molecule MOL {
0 1

H	 3.461015	 -0.684047	 -1.115459
O	 2.551350	 -0.893648	 -0.966219
C	 2.076458	 -0.067370	 -0.038225
C	 0.626018	 -0.337582	 0.258241
O	 2.749007	 0.764135	 0.465877
C	 -0.267326	 0.883135	 0.076490
H	 0.325620	 -1.161483	 -0.378003
H	 0.574537	 -0.713685	 1.275261
C	 -1.726822	 0.642622	 0.463839
H	 -0.210803	 1.217591	 -0.953497
H	 0.129920	 1.693110	 0.675679
C	 -2.480891	 -0.340606	 -0.429852
H	 -2.243098	 1.597649	 0.438609
H	 -1.776542	 0.301208	 1.495542
C	 -3.955933	 -0.460128	 -0.060472
H	 -2.393755	 -0.020485	 -1.464726
H	 -2.024244	 -1.323637	 -0.374360
H	 -4.467673	 -1.160944	 -0.709827
H	 -4.458917	 0.497287	 -0.144505
H	 -4.076458	 -0.806900	 0.960497

	symmetry c1
}
set optking {
	frozen_dihedral = ("
		5 3 4 7
	")
}

ee,wfn = optimize('scf', return_wfn=True)
oeprop( wfn, 'DIPOLE', 'QUADRUPOLE', 'MULLIKEN_CHARGES')
f=open( 'psi4out.xyz', 'w' )
f.write( "20  " )
f.write( str(ee) + "\n" )
f.write( MOL.save_string_xyz() )
f.close()
--------------------------------------------------------------------------

    Molecular point group: c1
  Charge       = 0
  Multiplicity = 1
  Basis Set: CC-PVTZ
  Basis Set:
  @DF-RHF Final Energy:  -384.09284816447490
    Total Energy =                       -384.0928481644749013
    Molecular point group: c1
  Basis Set: CC-PVTZ
  Basis Set:
  Basis Set: CC-PVTZ
  Basis Set:
  @DF-RHF Final Energy:  -384.09319237314907
    Total Energy =                       -384.0931923731492930
  Basis Set: CC-PVTZ
  Basis Set:
  Basis Set: CC-PVTZ
  Basis Set:
  @DF-RHF Final Energy:  -384.09342462468561
    Total Energy =                       -384.0934246246856674
  Basis Set: CC-PVTZ
  Basis Set:
  Basis Set: CC-PVTZ
  Basis Set:
  @DF-RHF Final Energy:  -384.09348004823948
    Total Energy =                       -384.0934800482398259
  Basis Set: CC-PVTZ
  Basis Set:
  Basis Set: CC-PVTZ
  Basis Set:
  @DF-RHF Final Energy:  -384.09348105722779
    Total Energy =                       -384.0934810572279048
  Basis Set: CC-PVTZ
  Basis Set:
  Basis Set: CC-PVTZ
  Basis Set:
  @DF-RHF Final Energy:  -384.09348492515772
    Total Energy =                       -384.0934849251576111
  Basis Set: CC-PVTZ
  Basis Set:
  Charge       = 0
  Multiplicity = 1
  Basis Set: CC-PVTZ
  Basis Set:

    Orbital Energies (a.u.)
    -----------------------

    Doubly Occupied:

       1A    -20.606142     2A    -20.537656     3A    -11.373103
       4A    -11.237260     5A    -11.226921     6A    -11.220441
       7A    -11.219385     8A    -11.211329     9A     -1.477948
      10A     -1.367990    11A     -1.098893    12A     -1.042383
      13A     -0.962011    14A     -0.869158    15A     -0.820553
      16A     -0.785388    17A     -0.705787    18A     -0.691360
      19A     -0.648410    20A     -0.643800    21A     -0.613870
      22A     -0.595877    23A     -0.576684    24A     -0.555701
      25A     -0.547750    26A     -0.513984    27A     -0.501354
      28A     -0.481388    29A     -0.474102    30A     -0.467390
      31A     -0.459810    32A     -0.442887

  @DF-RHF Final Energy:  -384.09348624827624

   => Energetics <=

    Nuclear Repulsion Energy =            376.6661901514540887
    One-Electron Energy =               -1269.5659239895069277
    Two-Electron Energy =                 508.8062475897766035
    DFT Exchange-Correlation Energy =       0.0000000000000000
    Empirical Dispersion Energy =           0.0000000000000000
    PCM Polarization Energy =               0.0000000000000000
    EFP Energy =                            0.0000000000000000
    Total Energy =                       -384.0934862482762355
    Molecular point group: c1
  Basis Set: CC-PVTZ
  Basis Set:

  -Total Gradient:
     Atom            X                  Y                   Z
    ------   -----------------  -----------------  -----------------
       1       -0.000010813568     0.000011552416     0.000008453030
       2       -0.000053279220    -0.000018415540     0.000027007720
       3       -0.000140795751     0.000419808571    -0.000511689574
       4       -0.000087812490     0.000189916745    -0.000270355792
       5        0.000153615311    -0.000301839461     0.000414746681
       6        0.000030306213     0.000003182957     0.000007209075
       7        0.000119568010    -0.000345720694     0.000334855176
       8        0.000008350639     0.000018318750    -0.000017528487
       9       -0.000003693232     0.000005403291    -0.000000729083
      10       -0.000001586201    -0.000002580924     0.000006221657
      11       -0.000009594505     0.000020513218     0.000001222118
      12        0.000000231794    -0.000003532118    -0.000001183389
      13       -0.000005385238     0.000003445263     0.000003617750
      14        0.000000292536     0.000000119723    -0.000002685692
      15        0.000002443995    -0.000000030281     0.000000847771
      16        0.000000297740     0.000000820978    -0.000000160483
      17       -0.000001294612    -0.000001625996     0.000001329851
      18       -0.000000017042    -0.000000551760    -0.000001471146
      19       -0.000000583855     0.000002509246    -0.000000466013
      20       -0.000000250514    -0.000001294381     0.000000758831

  **** Optimization is complete! (in 7 steps) ****
    Final optimized geometry and variables:
    Molecular point group: c1

    Geometry (in Angstrom), charge = 0, multiplicity = 1:

    H            3.537077650391    -0.630116497925    -1.011428650165
    O            2.628265819300    -0.872842415010    -0.912588679213
    C            2.083907874650    -0.086670418871     0.009221832877
    C            0.631024895370    -0.394472352309     0.265980277835
    O            2.704321688537     0.754961824834     0.563301965968
    C           -0.247642042484     0.847421964908     0.090525523111
    H            0.320728353667    -1.205008963150    -0.375229297770
    H            0.569628230573    -0.739532450895     1.292916226008
    C           -1.708110757559     0.633157281712     0.487519290116
    H           -0.198639809841     1.177231047948    -0.943638345110
    H            0.171586715141     1.644775697864     0.690305452290
    C           -2.483200958371    -0.345800638380    -0.392485666906
    H           -2.208566510308     1.596574650515     0.457816658333
    H           -1.753357028789     0.301704695845     1.522326239465
    C           -3.955847986361    -0.443825599869    -0.007375768010
    H           -2.402441466170    -0.033852320603    -1.430465172927
    H           -2.037894052177    -1.333694743743    -0.334969103550
    H           -4.482195004840    -1.144546558299    -0.644992220795
    H           -4.448347759917     0.518677612352    -0.095538493818
    H           -4.070386002272    -0.779536210298     1.017946972888

  Mulliken Charges: (a.u.)
   Center  Symbol    Alpha    Beta     Spin     Total
       1     H     0.38054  0.38054  0.00000  0.23892
       2     O     4.15749  4.15749  0.00000 -0.31498
       3     C     2.80726  2.80726  0.00000  0.38549
       4     C     3.09462  3.09462  0.00000 -0.18925
       5     O     4.19819  4.19819  0.00000 -0.39638
       6     C     3.10623  3.10623  0.00000 -0.21247
       7     H     0.43723  0.43723  0.00000  0.12554
       8     H     0.44230  0.44230  0.00000  0.11540
       9     C     3.09836  3.09836  0.00000 -0.19671
      10     H     0.44905  0.44905  0.00000  0.10191
      11     H     0.43238  0.43238  0.00000  0.13524
      12     C     3.08681  3.08681  0.00000 -0.17362
      13     H     0.44565  0.44565  0.00000  0.10870
      14     H     0.45218  0.45218  0.00000  0.09563
      15     C     3.14960  3.14960  0.00000 -0.29920
      16     H     0.45308  0.45308  0.00000  0.09384
      17     H     0.45325  0.45325  0.00000  0.09351
      18     H     0.44756  0.44756  0.00000  0.10489
      19     H     0.45370  0.45370  0.00000  0.09260
      20     H     0.45453  0.45453  0.00000  0.09093

   Total alpha = 32.00000, Total beta = 32.00000, Total charge = -0.00000

*** Psi4 exiting successfully. Buy a developer a beer!
