  ==> Input File <==

--------------------------------------------------------------------------
set {
	reference rhf
	basis 6-31G*
}

set_num_threads( 4 )
memory 2 gb

molecule MOL {
0 1

H	 -3.650283	 0.221984	 0.000000
C	 -2.577024	 0.154109	 0.000000
C	 -1.960329	 -1.089307	 0.000000
C	 -1.811733	 1.307557	 0.000000
H	 -2.554473	 -1.985285	 0.000000
C	 -0.581547	 -1.175855	 0.000000
H	 -2.287118	 2.271701	 0.000000
C	 -0.428719	 1.219221	 0.000000
H	 -0.090826	 -2.129898	 0.000000
C	 0.198341	 -0.021559	 0.000000
H	 0.149947	 2.124040	 0.000000
C	 1.691355	 -0.173192	 0.000000
C	 2.526497	 0.760914	 -0.850604
O	 2.216121	 -1.019321	 0.661861
H	 2.260127	 0.672701	 -1.898957
H	 3.567847	 0.502415	 -0.723097
H	 2.374020	 1.794122	 -0.555625

	symmetry c1
}
set optking {
	frozen_dihedral = ("
		13 12 10 8
	")
}

ee = optimize('scf')
oeprop('DIPOLE', 'QUADRUPOLE', 'MULLIKEN_CHARGES')
f=open( 'psi4out.xyz', 'w' )
f.write( "17  " )
f.write( str(ee) + "\n" )
f.write( MOL.save_string_xyz() )
f.close()
--------------------------------------------------------------------------

    Molecular point group: c1
  Charge       = 0
  Multiplicity = 1
  Basis Set: 6-31G*
  Basis Set:
  @DF-RHF Final Energy:  -382.47188908926256
    Total Energy =                       -382.4718890892626177
    Molecular point group: c1
  Basis Set: 6-31G*
  Basis Set:
  Basis Set: 6-31G*
  Basis Set:
  @DF-RHF Final Energy:  -382.47090624363972
    Total Energy =                       -382.4709062436397744
  Basis Set: 6-31G*
  Basis Set:
  Basis Set: 6-31G*
  Basis Set:
  @DF-RHF Final Energy:  -382.47252685878124
    Total Energy =                       -382.4725268587806113
  Basis Set: 6-31G*
  Basis Set:
  Basis Set: 6-31G*
  Basis Set:
  @DF-RHF Final Energy:  -382.47261292562695
    Total Energy =                       -382.4726129256266631
  Basis Set: 6-31G*
  Basis Set:
  Basis Set: 6-31G*
  Basis Set:
  @DF-RHF Final Energy:  -382.47261507134647
    Total Energy =                       -382.4726150713465813
  Basis Set: 6-31G*
  Basis Set:
  Charge       = 0
  Multiplicity = 1
  Basis Set: 6-31G*
  Basis Set:

    Orbital Energies (a.u.)
    -----------------------

    Doubly Occupied:

       1A    -20.552305     2A    -11.332174     3A    -11.247843
       4A    -11.244228     5A    -11.244119     6A    -11.241094
       7A    -11.240620     8A    -11.238506     9A    -11.230259
      10A     -1.398231    11A     -1.165581    12A     -1.049648
      13A     -1.026161    14A     -0.997076    15A     -0.860431
      16A     -0.835786    17A     -0.760295    18A     -0.706438
      19A     -0.657778    20A     -0.645848    21A     -0.624067
      22A     -0.614338    23A     -0.599453    24A     -0.590537
      25A     -0.556802    26A     -0.526253    27A     -0.514111
      28A     -0.501363    29A     -0.490712    30A     -0.410735
      31A     -0.344642    32A     -0.341413

  @DF-RHF Final Energy:  -382.47261578881995

   => Energetics <=

    Nuclear Repulsion Energy =            403.2716632804053347
    One-Electron Energy =               -1317.9108650191578818
    Two-Electron Energy =                 532.1665859499324824
    DFT Exchange-Correlation Energy =       0.0000000000000000
    Empirical Dispersion Energy =           0.0000000000000000
    PCM Polarization Energy =               0.0000000000000000
    EFP Energy =                            0.0000000000000000
    Total Energy =                       -382.4726157888200078
    Molecular point group: c1
  Basis Set: 6-31G*
  Basis Set:

  -Total Gradient:
     Atom            X                  Y                   Z
    ------   -----------------  -----------------  -----------------
       1       -0.000002641047    -0.000002928398     0.000010460206
       2        0.000009756858     0.000009461149    -0.000013389196
       3        0.000019629344    -0.000004781261    -0.000008196032
       4       -0.000019316660    -0.000000669952    -0.000001682277
       5       -0.000000770001     0.000003085713     0.000004637901
       6       -0.000024929318    -0.000006411249     0.000007897851
       7        0.000001662782    -0.000004027442    -0.000005044815
       8       -0.000085486655    -0.000052421453     0.003738432434
       9        0.000005616970     0.000006721671    -0.000004527258
      10        0.000139232146    -0.000902698428    -0.006779739384
      11       -0.000010821985    -0.000005808970     0.000015234802
      12        0.000140704251     0.003028261639     0.005583640995
      13       -0.000137581791    -0.002028681766    -0.002448151199
      14       -0.000024699098     0.000025423493    -0.000017258705
      15        0.000011816053    -0.000027237519    -0.000040869512
      16       -0.000009516638    -0.000014366446    -0.000014696892
      17       -0.000012655214    -0.000022920781    -0.000026748920

  **** Optimization is complete! (in 6 steps) ****
    Final optimized geometry and variables:
    Molecular point group: c1

    Geometry (in Angstrom), charge = 0, multiplicity = 1:

    H           -3.646468049221     0.236831646653     0.047646770912
    C           -2.573416104952     0.167438181366     0.035985537127
    C           -1.958311782962    -1.076073392583     0.048077348463
    C           -1.805719194112     1.319407825602     0.016001545303
    H           -2.553310813821    -1.971239948206     0.070166674085
    C           -0.578699693966    -1.164850921826     0.044991305691
    H           -2.279385608956     2.284502922176     0.021274208302
    C           -0.423043821928     1.229398080751    -0.009643202417
    H           -0.092490403155    -2.121472429516     0.080815477536
    C            0.199854561527    -0.012577782552    -0.005648071693
    H            0.160639011618     2.131795028478    -0.026074213964
    C            1.693937613413    -0.158454542471     0.035672509789
    C            2.532806636450     0.796869822048    -0.786204813954
    O            2.197688954382    -1.056413758162     0.641147794550
    H            2.216598174002     0.765467025958    -1.824022751272
    H            3.571504363691     0.507995087007    -0.709706636875
    H            2.423726223988     1.820882658373    -0.444203954358

  Mulliken Charges: (a.u.)
   Center  Symbol    Alpha    Beta     Spin     Total
       1     H     0.39579  0.39579  0.00000  0.20842
       2     C     3.09419  3.09419  0.00000 -0.18837
       3     C     3.10290  3.10290  0.00000 -0.20580
       4     C     3.10281  3.10281  0.00000 -0.20563
       5     H     0.39539  0.39539  0.00000  0.20922
       6     C     3.09215  3.09215  0.00000 -0.18430
       7     H     0.39641  0.39641  0.00000  0.20718
       8     C     3.10336  3.10336  0.00000 -0.20673
       9     H     0.38153  0.38153  0.00000  0.23695
      10     C     3.04434  3.04434  0.00000 -0.08867
      11     H     0.39520  0.39520  0.00000  0.20961
      12     C     2.73841  2.73841  0.00000  0.52318
      13     C     3.28914  3.28914  0.00000 -0.57828
      14     O     4.26099  4.26099  0.00000 -0.52199
      15     H     0.40342  0.40342  0.00000  0.19316
      16     H     0.39537  0.39537  0.00000  0.20925
      17     H     0.40860  0.40860  0.00000  0.18279

   Total alpha = 32.00000, Total beta = 32.00000, Total charge =  0.00000
