                              Psi4 1.0.54 Driver

  ==> Input File <==

--------------------------------------------------------------------------
set {
	reference rhf
	basis cc-pvtz
}

set_num_threads( 4 )
memory 2 gb

molecule MOL {
0 1

H	 -2.080325	 -2.078164	 2.214381
O	 -1.840600	 -1.845772	 1.329935
C	 -0.757159	 -1.075720	 1.375874
C	 -0.310616	 -0.658853	 0.000791
O	 -0.241157	 -0.776243	 2.396670
C	 0.926581	 0.227233	 0.000178
H	 -1.152192	 -0.162111	 -0.471146
H	 -0.146130	 -1.566925	 -0.570231
C	 2.220156	 -0.582071	 -0.000088
H	 0.899945	 0.878221	 -0.866390
H	 0.900542	 0.878581	 0.866486
C	 3.466689	 0.296012	 -0.000457
H	 2.239073	 -1.234095	 -0.869382
H	 2.239505	 -1.233985	 0.869270
H	 3.493549	 0.935857	 -0.875887
H	 4.368821	 -0.304526	 -0.001199
H	 3.494559	 0.935166	 0.875458

	symmetry c1
}
set optking {
	frozen_dihedral = ("
		7 4 6 10
	")
}

ee,wfn = optimize('scf', return_wfn=True)
oeprop( wfn, 'DIPOLE', 'QUADRUPOLE', 'MULLIKEN_CHARGES')
f=open( 'psi4out.xyz', 'w' )
f.write( "17  " )
f.write( str(ee) + "\n" )
f.write( MOL.save_string_xyz() )
f.close()
--------------------------------------------------------------------------

    Molecular point group: c1
  Charge       = 0
  Multiplicity = 1
  Basis Set: CC-PVTZ
  Basis Set:
  @DF-RHF Final Energy:  -345.04718098487490
    Total Energy =                       -345.0471809848745579
    Molecular point group: c1
  Basis Set: CC-PVTZ
  Basis Set:
  Basis Set: CC-PVTZ
  Basis Set:
  @DF-RHF Final Energy:  -345.04736571801959
    Total Energy =                       -345.0473657180194778
  Basis Set: CC-PVTZ
  Basis Set:
  Basis Set: CC-PVTZ
  Basis Set:
  @DF-RHF Final Energy:  -345.04710464227082
    Total Energy =                       -345.0471046422708241
  Basis Set: CC-PVTZ
  Basis Set:
  Basis Set: CC-PVTZ
  Basis Set:
  @DF-RHF Final Energy:  -345.04740930221897
    Total Energy =                       -345.0474093022183411
  Basis Set: CC-PVTZ
  Basis Set:
  Basis Set: CC-PVTZ
  Basis Set:
  @DF-RHF Final Energy:  -345.04741182843952
    Total Energy =                       -345.0474118284395217
  Basis Set: CC-PVTZ
  Basis Set:
  Charge       = 0
  Multiplicity = 1
  Basis Set: CC-PVTZ
  Basis Set:

    Orbital Energies (a.u.)
    -----------------------

    Doubly Occupied:

       1A    -20.604902     2A    -20.541642     3A    -11.374721
       4A    -11.239365     5A    -11.220647     6A    -11.216063
       7A    -11.207409     8A     -1.478679     9A     -1.370101
      10A     -1.090525    11A     -1.017359    12A     -0.913825
      13A     -0.827446    14A     -0.787269    15A     -0.706146
      16A     -0.697260    17A     -0.658220    18A     -0.628228
      19A     -0.588530    20A     -0.584696    21A     -0.581433
      22A     -0.528142    23A     -0.520141    24A     -0.488326
      25A     -0.479896    26A     -0.470755    27A     -0.467074
      28A     -0.447603

  @DF-RHF Final Energy:  -345.04741238424640

   => Energetics <=

    Nuclear Repulsion Energy =            309.7797076976009976
    One-Electron Energy =               -1084.1814288254786334
    Two-Electron Energy =                 429.3543087436312362
    DFT Exchange-Correlation Energy =       0.0000000000000000
    Empirical Dispersion Energy =           0.0000000000000000
    PCM Polarization Energy =               0.0000000000000000
    EFP Energy =                            0.0000000000000000
    Total Energy =                       -345.0474123842463996
    Molecular point group: c1
  Basis Set: CC-PVTZ
  Basis Set:

  -Total Gradient:
     Atom            X                  Y                   Z
    ------   -----------------  -----------------  -----------------
       1       -0.000008281982    -0.000010320138     0.000004301414
       2       -0.000012303108     0.000015944648    -0.000001884367
       3        0.000030670438    -0.000009517814    -0.000025310536
       4       -0.001188483120     0.001978652937     0.003648796658
       5        0.000024676074     0.000002724173    -0.000045121236
       6        0.001795215347    -0.002793127495    -0.002544127777
       7        0.000735357913    -0.001154852151    -0.002589859280
       8        0.000003819068    -0.000055922564    -0.000015752812
       9       -0.000040470402    -0.000034503191     0.000062425309
      10       -0.001325267158     0.002024846359     0.001518354130
      11       -0.000001838114     0.000009798369     0.000024217311
      12       -0.000017937479     0.000015269517    -0.000018439272
      13       -0.000001559687     0.000002891006     0.000003454019
      14        0.000003517294     0.000018307772    -0.000011189235
      15        0.000005460412     0.000004220696     0.000001675747
      16        0.000004089564    -0.000003037045    -0.000007680202
      17       -0.000006665064    -0.000011375080    -0.000003859871

  **** Optimization is complete! (in 6 steps) ****
    Final optimized geometry and variables:
    Molecular point group: c1

    Geometry (in Angstrom), charge = 0, multiplicity = 1:

    H           -2.555696777941    -1.402606973611     1.470425943980
    O           -2.322222140039    -1.163729814548     0.586016945965
    C           -1.230544327918    -0.405921575336     0.629096123356
    C           -0.796494508317     0.020811585482    -0.747531969275
    O           -0.700452569742    -0.125133354887     1.648269997315
    C            0.475282700344     0.865020531173    -0.775760329202
    H           -1.630641289522     0.539949874520    -1.205695788634
    H           -0.678618681947    -0.885542255919    -1.333573023176
    C            1.759542117746     0.041470092329    -0.773540288948
    H            0.445020649152     1.507869972906    -1.649537227075
    H            0.473448488625     1.526371783628     0.082460952480
    C            3.014923448818     0.906199629193    -0.766224614512
    H            1.772168102989    -0.605828351554    -1.646755459375
    H            1.764702759289    -0.608016551814     0.095595975098
    H            3.049375173991     1.555239719186    -1.635243508685
    H            3.910396694375     0.295803959309    -0.774001417539
    H            3.049636937852     1.533999005392     0.117325966426

  Mulliken Charges: (a.u.)
   Center  Symbol    Alpha    Beta     Spin     Total
       1     H     0.38249  0.38249  0.00000  0.23502
       2     O     4.15930  4.15930  0.00000 -0.31861
       3     C     2.80163  2.80163  0.00000  0.39674
       4     C     3.11956  3.11956  0.00000 -0.23911
       5     O     4.19280  4.19280  0.00000 -0.38561
       6     C     3.09217  3.09217  0.00000 -0.18435
       7     H     0.42887  0.42887  0.00000  0.14226
       8     H     0.43839  0.43839  0.00000  0.12321
       9     C     3.08277  3.08277  0.00000 -0.16555
      10     H     0.44602  0.44602  0.00000  0.10796
      11     H     0.44402  0.44402  0.00000  0.11196
      12     C     3.15112  3.15112  0.00000 -0.30224
      13     H     0.45670  0.45670  0.00000  0.08660
      14     H     0.44799  0.44799  0.00000  0.10401
      15     H     0.45645  0.45645  0.00000  0.08710
      16     H     0.44816  0.44816  0.00000  0.10368
      17     H     0.45154  0.45154  0.00000  0.09692

   Total alpha = 28.00000, Total beta = 28.00000, Total charge =  0.00000

*** Psi4 exiting successfully. Buy a developer a beer!
