  ==> Input File <==

--------------------------------------------------------------------------
set {
	reference rhf
	basis 6-31G*
}

set_num_threads( 4 )
memory 2 gb

molecule MOL {
0 1

H	 -2.273092	 1.173159	 0.000295
O	 -1.438904	 1.618192	 0.000114
C	 -0.409536	 0.736003	 0.000030
C	 0.062325	 0.331312	 -1.238829
C	 0.156746	 0.251001	 1.176907
H	 -0.402975	 0.729841	 -2.121247
C	 1.109882	 -0.566407	 -1.317788
C	 1.208636	 -0.650421	 1.067568
C	 -0.359617	 0.693664	 2.527620
H	 1.471342	 -0.876404	 -2.282019
C	 1.690295	 -1.063487	 -0.161930
H	 1.656974	 -1.034436	 1.967496
H	 -1.406753	 0.433394	 2.668009
H	 0.196780	 0.217201	 3.324728
H	 -0.263181	 1.768412	 2.667674
H	 2.505389	 -1.761999	 -0.215817

	symmetry c1
}
set optking {
	frozen_dihedral = ("
		4 3 2 1
	")
}

ee = optimize('scf')
oeprop('DIPOLE', 'QUADRUPOLE', 'MULLIKEN_CHARGES')
f=open( 'psi4out.xyz', 'w' )
f.write( "16  " )
f.write( str(ee) + "\n" )
f.write( MOL.save_string_xyz() )
f.close()
--------------------------------------------------------------------------

    Molecular point group: c1
  Charge       = 0
  Multiplicity = 1
  Basis Set: 6-31G*
  Basis Set:
  @DF-RHF Final Energy:  -344.58966576831619
    Total Energy =                       -344.5896657683163085
    Molecular point group: c1
  Basis Set: 6-31G*
  Basis Set:
  Basis Set: 6-31G*
  Basis Set:
  @DF-RHF Final Energy:  -344.59078628064856
    Total Energy =                       -344.5907862806490130
  Basis Set: 6-31G*
  Basis Set:
  Basis Set: 6-31G*
  Basis Set:
  @DF-RHF Final Energy:  -344.59086322725022
    Total Energy =                       -344.5908632272501677
  Basis Set: 6-31G*
  Basis Set:
  Basis Set: 6-31G*
  Basis Set:
  @DF-RHF Final Energy:  -344.59087349249029
    Total Energy =                       -344.5908734924902888
  Basis Set: 6-31G*
  Basis Set:
  Basis Set: 6-31G*
  Basis Set:
  @DF-RHF Final Energy:  -344.59087606418899
    Total Energy =                       -344.5908760641891604
  Basis Set: 6-31G*
  Basis Set:
  Charge       = 0
  Multiplicity = 1
  Basis Set: 6-31G*
  Basis Set:

    Orbital Energies (a.u.)
    -----------------------

    Doubly Occupied:

       1A    -20.575346     2A    -11.282718     3A    -11.234414
       4A    -11.229236     5A    -11.228197     6A    -11.225484
       7A    -11.224781     8A    -11.218686     9A     -1.389482
      10A     -1.148371    11A     -1.044179    12A     -1.002813
      13A     -0.932051    14A     -0.828395    15A     -0.804537
      16A     -0.724505    17A     -0.665674    18A     -0.654202
      19A     -0.621380    20A     -0.589822    21A     -0.570682
      22A     -0.564559    23A     -0.543679    24A     -0.516265
      25A     -0.499459    26A     -0.482308    27A     -0.460893
      28A     -0.328926    29A     -0.317881

  @DF-RHF Final Energy:  -344.59087670914164

   => Energetics <=

    Nuclear Repulsion Energy =            349.6196418266686123
    One-Electron Energy =               -1160.6031876306183221
    Two-Electron Energy =                 466.3926690948080704
    DFT Exchange-Correlation Energy =       0.0000000000000000
    Empirical Dispersion Energy =           0.0000000000000000
    PCM Polarization Energy =               0.0000000000000000
    EFP Energy =                            0.0000000000000000
    Total Energy =                       -344.5908767091416394
    Molecular point group: c1
  Basis Set: 6-31G*
  Basis Set:

  -Total Gradient:
     Atom            X                  Y                   Z
    ------   -----------------  -----------------  -----------------
       1        0.000015126136     0.000005026933    -0.000023238611
       2       -0.000090987543     0.000056390905     0.000024731603
       3        0.000099104092    -0.000082759693    -0.000012982573
       4       -0.000094922653     0.000070265169    -0.000024041238
       5        0.000041226126    -0.000024342131     0.000032229190
       6        0.000009229894    -0.000009350629     0.000019833021
       7        0.000070724851    -0.000059083796     0.000036922397
       8       -0.000083008454     0.000071652853     0.000046078469
       9       -0.000012041102    -0.000029424985    -0.000030210120
      10        0.000003842844    -0.000009141750    -0.000007790830
      11        0.000014220043    -0.000000654359    -0.000085365188
      12        0.000003861870    -0.000005613604     0.000008668244
      13        0.000010013650     0.000005502843    -0.000010203126
      14        0.000006486745     0.000000818672     0.000018569855
      15        0.000014781177     0.000006558461     0.000002546584
      16       -0.000007657675     0.000004155107     0.000004252323

  **** Optimization is complete! (in 6 steps) ****
    Final optimized geometry and variables:
    Molecular point group: c1

    Geometry (in Angstrom), charge = 0, multiplicity = 1:

    H           -2.451653295489     0.992150914129    -0.231114343467
    O           -1.610607723652     1.430065640913    -0.226926106117
    C           -0.594718635716     0.507749994040    -0.293287193346
    C           -0.119619294470     0.113101798147    -1.530112744393
    C           -0.031368585403     0.025603570591     0.885162995924
    H           -0.572773745934     0.523279209508    -2.414364150836
    C            0.929985586232    -0.787867149628    -1.614224869452
    C            1.020134228623    -0.874830558969     0.778618972664
    C           -0.556207887468     0.480499633498     2.225203762604
    H            1.298323287052    -1.093763307706    -2.577016643253
    C            1.500464732411    -1.284254621191    -0.456030628440
    H            1.471537296059    -1.260207839192     1.676232939983
    H           -1.586622338177     0.170391825863     2.374350883720
    H            0.034962467897     0.063118532234     3.031728173508
    H           -0.533106309205     1.561103401436     2.306350763354
    H            2.316998696529    -1.981855775721    -0.509084271961

  Mulliken Charges: (a.u.)
   Center  Symbol    Alpha    Beta     Spin     Total
       1     H     0.27183  0.27183  0.00000  0.45633
       2     O     4.38828  4.38828  0.00000 -0.77656
       3     C     2.83614  2.83614  0.00000  0.32771
       4     C     3.11315  3.11315  0.00000 -0.22629
       5     C     2.99931  2.99931  0.00000  0.00138
       6     H     0.39493  0.39493  0.00000  0.21015
       7     C     3.10218  3.10218  0.00000 -0.20436
       8     C     3.11352  3.11352  0.00000 -0.22705
       9     C     3.24377  3.24377  0.00000 -0.48754
      10     H     0.39901  0.39901  0.00000  0.20197
      11     C     3.10021  3.10021  0.00000 -0.20041
      12     H     0.40096  0.40096  0.00000  0.19807
      13     H     0.41775  0.41775  0.00000  0.16449
      14     H     0.41570  0.41570  0.00000  0.16859
      15     H     0.40316  0.40316  0.00000  0.19368
      16     H     0.40009  0.40009  0.00000  0.19983

   Total alpha = 29.00000, Total beta = 29.00000, Total charge =  0.00000
