                              Psi4 1.0.54 Driver

  ==> Input File <==

--------------------------------------------------------------------------
set {
	reference rhf
	basis cc-pvtz
}

set_num_threads( 4 )
memory 2 gb

molecule MOL {
0 1

H	 -2.614655	 -1.028670	 -0.115093
O	 -2.313989	 -0.142475	 -0.025864
C	 -0.943808	 -0.065018	 -0.330000
H	 -0.812293	 -0.225641	 -1.398673
C	 -0.231030	 -1.182113	 0.407592
C	 -0.353797	 1.300461	 0.050970
H	 -0.312800	 -0.992012	 1.473041
H	 -0.738841	 -2.119564	 0.220514
C	 1.246176	 -1.268044	 -0.015480
H	 -0.539537	 2.008579	 -0.751815
H	 -0.889989	 1.662858	 0.920677
C	 1.153605	 1.231851	 0.356834
H	 1.823096	 -1.684665	 0.802361
H	 1.352335	 -1.958223	 -0.845114
C	 1.826409	 0.100723	 -0.416008
H	 1.622968	 2.181508	 0.128734
H	 1.301983	 1.066493	 1.419367
H	 2.897299	 0.112407	 -0.249665
H	 1.683458	 0.265621	 -1.480024

	symmetry c1
}
set optking {
	frozen_dihedral = ("
		1 2 3 4
	")
}

ee,wfn = optimize('scf', return_wfn=True)
oeprop( wfn, 'DIPOLE', 'QUADRUPOLE', 'MULLIKEN_CHARGES')
f=open( 'psi4out.xyz', 'w' )
f.write( "19  " )
f.write( str(ee) + "\n" )
f.write( MOL.save_string_xyz() )
f.close()
--------------------------------------------------------------------------

    Molecular point group: c1
  Charge       = 0
  Multiplicity = 1
  Basis Set: CC-PVTZ
  Basis Set:
  @DF-RHF Final Energy:  -309.16162345960595
    Total Energy =                       -309.1616234596061759
    Molecular point group: c1
  Basis Set: CC-PVTZ
  Basis Set:
  Basis Set: CC-PVTZ
  Basis Set:
  @DF-RHF Final Energy:  -309.16334268048001
    Total Energy =                       -309.1633426804796727
  Basis Set: CC-PVTZ
  Basis Set:
  Basis Set: CC-PVTZ
  Basis Set:
  @DF-RHF Final Energy:  -309.16362590172241
    Total Energy =                       -309.1636259017226394
  Basis Set: CC-PVTZ
  Basis Set:
  Basis Set: CC-PVTZ
  Basis Set:
  @DF-RHF Final Energy:  -309.16363281375942
    Total Energy =                       -309.1636328137593637
  Basis Set: CC-PVTZ
  Basis Set:
  Charge       = 0
  Multiplicity = 1
  Basis Set: CC-PVTZ
  Basis Set:

    Orbital Energies (a.u.)
    -----------------------

    Doubly Occupied:

       1A    -20.543195     2A    -11.267343     3A    -11.216888
       4A    -11.213992     5A    -11.213676     6A    -11.212630
       7A    -11.206895     8A     -1.363359     9A     -1.110623
      10A     -1.003932    11A     -0.989651    12A     -0.850206
      13A     -0.831742    14A     -0.735514    15A     -0.704125
      16A     -0.658934    17A     -0.617969    18A     -0.613155
      19A     -0.571783    20A     -0.547428    21A     -0.530442
      22A     -0.521068    23A     -0.499340    24A     -0.487292
      25A     -0.468386    26A     -0.449454    27A     -0.428337
      28A     -0.414539

  @DF-RHF Final Energy:  -309.16363369060014

   => Energetics <=

    Nuclear Repulsion Energy =            332.0615456554485263
    One-Electron Energy =               -1077.9065586277024522
    Two-Electron Energy =                 436.6813792816539035
    DFT Exchange-Correlation Energy =       0.0000000000000000
    Empirical Dispersion Energy =           0.0000000000000000
    PCM Polarization Energy =               0.0000000000000000
    EFP Energy =                            0.0000000000000000
    Total Energy =                       -309.1636336906000224
    Molecular point group: c1
  Basis Set: CC-PVTZ
  Basis Set:

  -Total Gradient:
     Atom            X                  Y                   Z
    ------   -----------------  -----------------  -----------------
       1        0.000272884149    -0.000269127236     0.001218646807
       2       -0.000323902313     0.000580210645    -0.001546019518
       3        0.000106326538    -0.001401956802     0.000516441060
       4       -0.000029721374     0.001084889304    -0.000113083400
       5       -0.000054381767     0.000028728874    -0.000053264899
       6        0.000009291699     0.000015746463    -0.000011011168
       7        0.000001799888     0.000004394287    -0.000012134077
       8        0.000001886933     0.000005183003    -0.000003671640
       9        0.000039651345     0.000015705628     0.000000281651
      10        0.000000983733     0.000005494659    -0.000002556834
      11       -0.000010550639    -0.000029896198    -0.000007456121
      12        0.000015571430     0.000014935221    -0.000008913808
      13        0.000022531990    -0.000006374418     0.000015796427
      14        0.000000171249     0.000003612967     0.000014032573
      15       -0.000034071712    -0.000031333061    -0.000002184929
      16       -0.000007677493     0.000001118562     0.000001147215
      17       -0.000007718320    -0.000002710000     0.000001601560
      18       -0.000001332726    -0.000029104584    -0.000004988339
      19       -0.000001742611     0.000010482683    -0.000002662559

  **** Optimization is complete! (in 5 steps) ****
    Final optimized geometry and variables:
    Molecular point group: c1

    Geometry (in Angstrom), charge = 0, multiplicity = 1:

    H           -2.679240553886    -0.932605176930    -0.149117847476
    O           -2.318546380324    -0.072660597293    -0.031169927989
    C           -0.944874886100    -0.082780669132    -0.328765838219
    H           -0.819832324558    -0.219310307554    -1.401676687996
    C           -0.200108480128    -1.196944383489     0.389964905089
    C           -0.382399488930     1.287034502673     0.061232183413
    H           -0.278035747197    -1.025708166904     1.458898523753
    H           -0.677710092469    -2.152837995565     0.194773139083
    C            1.275343101747    -1.247950945330    -0.045290403682
    H           -0.579145694992     1.989960640314    -0.740191870292
    H           -0.934730743534     1.636359037668     0.924733879725
    C            1.122626272213     1.240565976982     0.377040660289
    H            1.865073303926    -1.673443614894     0.758711250882
    H            1.387429663590    -1.916481498274    -0.891694729364
    C            1.824924103074     0.141888274654    -0.416084046570
    H            1.572937599500     2.204539285751     0.172144713773
    H            1.269693014580     1.055913477564     1.436897883011
    H            2.894731633510     0.173164568204    -0.245656173191
    H            1.680860335141     0.325085963031    -1.476752638568

  Mulliken Charges: (a.u.)
   Center  Symbol    Alpha    Beta     Spin     Total
       1     H     0.39586  0.39586  0.00000  0.20829
       2     O     4.20193  4.20193  0.00000 -0.40387
       3     C     2.92681  2.92681  0.00000  0.14638
       4     H     0.46246  0.46246  0.00000  0.07508
       5     C     3.10434  3.10434  0.00000 -0.20867
       6     C     3.11138  3.11138  0.00000 -0.22275
       7     H     0.45187  0.45187  0.00000  0.09627
       8     H     0.45109  0.45109  0.00000  0.09782
       9     C     3.11424  3.11424  0.00000 -0.22848
      10     H     0.44695  0.44695  0.00000  0.10610
      11     H     0.44367  0.44367  0.00000  0.11266
      12     C     3.10094  3.10094  0.00000 -0.20187
      13     H     0.44692  0.44692  0.00000  0.10616
      14     H     0.44767  0.44767  0.00000  0.10466
      15     C     3.10181  3.10181  0.00000 -0.20361
      16     H     0.44178  0.44178  0.00000  0.11645
      17     H     0.45388  0.45388  0.00000  0.09224
      18     H     0.44287  0.44287  0.00000  0.11427
      19     H     0.45356  0.45356  0.00000  0.09289

   Total alpha = 28.00000, Total beta = 28.00000, Total charge = -0.00000

*** Psi4 exiting successfully. Buy a developer a beer!
