  ==> Input File <==

--------------------------------------------------------------------------
set {
	reference rhf
	basis cc-pvtz
}

set_num_threads( 4 )
memory 2 gb

molecule MOL {
0 1

O	 -2.374409	 1.338660	 -0.336961
C	 -2.104891	 0.204655	 -0.107126
C	 -0.881910	 -0.448129	 -0.720509
C	 -2.949910	 -0.638219	 0.818225
C	 -0.959691	 -0.433012	 -2.252359
H	 -0.845487	 -1.471377	 -0.368730
H	 0.019539	 0.058120	 -0.391927
C	 0.252618	 -1.097897	 -2.901002
H	 -1.872021	 -0.933709	 -2.550997
H	 -1.035259	 0.592629	 -2.605416
C	 0.256388	 -1.060053	 -4.430205
H	 0.313675	 -2.130903	 -2.567610
H	 1.153389	 -0.608419	 -2.540963
C	 -0.851681	 -1.876611	 -5.090733
H	 1.215950	 -1.429960	 -4.777648
H	 0.192218	 -0.027550	 -4.763602
H	 -0.814987	 -2.912823	 -4.770567
H	 -0.747684	 -1.861216	 -6.169491
H	 -1.836423	 -1.492574	 -4.853925
H	 -3.440322	 -1.417144	 0.243099
H	 -3.694377	 -0.025850	 1.303346
H	 -2.331085	 -1.129829	 1.560495

	symmetry c1
}
set optking {
	frozen_dihedral = ("
		6 3 2 1
	")
}

ee = optimize('scf')
oeprop('DIPOLE', 'QUADRUPOLE', 'MULLIKEN_CHARGES')
f=open( 'psi4out.xyz', 'w' )
f.write( "22  " )
f.write( str(ee) + "\n" )
f.write( MOL.save_string_xyz() )
f.close()
--------------------------------------------------------------------------

    Molecular point group: c1
  Charge       = 0
  Multiplicity = 1
  Basis Set: CC-PVTZ
  Basis Set:
  @DF-RHF Final Energy:  -348.22242626501975
    Total Energy =                       -348.2224262650201467
    Molecular point group: c1
  Basis Set: CC-PVTZ
  Basis Set:
  Basis Set: CC-PVTZ
  Basis Set:
  @DF-RHF Final Energy:  -348.22227269578099
    Total Energy =                       -348.2222726957809869
  Basis Set: CC-PVTZ
  Basis Set:
  Basis Set: CC-PVTZ
  Basis Set:
  @DF-RHF Final Energy:  -348.22286535812924
    Total Energy =                       -348.2228653581294111
  Basis Set: CC-PVTZ
  Basis Set:
  Basis Set: CC-PVTZ
  Basis Set:
  @DF-RHF Final Energy:  -348.22337058072276
    Total Energy =                       -348.2233705807225306
  Basis Set: CC-PVTZ
  Basis Set:
  Basis Set: CC-PVTZ
  Basis Set:
  @DF-RHF Final Energy:  -348.22338951679745
    Total Energy =                       -348.2233895167979654
  Basis Set: CC-PVTZ
  Basis Set:
  Basis Set: CC-PVTZ
  Basis Set:
  @DF-RHF Final Energy:  -348.22338528421744
    Total Energy =                       -348.2233852842174997
  Basis Set: CC-PVTZ
  Basis Set:
  Basis Set: CC-PVTZ
  Basis Set:
  @DF-RHF Final Energy:  -348.22339291615231
    Total Energy =                       -348.2233929161522497
  Basis Set: CC-PVTZ
  Basis Set:
  Charge       = 0
  Multiplicity = 1
  Basis Set: CC-PVTZ
  Basis Set:

    Orbital Energies (a.u.)
    -----------------------

    Doubly Occupied:

       1A    -20.536933     2A    -11.320180     3A    -11.228319
       4A    -11.227421     5A    -11.221761     6A    -11.217902
       7A    -11.216610     8A    -11.208957     9A     -1.397605
      10A     -1.094127    11A     -1.044149    12A     -1.002097
      13A     -0.937518    14A     -0.856672    15A     -0.784464
      16A     -0.733428    17A     -0.659761    18A     -0.650663
      19A     -0.629379    20A     -0.614998    21A     -0.602670
      22A     -0.584827    23A     -0.557854    24A     -0.550231
      25A     -0.528054    26A     -0.520775    27A     -0.501098
      28A     -0.484547    29A     -0.466961    30A     -0.463416
      31A     -0.462083    32A     -0.398942

  @DF-RHF Final Energy:  -348.22339355260840

   => Energetics <=

    Nuclear Repulsion Energy =            373.1082029251482481
    One-Electron Energy =               -1211.2543858164899575
    Two-Electron Energy =                 489.9227893387330823
    DFT Exchange-Correlation Energy =       0.0000000000000000
    Empirical Dispersion Energy =           0.0000000000000000
    PCM Polarization Energy =               0.0000000000000000
    EFP Energy =                            0.0000000000000000
    Total Energy =                       -348.2233935526086270
    Molecular point group: c1
  Basis Set: CC-PVTZ
  Basis Set:

  -Total Gradient:
     Atom            X                  Y                   Z
    ------   -----------------  -----------------  -----------------
       1        0.000292521359     0.000157992778     0.000371517633
       2       -0.000322627877    -0.000159635952    -0.000407550947
       3       -0.000282934434    -0.000147474993    -0.000379534745
       4       -0.000015858802     0.000007496461    -0.000020456199
       5        0.000007994132    -0.000005272512     0.000050574222
       6        0.000307416092     0.000146039994     0.000393014057
       7       -0.000003866358    -0.000001786172     0.000007795077
       8        0.000021863747     0.000022218678    -0.000011750051
       9       -0.000021333561    -0.000002447156    -0.000030369443
      10       -0.000001651098    -0.000002455922    -0.000010387557
      11        0.000014250091    -0.000019811482    -0.000001506629
      12        0.000007268315     0.000003656502     0.000001874120
      13        0.000000930401     0.000005770568    -0.000003299535
      14       -0.000002632464     0.000006271308     0.000010281046
      15       -0.000003992556    -0.000008094551    -0.000000631720
      16        0.000008340940    -0.000001326070     0.000001414222
      17        0.000003281587     0.000003824234    -0.000002246712
      18       -0.000003694952     0.000004207389    -0.000001023458
      19       -0.000014881024     0.000002854840     0.000017190219
      20        0.000005021238    -0.000003831629     0.000004730861
      21        0.000001200514    -0.000006084191     0.000007391908
      22        0.000003384705    -0.000002112124     0.000002973631

  **** Optimization is complete! (in 8 steps) ****
    Final optimized geometry and variables:
    Molecular point group: c1

    Geometry (in Angstrom), charge = 0, multiplicity = 1:

    O           -1.146394700596     1.839424850289     1.527341783731
    C           -0.894226581993     0.708626585331     1.789442101290
    C            0.292512456026     0.005505738013     1.153093313799
    C           -1.725078363274    -0.081412418920     2.770134574320
    C            0.233035218190     0.037511459874    -0.375287449100
    H            0.363932925496    -1.015388377999     1.510985316331
    H            1.181872610984     0.526874669735     1.494159652635
    C            1.458765924993    -0.607260458550    -1.018494583102
    H           -0.669856186171    -0.467175120645    -0.704022477229
    H            0.146464979996     1.068457302132    -0.696188870642
    C            1.486443886234    -0.535915734946    -2.546214795121
    H            1.527181689289    -1.647632930255    -0.708063683385
    H            2.349094085702    -0.116996347536    -0.634522201532
    C            0.394018872388    -1.343600037882    -3.242800304297
    H            2.453470107371    -0.892493446357    -2.886992759428
    H            1.420219129601     0.503214534500    -2.856408321560
    H            0.430320262611    -2.386664984431    -2.944550482808
    H            0.516086305395    -1.304927023986    -4.319070024011
    H           -0.596360779675    -0.968114243602    -3.015559901833
    H           -2.130212834491    -0.962263399418     2.282659357625
    H           -2.528137267297     0.527505887523     3.155880326268
    H           -1.099573952044    -0.428115202916     3.586223622693

  Mulliken Charges: (a.u.)
   Center  Symbol    Alpha    Beta     Spin     Total
       1     O     4.17630  4.17630  0.00000 -0.35259
       2     C     2.85857  2.85857  0.00000  0.28287
       3     C     3.10293  3.10293  0.00000 -0.20586
       4     C     3.15318  3.15318  0.00000 -0.30637
       5     C     3.09567  3.09567  0.00000 -0.19134
       6     H     0.44753  0.44753  0.00000  0.10494
       7     H     0.44236  0.44236  0.00000  0.11527
       8     C     3.09674  3.09674  0.00000 -0.19348
       9     H     0.45224  0.45224  0.00000  0.09553
      10     H     0.43815  0.43815  0.00000  0.12371
      11     C     3.09039  3.09039  0.00000 -0.18078
      12     H     0.45427  0.45427  0.00000  0.09145
      13     H     0.44818  0.44818  0.00000  0.10364
      14     C     3.15279  3.15279  0.00000 -0.30558
      15     H     0.44809  0.44809  0.00000  0.10383
      16     H     0.45243  0.45243  0.00000  0.09514
      17     H     0.45559  0.45559  0.00000  0.08881
      18     H     0.44558  0.44558  0.00000  0.10883
      19     H     0.45287  0.45287  0.00000  0.09426
      20     H     0.45051  0.45051  0.00000  0.09898
      21     H     0.43644  0.43644  0.00000  0.12711
      22     H     0.44919  0.44919  0.00000  0.10163

   Total alpha = 32.00000, Total beta = 32.00000, Total charge =  0.00000
