  ==> Input File <==

--------------------------------------------------------------------------
set {
	reference rhf
	basis cc-pvtz
}

set_num_threads( 4 )
memory 2 gb

molecule MOL {
0 1

H	 -2.816458	 -0.841657	 -0.064679
N	 -1.878861	 -0.711874	 0.250184
C	 -1.341419	 0.551458	 -0.220231
H	 -1.333674	 -1.468530	 -0.105118
C	 -0.971704	 1.437669	 0.947069
H	 -0.465071	 0.439192	 -0.857377
H	 -2.103712	 1.057909	 -0.802012
O	 0.070767	 0.837932	 1.655078
H	 -0.662631	 2.416956	 0.584243
H	 -1.836477	 1.570810	 1.593111
C	 0.459968	 1.523695	 2.798525
H	 1.267798	 0.972554	 3.257916
H	 0.811585	 2.525535	 2.561085
H	 -0.357696	 1.606090	 3.510705

	symmetry c1
}
set optking {
	frozen_dihedral = ("
		6 3 2 4
	")
}

ee = optimize('scf')
oeprop('DIPOLE', 'QUADRUPOLE', 'MULLIKEN_CHARGES')
f=open( 'psi4out.xyz', 'w' )
f.write( "14  " )
f.write( str(ee) + "\n" )
f.write( MOL.save_string_xyz() )
f.close()
--------------------------------------------------------------------------

    Molecular point group: c1
  Charge       = 0
  Multiplicity = 1
  Basis Set: CC-PVTZ
  Basis Set:
  @DF-RHF Final Energy:  -248.21980492929760
    Total Energy =                       -248.2198049292975384
    Molecular point group: c1
  Basis Set: CC-PVTZ
  Basis Set:
  Basis Set: CC-PVTZ
  Basis Set:
  @DF-RHF Final Energy:  -248.22079487232872
    Total Energy =                       -248.2207948723290087
  Basis Set: CC-PVTZ
  Basis Set:
  Basis Set: CC-PVTZ
  Basis Set:
  @DF-RHF Final Energy:  -248.22095348803902
    Total Energy =                       -248.2209534880389015
  Basis Set: CC-PVTZ
  Basis Set:
  Basis Set: CC-PVTZ
  Basis Set:
  @DF-RHF Final Energy:  -248.22095909863503
    Total Energy =                       -248.2209590986348076
  Basis Set: CC-PVTZ
  Basis Set:
  Charge       = 0
  Multiplicity = 1
  Basis Set: CC-PVTZ
  Basis Set:

    Orbital Energies (a.u.)
    -----------------------

    Doubly Occupied:

       1A    -20.542286     2A    -15.525196     3A    -11.257694
       4A    -11.257467     5A    -11.241506     6A     -1.377539
       7A     -1.174824     8A     -0.998607     9A     -0.902289
      10A     -0.814229    11A     -0.682465    12A     -0.671628
      13A     -0.636088    14A     -0.629268    15A     -0.601226
      16A     -0.530430    17A     -0.518342    18A     -0.508588
      19A     -0.468927    20A     -0.412414    21A     -0.382782

  @DF-RHF Final Energy:  -248.22095988146631

   => Energetics <=

    Nuclear Repulsion Energy =            193.4262858650680812
    One-Electron Energy =                -721.0268986335198633
    Two-Electron Energy =                 279.3796528869855820
    DFT Exchange-Correlation Energy =       0.0000000000000000
    Empirical Dispersion Energy =           0.0000000000000000
    PCM Polarization Energy =               0.0000000000000000
    EFP Energy =                            0.0000000000000000
    Total Energy =                       -248.2209598814662286
    Molecular point group: c1
  Basis Set: CC-PVTZ
  Basis Set:

  -Total Gradient:
     Atom            X                  Y                   Z
    ------   -----------------  -----------------  -----------------
       1       -0.000009482686     0.000018445957    -0.000019049618
       2        0.001188986811     0.000073057376     0.001974639502
       3       -0.001156330917    -0.000011088590    -0.001841238422
       4       -0.000777927903    -0.000083637738    -0.001289175142
       5       -0.000005875794    -0.000066282473     0.000042178769
       6        0.000752987922     0.000036524126     0.001165616502
       7        0.000006367018    -0.000015211366     0.000015708732
       8       -0.000034595213     0.000044971619    -0.000051043175
       9        0.000028354050    -0.000001968875     0.000011792528
      10       -0.000009732245     0.000003567414    -0.000016483785
      11        0.000030405258     0.000008003529     0.000006188531
      12       -0.000004034605    -0.000001582189    -0.000000680694
      13       -0.000000265394     0.000001996061     0.000006832142
      14       -0.000008856299    -0.000006794851    -0.000005285868

  **** Optimization is complete! (in 5 steps) ****
    Final optimized geometry and variables:
    Molecular point group: c1

    Geometry (in Angstrom), charge = 0, multiplicity = 1:

    H           -2.131781822913    -1.548640954431    -1.207526396525
    N           -1.205682163244    -1.440115942879    -0.858259797565
    C           -0.609001395209    -0.184513084815    -1.296455751577
    H           -0.678547768674    -2.228551749354    -1.159502210159
    C           -0.238926647264     0.706448782508    -0.128276486247
    H            0.295387820217    -0.365676185226    -1.866315009678
    H           -1.290349089393     0.363372463232    -1.939666538383
    O            0.849883845297     0.154340131629     0.539965159358
    H            0.014071349773     1.703878590955    -0.491151269937
    H           -1.090543949643     0.798806135326     0.542953749905
    C            1.202587707725     0.812333005790     1.709427505323
    H            2.058372109923     0.304899874171     2.131063799470
    H            1.471279611603     1.850166745483     1.519941182253
    H            0.393136781971     0.794821656021     2.435708242413

  Mulliken Charges: (a.u.)
   Center  Symbol    Alpha    Beta     Spin     Total
       1     H     0.42806  0.42806  0.00000  0.14388
       2     N     3.69155  3.69155  0.00000 -0.38310
       3     C     3.04293  3.04293  0.00000 -0.08585
       4     H     0.42495  0.42495  0.00000  0.15010
       5     C     2.94757  2.94757  0.00000  0.10485
       6     H     0.45479  0.45479  0.00000  0.09042
       7     H     0.45789  0.45789  0.00000  0.08421
       8     O     4.17367  4.17367  0.00000 -0.34733
       9     H     0.47659  0.47659  0.00000  0.04682
      10     H     0.47787  0.47787  0.00000  0.04426
      11     C     3.03062  3.03062  0.00000 -0.06123
      12     H     0.44851  0.44851  0.00000  0.10298
      13     H     0.47428  0.47428  0.00000  0.05143
      14     H     0.47072  0.47072  0.00000  0.05855

   Total alpha = 21.00000, Total beta = 21.00000, Total charge = -0.00000
