                              Psi4 1.0.54 Driver

  ==> Input File <==

--------------------------------------------------------------------------
set {
	reference rhf
	basis cc-pvtz
}

set_num_threads( 4 )
memory 2 gb

molecule MOL {
0 1

H	 4.134764	 -2.861635	 -0.608684
C	 3.708307	 -2.134301	 -1.289850
C	 2.298684	 -1.739389	 -0.862848
H	 4.365220	 -1.271507	 -1.306158
H	 3.710514	 -2.570622	 -2.283539
C	 1.661002	 -0.722460	 -1.806876
H	 2.330303	 -1.330800	 0.140643
H	 1.674239	 -2.628800	 -0.819953
C	 0.246759	 -0.313029	 -1.407916
H	 2.282719	 0.162715	 -1.859433
H	 1.624350	 -1.142940	 -2.807694
C	 0.166485	 0.574257	 -0.177158
H	 -0.216133	 0.248415	 -2.215553
H	 -0.382830	 -1.185162	 -1.257846
C	 -1.180025	 0.697761	 0.509157
O	 1.113515	 1.168822	 0.226451
C	 -2.285431	 -0.137488	 -0.145671
H	 -1.447360	 1.745713	 0.496200
H	 -1.065514	 0.394096	 1.546399
C	 -3.646545	 0.082747	 0.508954
H	 -2.348635	 0.118247	 -1.199806
H	 -2.034895	 -1.192387	 -0.096473
C	 -4.757412	 -0.737227	 -0.138149
H	 -3.900211	 1.137405	 0.459735
H	 -3.580878	 -0.166775	 1.564416
H	 -4.867876	 -0.486707	 -1.187777
H	 -4.549650	 -1.800049	 -0.072540
H	 -5.709585	 -0.556397	 0.346597

	symmetry c1
}
set optking {
	frozen_dihedral = ("
		16 12 15 17
	")
}

ee,wfn = optimize('scf', return_wfn=True)
oeprop( wfn, 'DIPOLE', 'QUADRUPOLE', 'MULLIKEN_CHARGES')
f=open( 'psi4out.xyz', 'w' )
f.write( "28  " )
f.write( str(ee) + "\n" )
f.write( MOL.save_string_xyz() )
f.close()
--------------------------------------------------------------------------

    Molecular point group: c1
  Charge       = 0
  Multiplicity = 1
  Basis Set: CC-PVTZ
  Basis Set:
  @DF-RHF Final Energy:  -426.31379291963003
    Total Energy =                       -426.3137929196299183
    Molecular point group: c1
  Basis Set: CC-PVTZ
  Basis Set:
  Basis Set: CC-PVTZ
  Basis Set:
  @DF-RHF Final Energy:  -426.30335515222555
    Total Energy =                       -426.3033551522252083
  Basis Set: CC-PVTZ
  Basis Set:
  Basis Set: CC-PVTZ
  Basis Set:
  @DF-RHF Final Energy:  -426.31647163959633
    Total Energy =                       -426.3164716395964433
  Basis Set: CC-PVTZ
  Basis Set:
  Basis Set: CC-PVTZ
  Basis Set:
  @DF-RHF Final Energy:  -426.31650051715542
    Total Energy =                       -426.3165005171555322
  Basis Set: CC-PVTZ
  Basis Set:
  @DF-RHF Final Energy:  -426.31700497267866
    Total Energy =                       -426.3170049726790012
  @DF-RHF Final Energy:  -426.31728786708823
    Total Energy =                       -426.3172878670878845
  Basis Set: CC-PVTZ
  Basis Set:
  @DF-RHF Final Energy:  -426.31730900634511
    Total Energy =                       -426.3173090063449990
  Basis Set: CC-PVTZ
  Basis Set:
  Basis Set: CC-PVTZ
  Basis Set:
  @DF-RHF Final Energy:  -426.31731244656328
    Total Energy =                       -426.3173124465633919
  Basis Set: CC-PVTZ
  Basis Set:
  Basis Set: CC-PVTZ
  Basis Set:
  @DF-RHF Final Energy:  -426.31731417359424
    Total Energy =                       -426.3173141735937861
  Basis Set: CC-PVTZ
  Basis Set:
  Charge       = 0
  Multiplicity = 1
  Basis Set: CC-PVTZ
  Basis Set:

    Orbital Energies (a.u.)
    -----------------------

    Doubly Occupied:

       1A    -20.533568     2A    -11.318576     3A    -11.228935
       4A    -11.228190     5A    -11.227217     6A    -11.223832
       7A    -11.214666     8A    -11.214054     9A    -11.209210
      10A    -11.202988    11A     -1.395881    12A     -1.095866
      13A     -1.078178    14A     -1.022092    15A     -0.991833
      16A     -0.906859    17A     -0.876893    18A     -0.809844
      19A     -0.800596    20A     -0.721632    21A     -0.664577
      22A     -0.662892    23A     -0.630048    24A     -0.619135
      25A     -0.609626    26A     -0.586962    27A     -0.583361
      28A     -0.572581    29A     -0.541830    30A     -0.532765
      31A     -0.522992    32A     -0.514240    33A     -0.491013
      34A     -0.488394    35A     -0.481057    36A     -0.474951
      37A     -0.470091    38A     -0.465738    39A     -0.455178
      40A     -0.393762

  @DF-RHF Final Energy:  -426.31731440700321

   => Energetics <=

    Nuclear Repulsion Energy =            532.4828221737566309
    One-Electron Energy =               -1633.4760658745913133
    Two-Electron Energy =                 674.6759292938318140
    DFT Exchange-Correlation Energy =       0.0000000000000000
    Empirical Dispersion Energy =           0.0000000000000000
    PCM Polarization Energy =               0.0000000000000000
    EFP Energy =                            0.0000000000000000
    Total Energy =                       -426.3173144070028684
    Molecular point group: c1
  Basis Set: CC-PVTZ
  Basis Set:

  -Total Gradient:
     Atom            X                  Y                   Z
    ------   -----------------  -----------------  -----------------
       1        0.000005414979    -0.000007964217    -0.000001007013
       2       -0.000000577650    -0.000003767623    -0.000003072930
       3       -0.000003695450     0.000003768517     0.000018219949
       4        0.000003473264     0.000005647022     0.000000994606
       5        0.000003532428     0.000000430622    -0.000004362094
       6       -0.000014178410     0.000010481957     0.000003150577
       7        0.000005427821    -0.000000551422    -0.000004071937
       8       -0.000006877216    -0.000010971944     0.000001383252
       9        0.000011893772    -0.000002129729     0.000004275071
      10        0.000001896148     0.000010601005    -0.000000229862
      11        0.000009652534     0.000007164292    -0.000009047603
      12        0.000039373846    -0.000134602859     0.000056752209
      13        0.000005041478     0.000001965722     0.000004725008
      14       -0.000010581768    -0.000018606910     0.000001048527
      15        0.000010627782    -0.000145416636     0.000048260438
      16       -0.000038903526     0.000137537544    -0.000082197719
      17       -0.000010955042     0.000128513876    -0.000065410903
      18       -0.000009048142     0.000021273750    -0.000002452546
      19        0.000000442199    -0.000005811160     0.000015785286
      20       -0.000002375686    -0.000004560870     0.000011032301
      21        0.000008726772     0.000006907426    -0.000012646438
      22        0.000000081811     0.000000569735    -0.000000827564
      23        0.000005619867     0.000001336983     0.000010060001
      24       -0.000005056399     0.000006996138     0.000002476329
      25       -0.000010008203    -0.000004605026     0.000008851834
      26        0.000004562516     0.000003772267    -0.000002615988
      27        0.000000239120    -0.000008954294    -0.000001454956
      28       -0.000003748843     0.000000975836     0.000002382172

  **** Optimization is complete! (in 10 steps) ****
    Final optimized geometry and variables:
    Molecular point group: c1

    Geometry (in Angstrom), charge = 0, multiplicity = 1:

    H            4.760778066915    -1.986345050792    -1.025856080774
    C            4.205009163471    -1.154787179895    -1.443658249502
    C            2.783381037832    -1.110563984839    -0.893849716639
    H            4.742711279953    -0.244006094096    -1.203568777800
    H            4.206568036993    -1.265111509443    -2.523383181563
    C            1.965020150915     0.041465106337    -1.473245493848
    H            2.818378396144    -1.021541224461     0.185057828586
    H            2.283587672548    -2.050606091666    -1.116482983163
    C            0.534963657575     0.111052100632    -0.947460985663
    H            2.465204161705     0.980047154729    -1.268007777931
    H            1.923724995269    -0.064683626325    -2.553554581131
    C            0.403699384862     0.623082583736     0.473477223923
    H           -0.062658958837     0.774556588190    -1.567935420593
    H            0.052120343455    -0.858571327956    -1.016042448820
    C           -0.961998542216     0.622985535376     1.152740106465
    O            1.337190825942     1.054481263285     1.069958106911
    C           -2.166916997709     0.071421414249     0.395817773408
    H           -1.142815722933     1.654287862961     1.438384779825
    H           -0.826233797028     0.081978655674     2.083518319866
    C           -3.454150633483     0.181429050138     1.210070948051
    H           -2.297197796877     0.603100026446    -0.541842638265
    H           -2.002981430676    -0.970583513932     0.138720627148
    C           -4.672222873856    -0.369533384155     0.476910757609
    H           -3.627871571440     1.222486733904     1.467050107255
    H           -3.329469358646    -0.347236584019     2.150845936631
    H           -4.843449867472     0.162233512931    -0.453098671857
    H           -4.543613473470    -1.419821957440     0.237434204890
    H           -5.567394524213    -0.275810535546     1.080365661076

  Mulliken Charges: (a.u.)
   Center  Symbol    Alpha    Beta     Spin     Total
       1     H     0.44874  0.44874  0.00000  0.10251
       2     C     3.15195  3.15195  0.00000 -0.30391
       3     C     3.08371  3.08371  0.00000 -0.16742
       4     H     0.45188  0.45188  0.00000  0.09623
       5     H     0.45727  0.45727  0.00000  0.08547
       6     C     3.08668  3.08668  0.00000 -0.17335
       7     H     0.44420  0.44420  0.00000  0.11160
       8     H     0.45925  0.45925  0.00000  0.08150
       9     C     3.13180  3.13180  0.00000 -0.26360
      10     H     0.44562  0.44562  0.00000  0.10875
      11     H     0.44779  0.44779  0.00000  0.10442
      12     C     2.87611  2.87611  0.00000  0.24777
      13     H     0.43190  0.43190  0.00000  0.13620
      14     H     0.43969  0.43969  0.00000  0.12062
      15     C     3.08555  3.08555  0.00000 -0.17110
      16     O     4.18301  4.18301  0.00000 -0.36602
      17     C     3.10104  3.10104  0.00000 -0.20208
      18     H     0.43879  0.43879  0.00000  0.12243
      19     H     0.43867  0.43867  0.00000  0.12266
      20     C     3.08613  3.08613  0.00000 -0.17226
      21     H     0.45019  0.45019  0.00000  0.09962
      22     H     0.45035  0.45035  0.00000  0.09931
      23     C     3.14953  3.14953  0.00000 -0.29905
      24     H     0.45214  0.45214  0.00000  0.09572
      25     H     0.45206  0.45206  0.00000  0.09588
      26     H     0.45475  0.45475  0.00000  0.09050
      27     H     0.45472  0.45472  0.00000  0.09055
      28     H     0.44649  0.44649  0.00000  0.10702

   Total alpha = 40.00000, Total beta = 40.00000, Total charge =  0.00000

*** Psi4 exiting successfully. Buy a developer a beer!
