  ==> Input File <==

--------------------------------------------------------------------------
set {
	reference rhf
	basis 6-31G*
}

set_num_threads( 1 )
memory 2 gb

molecule MOL {
0 1

H	 -3.892951	 0.981613	 -0.358725
C	 -3.196921	 0.361773	 0.172313
C	 -2.076860	 -0.007332	 -0.404944
H	 -3.439953	 0.057760	 1.173024
O	 -1.912252	 0.038765	 -1.753143
H	 -1.221130	 -0.347523	 0.151106
C	 -0.770653	 -0.531046	 -2.295282
C	 -0.953955	 -2.008658	 -2.558641
H	 0.095789	 -0.407118	 -1.655269
H	 -0.578610	 -0.047360	 -3.241671
F	 0.147528	 -2.498304	 -3.108902
F	 -1.178622	 -2.681937	 -1.442375
F	 -1.956937	 -2.244535	 -3.378872

	symmetry c1
}
set optking {
	frozen_dihedral = ("
		11 8 7 9,
		3 5 7 9,
		6 3 5 7
	")
}

ee = energy('scf')
oeprop('DIPOLE', 'QUADRUPOLE', 'MULLIKEN_CHARGES')
f=open( 'psi4out.xyz', 'w' )
f.write( "13  " )
f.write( str(ee) + "\n" )
f.write( MOL.save_string_xyz() )
f.close()
--------------------------------------------------------------------------

    Molecular point group: c1

    Geometry (in Angstrom), charge = 0, multiplicity = 1:

       Center              X                  Y                   Z               Mass
    ------------   -----------------  -----------------  -----------------  -----------------
           H         -2.461201126698     2.302122109678     1.574972846941     1.007825032070
           C         -1.765171126698     1.682282109678     2.106010846941    12.000000000000
           C         -0.645110126698     1.313177109678     1.528753846941    12.000000000000
           H         -2.008203126698     1.378269109678     3.106721846941     1.007825032070
           O         -0.480502126698     1.359274109678     0.180554846941    15.994914619560
           H          0.210619873302     0.972986109678     2.084803846941     1.007825032070
           C          0.661096873302     0.789463109678    -0.361584153059    12.000000000000
           C          0.477794873302    -0.688148890322    -0.624943153059    12.000000000000
           H          1.527538873302     0.913391109678     0.278428846941     1.007825032070
           H          0.853139873302     1.273149109678    -1.307973153059     1.007825032070
           F          1.579277873302    -1.177794890322    -1.175204153059    18.998403224000
           F          0.253127873302    -1.361427890322     0.491322846941    18.998403224000
           F         -0.525187126698    -0.924025890322    -1.445174153059    18.998403224000

  Charge       = 0
  Multiplicity = 1
  Basis Set: 6-31G*
  Basis Set:

    Orbital Energies (a.u.)
    -----------------------

    Doubly Occupied:

       1A    -26.344837     2A    -26.343249     3A    -26.340419
       4A    -20.608671     5A    -11.503341     6A    -11.319516
       7A    -11.300744     8A    -11.214413     9A     -1.741628
      10A     -1.639816    11A     -1.638041    12A     -1.438710
      13A     -1.084439    14A     -1.016266    15A     -0.925258
      16A     -0.836521    17A     -0.830848    18A     -0.821444
      19A     -0.791774    20A     -0.721780    21A     -0.711147
      22A     -0.696392    23A     -0.675742    24A     -0.660013
      25A     -0.654506    26A     -0.642951    27A     -0.633975
      28A     -0.586494    29A     -0.564994    30A     -0.525517
      31A     -0.512097    32A     -0.344871

  @DF-RHF Final Energy:  -527.52651205672305

   => Energetics <=

    Nuclear Repulsion Energy =            413.5212132835824264
    One-Electron Energy =               -1550.7544805165252910
    Two-Electron Energy =                 609.7067551762193034
    DFT Exchange-Correlation Energy =       0.0000000000000000
    Empirical Dispersion Energy =           0.0000000000000000
    PCM Polarization Energy =               0.0000000000000000
    EFP Energy =                            0.0000000000000000
    Total Energy =                       -527.5265120567235044

  Mulliken Charges: (a.u.)
   Center  Symbol    Alpha    Beta     Spin     Total
       1     H     0.40359  0.40359  0.00000  0.19283
       2     C     3.23945  3.23945  0.00000 -0.47889
       3     C     2.89410  2.89410  0.00000  0.21179
       4     H     0.40460  0.40460  0.00000  0.19080
       5     O     4.30059  4.30059  0.00000 -0.60117
       6     H     0.40676  0.40676  0.00000  0.18648
       7     C     3.06411  3.06411  0.00000 -0.12822
       8     C     2.45508  2.45508  0.00000  1.08984
       9     H     0.40541  0.40541  0.00000  0.18918
      10     H     0.38975  0.38975  0.00000  0.22051
      11     F     4.68277  4.68277  0.00000 -0.36553
      12     F     4.67945  4.67945  0.00000 -0.35889
      13     F     4.67436  4.67436  0.00000 -0.34873

   Total alpha = 32.00000, Total beta = 32.00000, Total charge =  0.00000
