                              Psi4 1.0.54 Driver

  ==> Input File <==

--------------------------------------------------------------------------
set {
	reference rhf
	basis cc-pvtz
}

set_num_threads( 4 )
memory 2 gb

molecule MOL {
0 1

H	 3.273419	 0.176595	 -0.102789
N	 2.433987	 -0.362316	 -0.080024
C	 1.263552	 0.494993	 0.021953
H	 2.497638	 -0.973615	 0.707122
C	 -0.016533	 -0.325589	 -0.026925
H	 1.280915	 1.180773	 -0.818522
H	 1.263064	 1.106893	 0.925038
C	 -1.280353	 0.525521	 0.047747
H	 -0.016686	 -0.912532	 -0.939714
H	 -0.014099	 -1.037598	 0.796369
C	 -1.711775	 0.828804	 1.478790
H	 -2.088072	 0.014671	 -0.469541
H	 -1.121038	 1.459423	 -0.484532
H	 -1.911629	 -0.084753	 2.028517
H	 -2.612996	 1.430773	 1.498410
H	 -0.939543	 1.372070	 2.013301

	symmetry c1
}
set optking {
	frozen_dihedral = ("
		12 8 5 9
	")
}

ee,wfn = optimize('scf', return_wfn=True)
oeprop( wfn, 'DIPOLE', 'QUADRUPOLE', 'MULLIKEN_CHARGES')
f=open( 'psi4out.xyz', 'w' )
f.write( "16  " )
f.write( str(ee) + "\n" )
f.write( MOL.save_string_xyz() )
f.close()
--------------------------------------------------------------------------

    Molecular point group: c1
  Charge       = 0
  Multiplicity = 1
  Basis Set: CC-PVTZ
  Basis Set:
  @DF-RHF Final Energy:  -212.39729386587393
    Total Energy =                       -212.3972938658740190
    Molecular point group: c1
  Basis Set: CC-PVTZ
  Basis Set:
  Basis Set: CC-PVTZ
  Basis Set:
  @DF-RHF Final Energy:  -212.39751477778384
    Total Energy =                       -212.3975147777840675
  Basis Set: CC-PVTZ
  Basis Set:
  Basis Set: CC-PVTZ
  Basis Set:
  @DF-RHF Final Energy:  -212.39755260929650
    Total Energy =                       -212.3975526092966675
  Basis Set: CC-PVTZ
  Basis Set:
  Charge       = 0
  Multiplicity = 1
  Basis Set: CC-PVTZ
  Basis Set:

    Orbital Energies (a.u.)
    -----------------------

    Doubly Occupied:

       1A    -15.526552     2A    -11.238194     3A    -11.213207
       4A    -11.207985     5A    -11.206884     6A     -1.178327
       7A     -1.059544     8A     -0.957635     9A     -0.853904
      10A     -0.786355    11A     -0.659689    12A     -0.637084
      13A     -0.615710    14A     -0.574958    15A     -0.562704
      16A     -0.531693    17A     -0.501947    18A     -0.467657
      19A     -0.464271    20A     -0.461795    21A     -0.383532

  @DF-RHF Final Energy:  -212.39755326814381

   => Energetics <=

    Nuclear Repulsion Energy =            188.3306464649894849
    One-Electron Energy =                -659.2771413152602236
    Two-Electron Energy =                 258.5489415821270995
    DFT Exchange-Correlation Energy =       0.0000000000000000
    Empirical Dispersion Energy =           0.0000000000000000
    PCM Polarization Energy =               0.0000000000000000
    EFP Energy =                            0.0000000000000000
    Total Energy =                       -212.3975532681436107
    Molecular point group: c1
  Basis Set: CC-PVTZ
  Basis Set:

  -Total Gradient:
     Atom            X                  Y                   Z
    ------   -----------------  -----------------  -----------------
       1        0.000033437097    -0.000011462354     0.000002485193
       2        0.000026812879     0.000008605153     0.000004135338
       3        0.000006374909    -0.000002687058    -0.000000678692
       4        0.000003170299    -0.000002295804     0.000001472915
       5        0.001374538432     0.002517082864    -0.001840636568
       6       -0.000026020503     0.000002174897     0.000001302464
       7       -0.000004831904    -0.000011845710    -0.000011458486
       8       -0.000916330723    -0.001870935242     0.002692161635
       9       -0.000996909145    -0.001806470897     0.001117319852
      10       -0.000006445958     0.000019747352    -0.000010133410
      11        0.000003141346     0.000015689753     0.000030764908
      12        0.000488143115     0.001150267982    -0.001968925501
      13        0.000011739160    -0.000012988050     0.000020766393
      14        0.000010281889     0.000002032616    -0.000028792992
      15       -0.000005134048     0.000004907954    -0.000003374675
      16       -0.000001966845    -0.000001823456    -0.000006408373

  **** Optimization is complete! (in 4 steps) ****
    Final optimized geometry and variables:
    Molecular point group: c1

    Geometry (in Angstrom), charge = 0, multiplicity = 1:

    H            3.099779541549     0.021676382671    -0.436377533082
    N            2.272097361091    -0.534975052053    -0.407917899435
    C            1.083335074539     0.297301240398    -0.310258755421
    H            2.350379972238    -1.138820841404     0.383643514198
    C           -0.177506396303    -0.553921600721    -0.360004083309
    H            1.083555716794     0.976853826804    -1.155776183114
    H            1.073236046598     0.915529103660     0.587471710311
    C           -1.475231676088     0.250727864565    -0.223509393732
    H           -0.180370252160    -1.117572166943    -1.285680559268
    H           -0.134095602346    -1.296810875576     0.434524735757
    C           -1.885958497894     0.537439005434     1.218086519282
    H           -2.277010845827    -0.276580437111    -0.729171598104
    H           -1.368236289462     1.191177091428    -0.758666523501
    H           -2.070976387922    -0.384746276166     1.758680352513
    H           -2.793231879728     1.129699986970     1.254960609304
    H           -1.116777912099     1.083691735586     1.752590997620

  Mulliken Charges: (a.u.)
   Center  Symbol    Alpha    Beta     Spin     Total
       1     H     0.43010  0.43010  0.00000  0.13980
       2     N     3.69008  3.69008  0.00000 -0.38017
       3     C     3.02544  3.02544  0.00000 -0.05088
       4     H     0.43036  0.43036  0.00000  0.13927
       5     C     3.08668  3.08668  0.00000 -0.17336
       6     H     0.45667  0.45667  0.00000  0.08666
       7     H     0.46722  0.46722  0.00000  0.06555
       8     C     3.09581  3.09581  0.00000 -0.19161
       9     H     0.44392  0.44392  0.00000  0.11217
      10     H     0.46223  0.46223  0.00000  0.07555
      11     C     3.14783  3.14783  0.00000 -0.29565
      12     H     0.44733  0.44733  0.00000  0.10534
      13     H     0.45674  0.45674  0.00000  0.08653
      14     H     0.45515  0.45515  0.00000  0.08970
      15     H     0.44824  0.44824  0.00000  0.10353
      16     H     0.45621  0.45621  0.00000  0.08758

   Total alpha = 21.00000, Total beta = 21.00000, Total charge = -0.00000

*** Psi4 exiting successfully. Buy a developer a beer!
