  ==> Input File <==

--------------------------------------------------------------------------
set {
	reference rhf
	basis 6-31G*
}

set_num_threads( 4 )
memory 2 gb

molecule MOL {
0 1

O	 1.441320	 0.532077	 0.995555
C	 0.861134	 0.272526	 -0.014869
C	 -0.623889	 -0.118271	 -0.003699
C	 1.600124	 0.322104	 -1.340554
C	 -0.895332	 -1.256461	 -1.002431
C	 -1.473649	 1.103340	 -0.370799
C	 -0.983900	 -0.581483	 1.422328
H	 -0.615301	 -0.972064	 -2.012700
H	 -1.954261	 -1.493213	 -1.010207
H	 -0.360539	 -2.164946	 -0.747760
H	 -1.227476	 1.468527	 -1.361691
H	 -2.526716	 0.838935	 -0.358521
H	 -1.314819	 1.915855	 0.325860
H	 -2.039679	 -0.828001	 1.472951
H	 -0.427637	 -1.464071	 1.720694
H	 -0.789023	 0.202493	 2.147048
H	 1.360236	 1.248643	 -1.853818
H	 2.663468	 0.302506	 -1.145534
H	 1.332966	 -0.494366	 -2.000269

	symmetry c1
}
set optking {
	frozen_dihedral = ("
		1 2 3 5
	")
}

ee = optimize('scf')
oeprop('DIPOLE', 'QUADRUPOLE', 'MULLIKEN_CHARGES')
f=open( 'psi4out.xyz', 'w' )
f.write( "19  " )
f.write( str(ee) + "\n" )
f.write( MOL.save_string_xyz() )
f.close()
--------------------------------------------------------------------------

    Molecular point group: c1
  Charge       = 0
  Multiplicity = 1
  Basis Set: 6-31G*
  Basis Set:
  @DF-RHF Final Energy:  -309.06000632066639
    Total Energy =                       -309.0600063206663322
    Molecular point group: c1
  Basis Set: 6-31G*
  Basis Set:
  Basis Set: 6-31G*
  Basis Set:
  @DF-RHF Final Energy:  -309.06042388588043
    Total Energy =                       -309.0604238858803114
  Basis Set: 6-31G*
  Basis Set:
  Basis Set: 6-31G*
  Basis Set:
  @DF-RHF Final Energy:  -309.06112972638448
    Total Energy =                       -309.0611297263847064
  Basis Set: 6-31G*
  Basis Set:
  Basis Set: 6-31G*
  Basis Set:
  @DF-RHF Final Energy:  -309.06213018123395
    Total Energy =                       -309.0621301812338402
  Basis Set: 6-31G*
  Basis Set:
  @DF-RHF Final Energy:  -309.06236034582679
    Total Energy =                       -309.0623603458266189
  @DF-RHF Final Energy:  -309.06249627271956
    Total Energy =                       -309.0624962727194998
  @DF-RHF Final Energy:  -309.06263027766295
    Total Energy =                       -309.0626302776631178
  @DF-RHF Final Energy:  -309.06275527243656
    Total Energy =                       -309.0627552724364477
  @DF-RHF Final Energy:  -309.06302736393752
    Total Energy =                       -309.0630273639374082
  Basis Set: 6-31G*
  Basis Set:
  @DF-RHF Final Energy:  -309.06307604503655
    Total Energy =                       -309.0630760450367234
  Basis Set: 6-31G*
  Basis Set:
  Basis Set: 6-31G*
  Basis Set:
  @DF-RHF Final Energy:  -309.06308969225012
    Total Energy =                       -309.0630896922499460
  Basis Set: 6-31G*
  Basis Set:
  Basis Set: 6-31G*
  Basis Set:
  @DF-RHF Final Energy:  -309.06309668440917
    Total Energy =                       -309.0630966844093450
  Basis Set: 6-31G*
  Basis Set:
  Charge       = 0
  Multiplicity = 1
  Basis Set: 6-31G*
  Basis Set:

    Orbital Energies (a.u.)
    -----------------------

    Doubly Occupied:

       1A    -20.548243     2A    -11.322842     3A    -11.246443
       4A    -11.226892     5A    -11.224435     6A    -11.223898
       7A    -11.208660     8A     -1.394586     9A     -1.109624
      10A     -1.002148    11A     -0.946526    12A     -0.935100
      13A     -0.835004    14A     -0.703631    15A     -0.664506
      16A     -0.631705    17A     -0.620177    18A     -0.596424
      19A     -0.591310    20A     -0.565680    21A     -0.546175
      22A     -0.545030    23A     -0.524422    24A     -0.512732
      25A     -0.499067    26A     -0.471810    27A     -0.465315
      28A     -0.392469

  @DF-RHF Final Energy:  -309.06309745860165

   => Energetics <=

    Nuclear Repulsion Energy =            326.3034565655249253
    One-Electron Energy =               -1065.6233988573142142
    Two-Electron Energy =                 430.2568448331877562
    DFT Exchange-Correlation Energy =       0.0000000000000000
    Empirical Dispersion Energy =           0.0000000000000000
    PCM Polarization Energy =               0.0000000000000000
    EFP Energy =                            0.0000000000000000
    Total Energy =                       -309.0630974586015327
    Molecular point group: c1
  Basis Set: 6-31G*
  Basis Set:

  -Total Gradient:
     Atom            X                  Y                   Z
    ------   -----------------  -----------------  -----------------
       1       -0.000088796913     0.000374668081    -0.000007795378
       2        0.000099661678    -0.000439633787    -0.000038189640
       3        0.000056790559    -0.000126700683     0.000249976058
       4       -0.000011265921    -0.000014535793    -0.000015829184
       5       -0.000047018463     0.000207672793    -0.000178978547
       6        0.000003339277    -0.000002432827    -0.000012322935
       7       -0.000010588005    -0.000017744474     0.000000117421
       8        0.000000990472     0.000003675020    -0.000001279636
       9       -0.000004135425    -0.000001340822     0.000000912766
      10        0.000001497641     0.000007691648     0.000002301438
      11       -0.000005295669     0.000000246308    -0.000002192867
      12       -0.000004833271     0.000004891121     0.000004917651
      13        0.000002672801    -0.000008096496    -0.000004067585
      14       -0.000003938051     0.000000309930     0.000006356619
      15       -0.000002989322     0.000001864280     0.000002084574
      16        0.000000937036    -0.000001353397    -0.000000724604
      17        0.000009037032     0.000002281868    -0.000008081204
      18        0.000005861797    -0.000002406315    -0.000001140334
      19       -0.000001927252     0.000010943546     0.000003935388

  **** Optimization is complete! (in 13 steps) ****
    Final optimized geometry and variables:
    Molecular point group: c1

    Geometry (in Angstrom), charge = 0, multiplicity = 1:

    O            1.473566103267     0.413415825301     1.049760867990
    C            0.880900752558     0.199050620677     0.035867066557
    C           -0.613274194762    -0.156617088656     0.049330110672
    C            1.602866339496     0.301276530902    -1.295632512398
    C           -0.933432735632    -1.256366015253    -0.976810194790
    C           -1.397876501177     1.123757401873    -0.302415855860
    C           -1.010992736173    -0.628077407705     1.452685940282
    H           -0.728268558824    -0.943822614896    -1.994732803491
    H           -1.986013052911    -1.513995311217    -0.921407369951
    H           -0.364272236101    -2.160574569382    -0.780460047901
    H           -1.162915532709     1.487660464672    -1.297608742922
    H           -2.464035606646     0.922784233675    -0.270769749973
    H           -1.185025258209     1.916676236952     0.406903385288
    H           -2.071805602073    -0.858572985945     1.479327945797
    H           -0.464009412965    -1.521018528727     1.735459749162
    H           -0.804690990198     0.131336923321     2.194770270160
    H            1.018514841160     0.822740045362    -2.044612809880
    H            2.541917152823     0.814462684692    -1.142203938469
    H            1.808619376569    -0.694024435447    -1.678043676299

  Mulliken Charges: (a.u.)
   Center  Symbol    Alpha    Beta     Spin     Total
       1     O     4.26448  4.26448  0.00000 -0.52897
       2     C     2.72503  2.72503  0.00000  0.54994
       3     C     3.06874  3.06874  0.00000 -0.13748
       4     C     3.28956  3.28956  0.00000 -0.57911
       5     C     3.24150  3.24150  0.00000 -0.48300
       6     C     3.24113  3.24113  0.00000 -0.48225
       7     C     3.22731  3.22731  0.00000 -0.45462
       8     H     0.41722  0.41722  0.00000  0.16555
       9     H     0.41357  0.41357  0.00000  0.17286
      10     H     0.41565  0.41565  0.00000  0.16870
      11     H     0.41870  0.41870  0.00000  0.16260
      12     H     0.41307  0.41307  0.00000  0.17386
      13     H     0.40889  0.40889  0.00000  0.18222
      14     H     0.42337  0.42337  0.00000  0.15327
      15     H     0.41608  0.41608  0.00000  0.16784
      16     H     0.40546  0.40546  0.00000  0.18907
      17     H     0.41012  0.41012  0.00000  0.17976
      18     H     0.39587  0.39587  0.00000  0.20826
      19     H     0.40425  0.40425  0.00000  0.19150

   Total alpha = 28.00000, Total beta = 28.00000, Total charge = -0.00000
