  ==> Input File <==

--------------------------------------------------------------------------
set {
	reference rhf
	basis 6-31G*
}

set_num_threads( 4 )
memory 2 gb

molecule MOL {
0 1

H	 1.299240	 6.620071	 -0.486216
C	 0.284349	 6.315667	 -0.722554
C	 0.137662	 4.795443	 -0.671798
H	 -0.379337	 6.794852	 -0.008941
H	 0.044389	 6.701999	 -1.709452
C	 -1.281464	 4.331335	 -1.007211
H	 0.409482	 4.442069	 0.317566
H	 0.838823	 4.343079	 -1.371392
C	 -1.454533	 2.812558	 -0.982143
H	 -1.983850	 4.777424	 -0.312011
H	 -1.547100	 4.689241	 -1.999371
C	 -1.411804	 2.199737	 0.409930
H	 -2.420277	 2.545713	 -1.408642
H	 -0.711484	 2.326287	 -1.610312
C	 -1.181045	 0.701995	 0.511084
O	 -1.571391	 2.862566	 1.390540
C	 -2.285934	 -0.139295	 -0.145128
H	 -1.105101	 0.463673	 1.565195
H	 -0.225370	 0.467087	 0.046123
C	 -3.651768	 0.085446	 0.506485
H	 -2.346596	 0.110469	 -1.202272
H	 -2.034737	 -1.195320	 -0.088721
C	 -4.759797	 -0.746382	 -0.137905
H	 -3.908762	 1.140117	 0.445781
H	 -3.588286	 -0.154158	 1.565709
H	 -4.868882	 -0.505166	 -1.191300
H	 -4.548009	 -1.809175	 -0.062213
H	 -5.715422	 -0.564821	 0.343442

	symmetry c1
}
set optking {
	frozen_dihedral = ("
		12 15 17 21
	")
}

ee = optimize('scf')
oeprop('DIPOLE', 'QUADRUPOLE', 'MULLIKEN_CHARGES')
f=open( 'psi4out.xyz', 'w' )
f.write( "28  " )
f.write( str(ee) + "\n" )
f.write( MOL.save_string_xyz() )
f.close()
--------------------------------------------------------------------------

    Molecular point group: c1
  Charge       = 0
  Multiplicity = 1
  Basis Set: 6-31G*
  Basis Set:
  @DF-RHF Final Energy:  -426.16833248075181
    Total Energy =                       -426.1683324807521558
    Molecular point group: c1
  Basis Set: 6-31G*
  Basis Set:
  Basis Set: 6-31G*
  Basis Set:
  @DF-RHF Final Energy:  -426.16829068877064
    Total Energy =                       -426.1682906887704121
  Basis Set: 6-31G*
  Basis Set:
  Basis Set: 6-31G*
  Basis Set:
  @DF-RHF Final Energy:  -426.16565172374044
    Total Energy =                       -426.1656517237397566
  Basis Set: 6-31G*
  Basis Set:
  Basis Set: 6-31G*
  Basis Set:
  @DF-RHF Final Energy:  -426.16858985826082
    Total Energy =                       -426.1685898582608161
  Basis Set: 6-31G*
  Basis Set:
  Basis Set: 6-31G*
  Basis Set:
  @DF-RHF Final Energy:  -426.16863773305533
    Total Energy =                       -426.1686377330552205
  Basis Set: 6-31G*
  Basis Set:
  Basis Set: 6-31G*
  Basis Set:
  @DF-RHF Final Energy:  -426.16865701810070
    Total Energy =                       -426.1686570181004754
  Basis Set: 6-31G*
  Basis Set:
  Basis Set: 6-31G*
  Basis Set:
  @DF-RHF Final Energy:  -426.16865824631918
    Total Energy =                       -426.1686582463191826
  Basis Set: 6-31G*
  Basis Set:
  Charge       = 0
  Multiplicity = 1
  Basis Set: 6-31G*
  Basis Set:

    Orbital Energies (a.u.)
    -----------------------

    Doubly Occupied:

       1A    -20.548383     2A    -11.322149     3A    -11.231955
       4A    -11.230253     5A    -11.228966     6A    -11.223195
       7A    -11.216702     8A    -11.215023     9A    -11.212416
      10A    -11.205808    11A     -1.393421    12A     -1.094710
      13A     -1.076898    14A     -1.020837    15A     -0.990922
      16A     -0.906390    17A     -0.874004    18A     -0.812688
      19A     -0.797873    20A     -0.720995    21A     -0.665525
      22A     -0.651542    23A     -0.629551    24A     -0.613108
      25A     -0.608760    26A     -0.587503    27A     -0.584543
      28A     -0.573162    29A     -0.544245    30A     -0.535000
      31A     -0.517750    32A     -0.510755    33A     -0.501637
      34A     -0.484964    35A     -0.476465    36A     -0.472529
      37A     -0.467361    38A     -0.462598    39A     -0.455809
      40A     -0.393051

  @DF-RHF Final Energy:  -426.16865853362128

   => Energetics <=

    Nuclear Repulsion Energy =            540.8639774663770368
    One-Electron Energy =               -1649.9463806616154216
    Two-Electron Energy =                 682.9137446616166471
    DFT Exchange-Correlation Energy =       0.0000000000000000
    Empirical Dispersion Energy =           0.0000000000000000
    PCM Polarization Energy =               0.0000000000000000
    EFP Energy =                            0.0000000000000000
    Total Energy =                       -426.1686585336217377
    Molecular point group: c1
  Basis Set: 6-31G*
  Basis Set:

  -Total Gradient:
     Atom            X                  Y                   Z
    ------   -----------------  -----------------  -----------------
       1       -0.000002247846    -0.000000279134     0.000004796497
       2       -0.000000295740     0.000000598436     0.000008294510
       3        0.000010884794     0.000008961768    -0.000017598539
       4       -0.000003521157     0.000003944190    -0.000002025106
       5        0.000003648226    -0.000000528524    -0.000000435305
       6       -0.000006530301     0.000004971050     0.000001006969
       7        0.000002045035    -0.000010960789    -0.000000644249
       8        0.000001021336     0.000006524524    -0.000003940132
       9        0.000006406973     0.000003885408    -0.000010564430
      10       -0.000006311289     0.000004393892    -0.000004465474
      11        0.000007164242    -0.000008117217     0.000000300276
      12        0.000037317289    -0.000011379260    -0.000149109813
      13        0.000009853803     0.000003998190     0.000016196589
      14        0.000001407652     0.000003974312    -0.000010603403
      15       -0.000106745995     0.000038033475     0.000267551552
      16        0.000007888671     0.000001535434    -0.000000869704
      17        0.000211678791    -0.000206912620    -0.000167605122
      18        0.000001411364     0.000001208970    -0.000003738554
      19       -0.000003806392    -0.000016482917     0.000003551475
      20       -0.000002700551    -0.000017999955     0.000021956020
      21       -0.000170017915     0.000160549978     0.000054656296
      22        0.000011052563     0.000020334366     0.000002421244
      23        0.000000293836     0.000007058466    -0.000006568323
      24       -0.000004758090    -0.000004671604    -0.000000469920
      25       -0.000003804387     0.000004494633     0.000002412456
      26       -0.000006534552    -0.000001542559    -0.000006117116
      27        0.000004474955     0.000006657675     0.000000155173
      28        0.000000724683    -0.000002250184     0.000001456130

  **** Optimization is complete! (in 8 steps) ****
    Final optimized geometry and variables:
    Molecular point group: c1

    Geometry (in Angstrom), charge = 0, multiplicity = 1:

    H            3.067058581226     4.279401949310    -0.403499464786
    C            2.049167798473     3.985261816449    -0.639880341443
    C            1.887854396234     2.466454710068    -0.591665096299
    H            1.390504116760     4.469614105328     0.074905606324
    H            1.812535542148     4.375630751948    -1.626012300050
    C            0.463913745940     2.016718885540    -0.926381503275
    H            2.157267596572     2.108609172071     0.396705705016
    H            2.583760326676     2.008608712681    -1.292931537358
    C            0.275470730746     0.499687030057    -0.901313882194
    H           -0.233617679236     2.470076350472    -0.230981539145
    H            0.201657797459     2.377198328680    -1.918474942885
    C            0.309620015058    -0.113194105081     0.491497893099
    H           -0.691561730769     0.242808956693    -1.330919356595
    H            1.015012883349     0.006085017105    -1.527736716600
    C            0.519243523712    -1.614932299235     0.590897041454
    O            0.166206190114     0.553676513690     1.471890718280
    C           -0.590024264151    -2.454832139140    -0.063056470696
    H            0.601364802758    -1.857327870530     1.643739851322
    H            1.470320424217    -1.853684946789     0.119433656904
    C           -1.960528071132    -2.281624211756     0.596780460644
    H           -0.661283806179    -2.220518833584    -1.122347760947
    H           -0.297042228725    -3.499710833836    -0.005568657171
    C           -3.036156696270    -3.157496622069    -0.044299322407
    H           -2.268213170692    -1.239882479050     0.546843999284
    H           -1.879254303015    -2.519900962848     1.654258504138
    H           -3.163576254914    -2.917881503284    -1.096357482110
    H           -2.777761653105    -4.210340703158     0.025175592020
    H           -3.995306000007    -3.019480083065     0.444262679082

  Mulliken Charges: (a.u.)
   Center  Symbol    Alpha    Beta     Spin     Total
       1     H     0.41931  0.41931  0.00000  0.16138
       2     C     3.24013  3.24013  0.00000 -0.48026
       3     C     3.15641  3.15641  0.00000 -0.31283
       4     H     0.41830  0.41830  0.00000  0.16340
       5     H     0.42363  0.42363  0.00000  0.15275
       6     C     3.14882  3.14882  0.00000 -0.29763
       7     H     0.41034  0.41034  0.00000  0.17932
       8     H     0.42766  0.42766  0.00000  0.14467
       9     C     3.21227  3.21227  0.00000 -0.42454
      10     H     0.40679  0.40679  0.00000  0.18641
      11     H     0.42198  0.42198  0.00000  0.15605
      12     C     2.73172  2.73172  0.00000  0.53656
      13     H     0.40362  0.40362  0.00000  0.19275
      14     H     0.41275  0.41275  0.00000  0.17451
      15     C     3.20248  3.20248  0.00000 -0.40496
      16     O     4.26729  4.26729  0.00000 -0.53458
      17     C     3.16380  3.16380  0.00000 -0.32760
      18     H     0.40023  0.40023  0.00000  0.19955
      19     H     0.41083  0.41083  0.00000  0.17834
      20     C     3.15445  3.15445  0.00000 -0.30890
      21     H     0.41921  0.41921  0.00000  0.16159
      22     H     0.41446  0.41446  0.00000  0.17109
      23     C     3.24024  3.24024  0.00000 -0.48049
      24     H     0.41794  0.41794  0.00000  0.16412
      25     H     0.41646  0.41646  0.00000  0.16707
      26     H     0.42200  0.42200  0.00000  0.15600
      27     H     0.42078  0.42078  0.00000  0.15845
      28     H     0.41611  0.41611  0.00000  0.16778

   Total alpha = 40.00000, Total beta = 40.00000, Total charge = -0.00000
