  ==> Input File <==

--------------------------------------------------------------------------
set {
	reference rhf
	basis 6-31G*
}

set_num_threads( 4 )
memory 2 gb

molecule MOL {
0 1

O	 -0.239038	 1.192314	 -0.778609
C	 -0.421659	 0.076355	 -0.414385
C	 -1.758425	 -0.611499	 -0.364574
O	 0.550821	 -0.724572	 0.000672
H	 -1.736766	 -1.499070	 -0.986212
H	 -2.526299	 0.064317	 -0.710309
H	 -1.970020	 -0.926595	 0.650573
C	 1.863949	 -0.193559	 -0.000319
H	 2.028859	 0.409284	 -0.881648
H	 2.526261	 -1.045082	 -0.000003
H	 2.029520	 0.410555	 0.880008

	symmetry c1
}
set optking {
	frozen_dihedral = ("
		2 4 8 9
	")
}

ee = optimize('scf')
oeprop('DIPOLE', 'QUADRUPOLE', 'MULLIKEN_CHARGES')
f=open( 'psi4out.xyz', 'w' )
f.write( "11  " )
f.write( str(ee) + "\n" )
f.write( MOL.save_string_xyz() )
f.close()
--------------------------------------------------------------------------

    Molecular point group: c1
  Charge       = 0
  Multiplicity = 1
  Basis Set: 6-31G*
  Basis Set:
  @DF-RHF Final Energy:  -266.83572421385202
    Total Energy =                       -266.8357242138521315
    Molecular point group: c1
  Basis Set: 6-31G*
  Basis Set:
  Basis Set: 6-31G*
  Basis Set:
  @DF-RHF Final Energy:  -266.83570701122244
    Total Energy =                       -266.8357070112222118
  Basis Set: 6-31G*
  Basis Set:
  Basis Set: 6-31G*
  Basis Set:
  @DF-RHF Final Energy:  -266.83526247938983
    Total Energy =                       -266.8352624793900532
  Basis Set: 6-31G*
  Basis Set:
  Basis Set: 6-31G*
  Basis Set:
  @DF-RHF Final Energy:  -266.83582268052004
    Total Energy =                       -266.8358226805200957
  Basis Set: 6-31G*
  Basis Set:
  Charge       = 0
  Multiplicity = 1
  Basis Set: 6-31G*
  Basis Set:

    Orbital Energies (a.u.)
    -----------------------

    Doubly Occupied:

       1A    -20.605634     2A    -20.546329     3A    -11.376844
       4A    -11.281766     5A    -11.234533     6A     -1.470499
       7A     -1.364704     8A     -1.035989     9A     -0.953123
      10A     -0.778115    11A     -0.696229    12A     -0.680265
      13A     -0.677168    14A     -0.595830    15A     -0.591776
      16A     -0.560875    17A     -0.526078    18A     -0.522326
      19A     -0.457033    20A     -0.442249

  @DF-RHF Final Energy:  -266.83583173520572

   => Energetics <=

    Nuclear Repulsion Energy =            183.1992742318602154
    One-Electron Energy =                -727.2754810156071699
    Two-Electron Energy =                 277.2403750485414093
    DFT Exchange-Correlation Energy =       0.0000000000000000
    Empirical Dispersion Energy =           0.0000000000000000
    PCM Polarization Energy =               0.0000000000000000
    EFP Energy =                            0.0000000000000000
    Total Energy =                       -266.8358317352056019
    Molecular point group: c1
  Basis Set: 6-31G*
  Basis Set:

  -Total Gradient:
     Atom            X                  Y                   Z
    ------   -----------------  -----------------  -----------------
       1        0.000009591309    -0.000052319229     0.000025984715
       2        0.000175449123    -0.000396288545    -0.001306730357
       3        0.000031534658    -0.000000336473     0.000025833388
       4       -0.000372301155     0.000961973960     0.001994680576
       5        0.000006165668    -0.000004667610     0.000000041632
       6        0.000008351794     0.000008298068     0.000004725180
       7       -0.000004318741     0.000000324447    -0.000001786951
       8        0.000661592714    -0.001784348841    -0.001476151860
       9       -0.000499342771     0.001278211556     0.000746712492
      10       -0.000008759874    -0.000007388951    -0.000007205765
      11       -0.000007962724    -0.000003458382    -0.000006103047

  **** Optimization is complete! (in 5 steps) ****
    Final optimized geometry and variables:
    Molecular point group: c1

    Geometry (in Angstrom), charge = 0, multiplicity = 1:

    O           -0.271535948632     1.252863980075    -0.458626911589
    C           -0.444002696408     0.132203873872    -0.104244602122
    C           -1.775661073518    -0.566122818736    -0.061103603667
    O            0.531078938854    -0.666067579321     0.310695460266
    H           -1.746277897679    -1.449860347323    -0.687824816700
    H           -2.548066324930     0.106043060891    -0.403624608695
    H           -1.986306950554    -0.888764889511     0.951952949569
    C            1.851399813985    -0.152111584621     0.297930882672
    H            2.023849901116     0.440123715820    -0.586903852261
    H            2.507742517781    -1.007882291964     0.324244023118
    H            2.014778987500     0.465221162476     1.171296568607

  Mulliken Charges: (a.u.)
   Center  Symbol    Alpha    Beta     Spin     Total
       1     O     4.28201  4.28201  0.00000 -0.56402
       2     C     2.62236  2.62236  0.00000  0.75528
       3     C     3.28181  3.28181  0.00000 -0.56362
       4     O     4.29993  4.29993  0.00000 -0.59985
       5     H     0.40008  0.40008  0.00000  0.19983
       6     H     0.39664  0.39664  0.00000  0.20671
       7     H     0.39982  0.39982  0.00000  0.20036
       8     C     3.09402  3.09402  0.00000 -0.18805
       9     H     0.40250  0.40250  0.00000  0.19500
      10     H     0.40873  0.40873  0.00000  0.18254
      11     H     0.41210  0.41210  0.00000  0.17581

   Total alpha = 20.00000, Total beta = 20.00000, Total charge =  0.00000
