  ==> Input File <==

--------------------------------------------------------------------------
set {
	reference rhf
	basis cc-pvtz
}

set_num_threads( 4 )
memory 2 gb

molecule MOL {
0 1

H	 -2.252071	 -0.481870	 0.621703
C	 -1.862940	 -0.772703	 -0.348677
O	 -0.775228	 0.000056	 -0.739966
H	 -2.639058	 -0.612896	 -1.083697
H	 -1.632897	 -1.832981	 -0.325817
C	 0.406133	 -0.000384	 0.036994
C	 1.526415	 -0.003194	 -0.997339
C	 0.498772	 1.259027	 0.900673
C	 0.495883	 -1.257378	 0.904465
H	 1.452279	 0.872071	 -1.630204
H	 1.451276	 -0.881020	 -1.626529
H	 2.497919	 -0.002741	 -0.517601
H	 0.368981	 2.144239	 0.289753
H	 1.470064	 1.313479	 1.377660
H	 -0.248448	 1.271586	 1.684297
H	 0.363971	 -2.144195	 0.296316
H	 1.467114	 -1.312636	 1.381470
H	 -0.251246	 -1.265768	 1.688235

	symmetry c1
}
set optking {
	frozen_dihedral = ("
		2 3 6 7
	")
}

ee = optimize('scf')
oeprop('DIPOLE', 'QUADRUPOLE', 'MULLIKEN_CHARGES')
f=open( 'psi4out.xyz', 'w' )
f.write( "18  " )
f.write( str(ee) + "\n" )
f.write( MOL.save_string_xyz() )
f.close()
--------------------------------------------------------------------------

    Molecular point group: c1
  Charge       = 0
  Multiplicity = 1
  Basis Set: CC-PVTZ
  Basis Set:
  @DF-RHF Final Energy:  -271.27175327592909
    Total Energy =                       -271.2717532759293135
    Molecular point group: c1
  Basis Set: CC-PVTZ
  Basis Set:
  Basis Set: CC-PVTZ
  Basis Set:
  @DF-RHF Final Energy:  -271.27241661744841
    Total Energy =                       -271.2724166174482434
  Basis Set: CC-PVTZ
  Basis Set:
  Basis Set: CC-PVTZ
  Basis Set:
  @DF-RHF Final Energy:  -271.27359842724957
    Total Energy =                       -271.2735984272492828
  Basis Set: CC-PVTZ
  Basis Set:
  Basis Set: CC-PVTZ
  Basis Set:
  @DF-RHF Final Energy:  -271.27366378096804
    Total Energy =                       -271.2736637809681497
  Basis Set: CC-PVTZ
  Basis Set:
  Basis Set: CC-PVTZ
  Basis Set:
  @DF-RHF Final Energy:  -271.27366953596601
    Total Energy =                       -271.2736695359656665
  Basis Set: CC-PVTZ
  Basis Set:
  Charge       = 0
  Multiplicity = 1
  Basis Set: CC-PVTZ
  Basis Set:

    Orbital Energies (a.u.)
    -----------------------

    Doubly Occupied:

       1A    -20.538018     2A    -11.280557     3A    -11.259318
       4A    -11.210973     5A    -11.203442     6A    -11.201899
       7A     -1.370564     8A     -1.075305     9A     -0.950577
      10A     -0.937169    11A     -0.912149    12A     -0.752486
      13A     -0.657640    14A     -0.648121    15A     -0.638737
      16A     -0.585622    17A     -0.576447    18A     -0.550665
      19A     -0.540268    20A     -0.526412    21A     -0.515381
      22A     -0.492285    23A     -0.484567    24A     -0.442337
      25A     -0.401064

  @DF-RHF Final Energy:  -271.27366982067582

   => Energetics <=

    Nuclear Repulsion Energy =            272.2616413375084790
    One-Electron Energy =                -907.5666160357870922
    Two-Electron Energy =                 364.0313048776025653
    DFT Exchange-Correlation Energy =       0.0000000000000000
    Empirical Dispersion Energy =           0.0000000000000000
    PCM Polarization Energy =               0.0000000000000000
    EFP Energy =                            0.0000000000000000
    Total Energy =                       -271.2736698206759911
    Molecular point group: c1
  Basis Set: CC-PVTZ
  Basis Set:

  -Total Gradient:
     Atom            X                  Y                   Z
    ------   -----------------  -----------------  -----------------
       1        0.000003356600     0.000004887085    -0.000001501027
       2        0.001034275574    -0.002483404839    -0.001840867327
       3       -0.001536345242     0.003012943285     0.002730363302
       4        0.000002930984     0.000002569263     0.000000333819
       5       -0.000004138532     0.000005420976    -0.000000967260
       6        0.000529524676     0.002037400363    -0.000871186257
       7       -0.000074054415    -0.002592058623    -0.000050148569
       8        0.000043390930     0.000022609857     0.000020050474
       9        0.000023325748    -0.000007152797     0.000019272446
      10        0.000018313342    -0.000002474010    -0.000044211516
      11       -0.000017135018    -0.000006690368     0.000033989052
      12       -0.000020399251     0.000030348403     0.000007140733
      13       -0.000009298601    -0.000008244364     0.000000550164
      14        0.000003785410     0.000017259221     0.000003537470
      15        0.000005889887    -0.000009604620     0.000004213764
      16       -0.000009239696    -0.000019319112    -0.000003249950
      17       -0.000009931485     0.000000587142    -0.000005947561
      18        0.000015749090    -0.000005076861    -0.000001371757

  **** Optimization is complete! (in 6 steps) ****
    Final optimized geometry and variables:
    Molecular point group: c1

    Geometry (in Angstrom), charge = 0, multiplicity = 1:

    H           -2.276043953587    -0.345800689184     0.694124835009
    C           -1.924436239680    -0.589639953658    -0.305092952563
    O           -0.813378719567     0.156937156963    -0.677785583709
    H           -2.710510919603    -0.343663486066    -1.005051437228
    H           -1.745996679640    -1.658058202346    -0.357142508421
    C            0.390919320468     0.117713266828     0.072018256956
    C            1.508561788078     0.114929091186    -0.966425161291
    C            0.443853568004     1.378782439051     0.932046430214
    C            0.523163398133    -1.127493536148     0.951575799598
    H            1.401680731876     0.962458694981    -1.631730849166
    H            1.463520231003    -0.788068139398    -1.562427161913
    H            2.482330834680     0.169511471658    -0.493060831711
    H            0.359953905586     2.258170736956     0.306263585587
    H            1.372693530418     1.437530824621     1.488247951611
    H           -0.375556415090     1.391694769423     1.641933386859
    H            0.473627179017    -2.035440179694     0.363461587478
    H            1.485339225136    -1.108109392793     1.447846278128
    H           -0.239096014715    -1.172277680795     1.718756341139

  Mulliken Charges: (a.u.)
   Center  Symbol    Alpha    Beta     Spin     Total
       1     H     0.47026  0.47026  0.00000  0.05947
       2     C     3.04182  3.04182  0.00000 -0.08364
       3     O     4.19774  4.19774  0.00000 -0.39548
       4     H     0.44254  0.44254  0.00000  0.11493
       5     H     0.46773  0.46773  0.00000  0.06454
       6     C     2.87240  2.87240  0.00000  0.25520
       7     C     3.14026  3.14026  0.00000 -0.28052
       8     C     3.14508  3.14508  0.00000 -0.29016
       9     C     3.17618  3.17618  0.00000 -0.35236
      10     H     0.44754  0.44754  0.00000  0.10492
      11     H     0.45201  0.45201  0.00000  0.09598
      12     H     0.45912  0.45912  0.00000  0.08177
      13     H     0.44801  0.44801  0.00000  0.10398
      14     H     0.45546  0.45546  0.00000  0.08908
      15     H     0.45113  0.45113  0.00000  0.09774
      16     H     0.44526  0.44526  0.00000  0.10948
      17     H     0.44309  0.44309  0.00000  0.11383
      18     H     0.44438  0.44438  0.00000  0.11124

   Total alpha = 25.00000, Total beta = 25.00000, Total charge = -0.00000
