  ==> Input File <==

--------------------------------------------------------------------------
set {
	reference rhf
	basis 6-31G*
}

set_num_threads( 4 )
memory 2 gb

molecule MOL {
0 1

H	 -3.261111	 -0.295142	 1.469456
C	 -3.306842	 -0.277400	 0.373456
C	 -2.660244	 0.921717	 -0.272021
O	 -3.838538	 -1.161155	 -0.216482
C	 -1.220012	 1.144545	 0.209990
H	 -2.705793	 0.797307	 -1.347733
H	 -3.263782	 1.790044	 -0.010477
C	 -0.252658	 0.041456	 -0.226725
H	 -0.873521	 2.100229	 -0.171974
H	 -1.211708	 1.231594	 1.295398
C	 1.180775	 0.282413	 0.250794
H	 -0.266029	 -0.034465	 -1.312038
H	 -0.597733	 -0.921000	 0.146291
C	 2.148627	 -0.814315	 -0.201312
H	 1.516199	 1.249228	 -0.115937
H	 1.192670	 0.346017	 1.338083
C	 3.580890	 -0.659131	 0.322722
H	 2.166869	 -0.852443	 -1.289387
H	 1.762857	 -1.776509	 0.128956
C	 3.723929	 0.296773	 1.508220
H	 4.206731	 -0.300558	 -0.490725
H	 3.971912	 -1.636713	 0.597234
H	 3.325693	 1.279024	 1.267680
H	 3.202259	 -0.065479	 2.387770
H	 4.768190	 0.421497	 1.778327

	symmetry c1
}
set optking {
	frozen_dihedral = ("
		20 17 14 18
	")
}

ee = optimize('scf')
oeprop('DIPOLE', 'QUADRUPOLE', 'MULLIKEN_CHARGES')
f=open( 'psi4out.xyz', 'w' )
f.write( "25  " )
f.write( str(ee) + "\n" )
f.write( MOL.save_string_xyz() )
f.close()
--------------------------------------------------------------------------

    Molecular point group: c1
  Charge       = 0
  Multiplicity = 1
  Basis Set: 6-31G*
  Basis Set:
  @DF-RHF Final Energy:  -387.11349151898503
    Total Energy =                       -387.1134915189849153
    Molecular point group: c1
  Basis Set: 6-31G*
  Basis Set:
  Basis Set: 6-31G*
  Basis Set:
  @DF-RHF Final Energy:  -387.11398909471984
    Total Energy =                       -387.1139890947204094
  Basis Set: 6-31G*
  Basis Set:
  Basis Set: 6-31G*
  Basis Set:
  @DF-RHF Final Energy:  -387.11527575515419
    Total Energy =                       -387.1152757551540162
  Basis Set: 6-31G*
  Basis Set:
  Basis Set: 6-31G*
  Basis Set:
  @DF-RHF Final Energy:  -387.11522133828834
    Total Energy =                       -387.1152213382887339
  Basis Set: 6-31G*
  Basis Set:
  @DF-RHF Final Energy:  -387.11537922336669
    Total Energy =                       -387.1153792233671993
  @DF-RHF Final Energy:  -387.11542358749421
    Total Energy =                       -387.1154235874939786
  Basis Set: 6-31G*
  Basis Set:
  @DF-RHF Final Energy:  -387.11541717250145
    Total Energy =                       -387.1154171725019069
  Basis Set: 6-31G*
  Basis Set:
  Basis Set: 6-31G*
  Basis Set:
  @DF-RHF Final Energy:  -387.11542607183844
    Total Energy =                       -387.1154260718382147
  Basis Set: 6-31G*
  Basis Set:
  Basis Set: 6-31G*
  Basis Set:
  @DF-RHF Final Energy:  -387.11542135839295
    Total Energy =                       -387.1154213583927231
  Basis Set: 6-31G*
  Basis Set:
  Charge       = 0
  Multiplicity = 1
  Basis Set: 6-31G*
  Basis Set:

    Orbital Energies (a.u.)
    -----------------------

    Doubly Occupied:

       1A    -20.561958     2A    -11.326117     3A    -11.235249
       4A    -11.234593     5A    -11.223733     6A    -11.219655
       7A    -11.218327     8A    -11.217368     9A    -11.210930
      10A     -1.401897    11A     -1.103336    12A     -1.067158
      13A     -1.012299    14A     -0.942070    15A     -0.878077
      16A     -0.822889    17A     -0.787862    18A     -0.774285
      19A     -0.664508    20A     -0.664024    21A     -0.637351
      22A     -0.620883    23A     -0.606914    24A     -0.586956
      25A     -0.570359    26A     -0.558565    27A     -0.530276
      28A     -0.522744    29A     -0.515725    30A     -0.495207
      31A     -0.491289    32A     -0.480794    33A     -0.460579
      34A     -0.452327    35A     -0.441810    36A     -0.409486

  @DF-RHF Final Energy:  -387.11542638941734

   => Energetics <=

    Nuclear Repulsion Energy =            440.2325550563350021
    One-Electron Energy =               -1396.8007712073056155
    Two-Electron Energy =                 569.4527897615531629
    DFT Exchange-Correlation Energy =       0.0000000000000000
    Empirical Dispersion Energy =           0.0000000000000000
    PCM Polarization Energy =               0.0000000000000000
    EFP Energy =                            0.0000000000000000
    Total Energy =                       -387.1154263894173937
    Molecular point group: c1
  Basis Set: 6-31G*
  Basis Set:

  -Total Gradient:
     Atom            X                  Y                   Z
    ------   -----------------  -----------------  -----------------
       1        0.000001276845    -0.000000405030    -0.000000771790
       2       -0.000001604763     0.000009925866     0.000005586955
       3       -0.000003065146    -0.000000357632    -0.000001303807
       4       -0.000000071841    -0.000004097645    -0.000004379469
       5        0.000004813672    -0.000002844732     0.000004122486
       6        0.000000754784    -0.000001575880     0.000000839881
       7        0.000000527254    -0.000002567623     0.000000932251
       8       -0.000001935727    -0.000002092561    -0.000005626866
       9       -0.000001786810     0.000000147509    -0.000001190306
      10       -0.000000354085     0.000000969620    -0.000000438243
      11        0.000005303339    -0.000008883316     0.000006928540
      12        0.000001183918    -0.000001345170    -0.000001317717
      13       -0.000003385777     0.000000432224    -0.000001821897
      14        0.000885598061    -0.005060517810    -0.000965900455
      15       -0.000000429865    -0.000000363358    -0.000001984891
      16       -0.000003493486     0.000005561766     0.000001815677
      17       -0.000670293108    -0.003275477214     0.003667475082
      18       -0.000589626112     0.005276010459    -0.000140700030
      19       -0.000000078593    -0.000000108723    -0.000004102455
      20        0.000377439527     0.003071839126    -0.002556721792
      21       -0.000001225949    -0.000003587854    -0.000001874655
      22       -0.000003374933     0.000002761476    -0.000001936382
      23        0.000003817957    -0.000000626010     0.000000909573
      24       -0.000001039410    -0.000000292238     0.000003488304
      25        0.000001050261    -0.000002505249    -0.000002027993

  **** Optimization is complete! (in 10 steps) ****
    Final optimized geometry and variables:
    Molecular point group: c1

    Geometry (in Angstrom), charge = 0, multiplicity = 1:

    H           -3.262501074976    -0.277797113153     1.208132593841
    C           -3.271341579250    -0.253485559599     0.111246407144
    C           -2.605454178170     0.950604960008    -0.504811598824
    O           -3.786838769489    -1.131634031871    -0.501107133356
    C           -1.180560698352     1.169660121213     0.022728146118
    H           -2.617918287335     0.834192927867    -1.582361985686
    H           -3.216970348028     1.816853466112    -0.255472398700
    C           -0.198661783847     0.072558695956    -0.396648087377
    H           -0.823995948634     2.130243067562    -0.337595351236
    H           -1.205309958585     1.244339188134     1.108612925685
    C            1.221021832291     0.314593456727     0.120462891747
    H           -0.184481960355     0.004983936526    -1.482485143622
    H           -0.550529673133    -0.893832719955    -0.039907129892
    C            2.192188032305    -0.790138613814    -0.314626513597
    H            1.571480097949     1.277587440451    -0.245606615244
    H            1.195181225388     0.389292643614     1.204311510063
    C            3.670120894885    -0.611934519613     0.117556555867
    H            2.156113620355    -0.822581236915    -1.400210159892
    H            1.814433883229    -1.743049874837     0.045506122224
    C            3.938651655010     0.332897957675     1.292165163990
    H            4.236846788170    -0.240901722619    -0.732627937474
    H            4.089753481171    -1.587140096740     0.345478748896
    H            3.622289759308     1.347166857735     1.076238301550
    H            3.432430114138     0.012192236873     2.198143379564
    H            5.002367335193     0.361611631573     1.507648957894

  Mulliken Charges: (a.u.)
   Center  Symbol    Alpha    Beta     Spin     Total
       1     H     0.43263  0.43263  0.00000  0.13473
       2     C     2.83081  2.83081  0.00000  0.33838
       3     C     3.20815  3.20815  0.00000 -0.41630
       4     O     4.23778  4.23778  0.00000 -0.47556
       5     C     3.16638  3.16638  0.00000 -0.33275
       6     H     0.39973  0.39973  0.00000  0.20054
       7     H     0.40663  0.40663  0.00000  0.18674
       8     C     3.15478  3.15478  0.00000 -0.30956
       9     H     0.41296  0.41296  0.00000  0.17408
      10     H     0.41965  0.41965  0.00000  0.16070
      11     C     3.15575  3.15575  0.00000 -0.31151
      12     H     0.41836  0.41836  0.00000  0.16329
      13     H     0.41854  0.41854  0.00000  0.16291
      14     C     3.15513  3.15513  0.00000 -0.31025
      15     H     0.42289  0.42289  0.00000  0.15423
      16     H     0.42102  0.42102  0.00000  0.15795
      17     C     3.15462  3.15462  0.00000 -0.30923
      18     H     0.42033  0.42033  0.00000  0.15935
      19     H     0.42027  0.42027  0.00000  0.15947
      20     C     3.24245  3.24245  0.00000 -0.48490
      21     H     0.42146  0.42146  0.00000  0.15707
      22     H     0.41906  0.41906  0.00000  0.16188
      23     H     0.42011  0.42011  0.00000  0.15978
      24     H     0.42192  0.42192  0.00000  0.15616
      25     H     0.41860  0.41860  0.00000  0.16280

   Total alpha = 36.00000, Total beta = 36.00000, Total charge = -0.00000
