  ==> Input File <==

--------------------------------------------------------------------------
set {
	reference rhf
	basis cc-pvtz
}

set_num_threads( 4 )
memory 2 gb

molecule MOL {
0 1

O	 0.074770	 1.259872	 0.000487
C	 0.029490	 0.077183	 0.000078
C	 -1.232113	 -0.748027	 0.000015
O	 1.106773	 -0.690081	 -0.000204
C	 -2.501422	 0.088592	 -0.000052
H	 -1.188777	 -1.400384	 -0.865133
H	 -1.188857	 -1.400312	 0.865225
H	 -2.548170	 0.725504	 -0.873205
H	 -3.371613	 -0.556398	 -0.000040
H	 -2.548215	 0.725571	 0.873047
C	 2.363730	 -0.043783	 -0.000181
H	 2.475310	 0.572887	 -0.879672
H	 3.102282	 -0.828873	 0.000063
H	 2.475034	 0.573124	 0.879183

	symmetry c1
}
set optking {
	frozen_dihedral = ("
		11 4 2 3
	")
}

ee = optimize('scf')
oeprop('DIPOLE', 'QUADRUPOLE', 'MULLIKEN_CHARGES')
f=open( 'psi4out.xyz', 'w' )
f.write( "14  " )
f.write( str(ee) + "\n" )
f.write( MOL.save_string_xyz() )
f.close()
--------------------------------------------------------------------------

    Molecular point group: c1
  Charge       = 0
  Multiplicity = 1
  Basis Set: CC-PVTZ
  Basis Set:

    Orbital Energies (a.u.)
    -----------------------

    Doubly Occupied:

       1A    -20.597167     2A    -20.534996     3A    -11.365214
       4A    -11.279142     5A    -11.237252     6A    -11.214852
       7A     -1.473122     8A     -1.366743     9A     -1.065431
      10A     -0.981254    11A     -0.878885    12A     -0.771029
      13A     -0.702953    14A     -0.686122    15A     -0.675546
      16A     -0.621671    17A     -0.604235    18A     -0.545628
      19A     -0.538574    20A     -0.523146    21A     -0.515971
      22A     -0.497277    23A     -0.461309    24A     -0.442673

  @DF-RHF Final Energy:  -305.98771497595533

   => Energetics <=

    Nuclear Repulsion Energy =            247.5664782835500546
    One-Electron Energy =                -907.9480070299321142
    Two-Electron Energy =                 354.3938137704270162
    DFT Exchange-Correlation Energy =       0.0000000000000000
    Empirical Dispersion Energy =           0.0000000000000000
    PCM Polarization Energy =               0.0000000000000000
    EFP Energy =                            0.0000000000000000
    Total Energy =                       -305.9877149759550434
    Molecular point group: c1
  Basis Set: CC-PVTZ
  Basis Set:

  -Total Gradient:
     Atom            X                  Y                   Z
    ------   -----------------  -----------------  -----------------
       1        0.000057966163    -0.000033255834     0.000010520946
       2        0.000049002189     0.000012202885    -0.000021050333
       3       -0.000043167273     0.000009880032     0.000005643174
       4       -0.000037035912     0.000087542849     0.000016396901
       5        0.000001710544    -0.000027940604    -0.000001560984
       6       -0.000010663768    -0.000027346294    -0.000006976131
       7       -0.000013120819    -0.000027067924     0.000006647261
       8       -0.000008124947     0.000010483016    -0.000006942488
       9       -0.000010937189     0.000000431293     0.000001516177
      10       -0.000009652456     0.000009763349     0.000007196360
      11        0.000005417207    -0.000045411476    -0.000024090681
      12        0.000003620573     0.000009952793    -0.000005401957
      13        0.000021815294     0.000013326972     0.000004794121
      14       -0.000006829604     0.000007438943     0.000013307633

  **** Optimization is complete! (in 1 steps) ****
    Final optimized geometry and variables:
    Molecular point group: c1

    Geometry (in Angstrom), charge = 0, multiplicity = 1:

    O            0.074769567953     1.259871723446     0.000460761111
    C            0.029489567953     0.077182723446     0.000051761111
    C           -1.232113432047    -0.748027276554    -0.000011238889
    O            1.106772567953    -0.690081276554    -0.000230238889
    C           -2.501422432047     0.088591723446    -0.000078238889
    H           -1.188777432047    -1.400384276554    -0.865159238889
    H           -1.188857432047    -1.400312276554     0.865198761111
    H           -2.548170432047     0.725503723446    -0.873231238889
    H           -3.371613432047    -0.556398276554    -0.000066238889
    H           -2.548215432047     0.725570723446     0.873020761111
    C            2.363729567953    -0.043783276554    -0.000207238889
    H            2.475309567953     0.572886723446    -0.879698238889
    H            3.102281567953    -0.828873276554     0.000036761111
    H            2.475033567953     0.573123723446     0.879156761111

  Mulliken Charges: (a.u.)
   Center  Symbol    Alpha    Beta     Spin     Total
       1     O     4.19629  4.19629  0.00000 -0.39259
       2     C     2.80245  2.80245  0.00000  0.39510
       3     C     3.09449  3.09449  0.00000 -0.18897
       4     O     4.14709  4.14709  0.00000 -0.29418
       5     C     3.13977  3.13977  0.00000 -0.27953
       6     H     0.44122  0.44122  0.00000  0.11755
       7     H     0.44123  0.44123  0.00000  0.11755
       8     H     0.44836  0.44836  0.00000  0.10327
       9     H     0.45034  0.45034  0.00000  0.09931
      10     H     0.44836  0.44836  0.00000  0.10329
      11     C     3.03628  3.03628  0.00000 -0.07257
      12     H     0.45432  0.45432  0.00000  0.09136
      13     H     0.44549  0.44549  0.00000  0.10902
      14     H     0.45431  0.45431  0.00000  0.09138

   Total alpha = 24.00000, Total beta = 24.00000, Total charge = -0.00000
