  ==> Input File <==

--------------------------------------------------------------------------
set {
	reference rhf
	basis 6-31G*
}

set_num_threads( 4 )
memory 2 gb

molecule MOL {
0 1

H	 3.089270	 -1.380733	 0.000000
O	 2.178328	 -1.639175	 0.000000
C	 1.368216	 -0.558384	 0.000000
C	 1.734606	 0.646269	 -0.586409
C	 0.133669	 -0.682150	 0.613193
H	 2.695821	 0.740477	 -1.063093
C	 0.867119	 1.725343	 -0.559309
H	 -0.150577	 -1.612081	 1.066523
C	 -0.728885	 0.402996	 0.635912
H	 1.161734	 2.652483	 -1.016464
C	 -0.368635	 1.610576	 0.051325
C	 -2.056729	 0.276874	 1.293021
H	 -1.044014	 2.447460	 0.073541
O	 -2.457097	 -0.711249	 1.820149
H	 -2.672709	 1.180759	 1.264595

	symmetry c1
}
set optking {
	frozen_dihedral = ("
		4 3 2 1
	")
}

ee = optimize('scf')
oeprop('DIPOLE', 'QUADRUPOLE', 'MULLIKEN_CHARGES')
f=open( 'psi4out.xyz', 'w' )
f.write( "15  " )
f.write( str(ee) + "\n" )
f.write( MOL.save_string_xyz() )
f.close()
--------------------------------------------------------------------------

    Molecular point group: c1
  Charge       = 0
  Multiplicity = 1
  Basis Set: 6-31G*
  Basis Set:
  @DF-RHF Final Energy:  -418.28505208340692
    Total Energy =                       -418.2850520834074359
    Molecular point group: c1
  Basis Set: 6-31G*
  Basis Set:
  Basis Set: 6-31G*
  Basis Set:
  @DF-RHF Final Energy:  -418.28512512715207
    Total Energy =                       -418.2851251271519004
  Basis Set: 6-31G*
  Basis Set:
  Basis Set: 6-31G*
  Basis Set:
  @DF-RHF Final Energy:  -418.28518924656032
    Total Energy =                       -418.2851892465602077
  Basis Set: 6-31G*
  Basis Set:
  Basis Set: 6-31G*
  Basis Set:
  @DF-RHF Final Energy:  -418.28482390798706
    Total Energy =                       -418.2848239079874020
  Basis Set: 6-31G*
  Basis Set:
  Basis Set: 6-31G*
  Basis Set:
  @DF-RHF Final Energy:  -418.28520875353553
    Total Energy =                       -418.2852087535354713
  Basis Set: 6-31G*
  Basis Set:
  Basis Set: 6-31G*
  Basis Set:
  @DF-RHF Final Energy:  -418.28521020771922
    Total Energy =                       -418.2852102077189329
  Basis Set: 6-31G*
  Basis Set:
  Charge       = 0
  Multiplicity = 1
  Basis Set: 6-31G*
  Basis Set:

    Orbital Energies (a.u.)
    -----------------------

    Doubly Occupied:

       1A    -20.598106     2A    -20.564387     3A    -11.332576
       4A    -11.310495     5A    -11.252968     6A    -11.251704
       7A    -11.250106     8A    -11.247897     9A    -11.240259
      10A     -1.416917    11A     -1.404958    12A     -1.169789
      13A     -1.048750    14A     -1.027014    15A     -0.899267
      16A     -0.845374    17A     -0.811263    18A     -0.736359
      19A     -0.701249    20A     -0.685322    21A     -0.640079
      22A     -0.636279    23A     -0.613766    24A     -0.605608
      25A     -0.563168    26A     -0.549720    27A     -0.541634
      28A     -0.510859    29A     -0.486278    30A     -0.423553
      31A     -0.353181    32A     -0.329266

  @DF-RHF Final Energy:  -418.28521051000780

   => Energetics <=

    Nuclear Repulsion Energy =            403.0155010497003332
    One-Electron Energy =               -1368.5051174036934754
    Two-Electron Energy =                 547.2044058439851142
    DFT Exchange-Correlation Energy =       0.0000000000000000
    Empirical Dispersion Energy =           0.0000000000000000
    PCM Polarization Energy =               0.0000000000000000
    EFP Energy =                            0.0000000000000000
    Total Energy =                       -418.2852105100080280
    Molecular point group: c1
  Basis Set: 6-31G*
  Basis Set:

  -Total Gradient:
     Atom            X                  Y                   Z
    ------   -----------------  -----------------  -----------------
       1        0.000062656807     0.000008065508     0.001966724915
       2       -0.000399883823    -0.000303872473    -0.003136610939
       3        0.000964828600     0.000800908593     0.002409346127
       4       -0.000609661283    -0.000517931487    -0.001257847809
       5       -0.000006219379     0.000006344775     0.000018461598
       6        0.000001184269     0.000000528551    -0.000002346835
       7       -0.000063815906     0.000043619916     0.000042667409
       8       -0.000001971579    -0.000007424902    -0.000009373333
       9       -0.000008115008    -0.000052801229     0.000024039406
      10        0.000000991298    -0.000006465137    -0.000000995689
      11        0.000060722804     0.000020862932    -0.000050809415
      12        0.000017768708     0.000019622062    -0.000003798091
      13       -0.000010758594    -0.000002348644     0.000000197345
      14       -0.000003673097    -0.000005994355     0.000000888906
      15       -0.000004053811    -0.000003114110    -0.000000543594

  **** Optimization is complete! (in 7 steps) ****
    Final optimized geometry and variables:
    Molecular point group: c1

    Geometry (in Angstrom), charge = 0, multiplicity = 1:

    H            3.009425937532    -1.448832907664    -0.423772892343
    O            2.097928093745    -1.704060392581    -0.394547386306
    C            1.291176017227    -0.615433069852    -0.365456714322
    C            1.654181066917     0.584819484718    -0.964331476137
    C            0.054691353193    -0.741399788939     0.239081691607
    H            2.610902020376     0.670404598745    -1.450643979423
    C            0.787990888905     1.663972412497    -0.939313868554
    H           -0.228771631084    -1.670035902385     0.695478327629
    C           -0.814172910441     0.341084540912     0.250265971038
    H            1.080314274874     2.589696561083    -1.400595065452
    C           -0.451358465601     1.546912272526    -0.333948383303
    C           -2.144668498758     0.214328199083     0.900542118710
    H           -1.128488604845     2.382670002183    -0.317693036108
    O           -2.543884715658    -0.771659515401     1.432917645251
    H           -2.764596402610     1.115141948461     0.862433265378

  Mulliken Charges: (a.u.)
   Center  Symbol    Alpha    Beta     Spin     Total
       1     H     0.27112  0.27112  0.00000  0.45777
       2     O     4.37804  4.37804  0.00000 -0.75608
       3     C     2.80079  2.80079  0.00000  0.39843
       4     C     3.12850  3.12850  0.00000 -0.25699
       5     C     3.11179  3.11179  0.00000 -0.22358
       6     H     0.39695  0.39695  0.00000  0.20610
       7     C     3.09653  3.09653  0.00000 -0.19307
       8     H     0.37034  0.37034  0.00000  0.25933
       9     C     3.04709  3.04709  0.00000 -0.09418
      10     H     0.39292  0.39292  0.00000  0.21416
      11     C     3.11346  3.11346  0.00000 -0.22692
      12     C     2.83252  2.83252  0.00000  0.33496
      13     H     0.39294  0.39294  0.00000  0.21411
      14     O     4.24514  4.24514  0.00000 -0.49029
      15     H     0.42187  0.42187  0.00000  0.15625

   Total alpha = 32.00000, Total beta = 32.00000, Total charge = -0.00000
