                              Psi4 1.0.54 Driver

  ==> Input File <==

--------------------------------------------------------------------------
set {
	reference rhf
	basis cc-pvtz
}

set_num_threads( 4 )
memory 2 gb

molecule MOL {
0 1

H	 -2.698799	 -0.000846	 0.036018
C	 -1.694291	 -0.000483	 0.434279
O	 -0.828718	 -0.000608	 -0.655022
H	 -1.576855	 0.881100	 1.056504
H	 -1.576401	 -0.881658	 1.057001
C	 0.557892	 0.000078	 -0.420099
C	 1.330317	 -0.789336	 -1.471031
C	 1.117893	 1.404363	 -0.223547
H	 0.649576	 -0.526574	 0.521628
H	 0.883818	 -1.765905	 -1.612488
H	 2.355304	 -0.927536	 -1.146919
H	 1.356451	 -0.281377	 -2.428047
H	 0.524138	 1.949091	 0.500173
H	 2.135209	 1.345932	 0.145813
H	 1.138285	 1.970550	 -1.147429

	symmetry c1
}
set optking {
	frozen_dihedral = ("
		9 6 3 2
	")
}

ee,wfn = optimize('scf', return_wfn=True)
oeprop( wfn, 'DIPOLE', 'QUADRUPOLE', 'MULLIKEN_CHARGES')
f=open( 'psi4out.xyz', 'w' )
f.write( "15  " )
f.write( str(ee) + "\n" )
f.write( MOL.save_string_xyz() )
f.close()
--------------------------------------------------------------------------

    Molecular point group: c1
  Charge       = 0
  Multiplicity = 1
  Basis Set: CC-PVTZ
  Basis Set:
  @DF-RHF Final Energy:  -232.22592087042514
    Total Energy =                       -232.2259208704250000
    Molecular point group: c1
  Basis Set: CC-PVTZ
  Basis Set:
  Basis Set: CC-PVTZ
  Basis Set:
  @DF-RHF Final Energy:  -231.28162753908521
    Total Energy =                       -231.2816275390850649
  Basis Set: CC-PVTZ
  Basis Set:
  Basis Set: CC-PVTZ
  Basis Set:
  @DF-RHF Final Energy:  -231.46660616383900
    Total Energy =                       -231.4666061638390886
  Basis Set: CC-PVTZ
  Basis Set:
  Basis Set: CC-PVTZ
  Basis Set:
  @DF-RHF Final Energy:  -231.81096163503591
    Total Energy =                       -231.8109616350359659
  Basis Set: CC-PVTZ
  Basis Set:
  @DF-RHF Final Energy:  -232.08231551132658
    Total Energy =                       -232.0823155113264988
  @DF-RHF Final Energy:  -231.74321142893149
    Total Energy =                       -231.7432114289315734
  @DF-RHF Final Energy:  -232.02589481088904
    Total Energy =                       -232.0258948108890422
  @DF-RHF Final Energy:  -232.17717421077541
    Total Energy =                       -232.1771742107753198
  @DF-RHF Final Energy:  -232.22099537127409
    Total Energy =                       -232.2209953712741139
  @DF-RHF Final Energy:  -232.21853551371584
    Total Energy =                       -232.2185355137157785
  @DF-RHF Final Energy:  -230.89146395974871
    Total Energy =                       -230.8914639597486200
  @DF-RHF Final Energy:  -231.22853777524065
    Total Energy =                       -231.2285377752407101
  @DF-RHF Final Energy:  -231.58206873369858
    Total Energy =                       -231.5820687336984633
  @DF-RHF Final Energy:  -231.87627859570776
    Total Energy =                       -231.8762785957077028
  @DF-RHF Final Energy:  -232.08915947109486
    Total Energy =                       -232.0891594710948311
  @DF-RHF Final Energy:  -232.20214081100718
    Total Energy =                       -232.2021408110070979
  @DF-RHF Final Energy:  -232.22839379025604
    Total Energy =                       -232.2283937902559501
  @DF-RHF Final Energy:  -232.22964878060446
    Total Energy =                       -232.2296487806043501
  @DF-RHF Final Energy:  -232.22962985439432
    Total Energy =                       -232.2296298543942044
  @DF-RHF Final Energy:  -232.22980369094287
    Total Energy =                       -232.2298036909428447
  @DF-RHF Final Energy:  -232.22981273987128
    Total Energy =                       -232.2298127398713632
  Basis Set: CC-PVTZ
  Basis Set:
  @DF-RHF Final Energy:  -232.22981537521611
    Total Energy =                       -232.2298153752161625
  Basis Set: CC-PVTZ
  Basis Set:
  Basis Set: CC-PVTZ
  Basis Set:
  @DF-RHF Final Energy:  -232.22981595031968
    Total Energy =                       -232.2298159503196757
  Basis Set: CC-PVTZ
  Basis Set:
  Basis Set: CC-PVTZ
  Basis Set:
  @DF-RHF Final Energy:  -232.22981686397003
    Total Energy =                       -232.2298168639699156
  Basis Set: CC-PVTZ
  Basis Set:
  Charge       = 0
  Multiplicity = 1
  Basis Set: CC-PVTZ
  Basis Set:

    Orbital Energies (a.u.)
    -----------------------

    Doubly Occupied:

       1A    -20.543608     2A    -11.272654     3A    -11.261478
       4A    -11.206640     5A    -11.204929     6A     -1.377939
       7A     -1.053570     8A     -0.939517     9A     -0.917436
      10A     -0.795052    11A     -0.672643    12A     -0.642063
      13A     -0.638282    14A     -0.585018    15A     -0.550917
      16A     -0.541640    17A     -0.533454    18A     -0.498856
      19A     -0.490048    20A     -0.457673    21A     -0.409412

  @DF-RHF Final Energy:  -232.22981730000927

   => Energetics <=

    Nuclear Repulsion Energy =            197.4039843819118403
    One-Electron Energy =                -706.0819451810230021
    Two-Electron Energy =                 276.4481434991018887
    DFT Exchange-Correlation Energy =       0.0000000000000000
    Empirical Dispersion Energy =           0.0000000000000000
    PCM Polarization Energy =               0.0000000000000000
    EFP Energy =                            0.0000000000000000
    Total Energy =                       -232.2298173000092447
    Molecular point group: c1
  Basis Set: CC-PVTZ
  Basis Set:

  -Total Gradient:
     Atom            X                  Y                   Z
    ------   -----------------  -----------------  -----------------
       1        0.000012605714    -0.000027886431     0.000011080366
       2        0.000774606787     0.000552028718    -0.000190451937
       3       -0.001214069292    -0.000650744254     0.000298948368
       4       -0.000100726472     0.000011385500     0.000001200871
       5       -0.000015891886    -0.000045876252    -0.000008655525
       6        0.001357531157     0.000087491122    -0.000499540249
       7        0.000162725494    -0.000041342483    -0.000018759629
       8        0.000102860896    -0.000046006685    -0.000101440131
       9       -0.000902199106     0.000116106671     0.000439063792
      10        0.000014225857    -0.000001480463    -0.000003337235
      11       -0.000061963282     0.000030710083    -0.000048447774
      12       -0.000006659284    -0.000044431179     0.000023653123
      13       -0.000096968583     0.000056672408     0.000089756061
      14       -0.000026364400     0.000009878551    -0.000008914096
      15        0.000000286402    -0.000006505304     0.000015843995

  **** Optimization is complete! (in 25 steps) ****
    Final optimized geometry and variables:
    Molecular point group: c1

    Geometry (in Angstrom), charge = 0, multiplicity = 1:

    H            0.966078209366     0.641389322814     2.545327959520
    C            0.435746627185     0.943295556332     1.653469230309
    O            0.527501211547    -0.097055540601     0.736953235973
    H           -0.593372532401     1.164200893661     1.925227717164
    H            0.891837674176     1.852490686731     1.268602713025
    C           -0.110595929372     0.107236988020    -0.497365943161
    C            0.691106621582    -0.631316744707    -1.553987230695
    C           -1.557575326710    -0.366385839631    -0.440438828306
    H           -0.103548614992     1.171441421351    -0.727698493559
    H            1.706268877248    -0.256985604053    -1.589207207319
    H            0.242309712397    -0.508976444472    -2.533236156763
    H            0.728249080899    -1.689440330027    -1.322458075810
    H           -2.113140636578     0.155571788741     0.329435389562
    H           -2.056163616656    -0.190909941612    -1.387217856119
    H           -1.594964402416    -1.427477215569    -0.222993012280

  Mulliken Charges: (a.u.)
   Center  Symbol    Alpha    Beta     Spin     Total
       1     H     0.44774  0.44774  0.00000  0.10451
       2     C     3.03418  3.03418  0.00000 -0.06836
       3     O     4.18533  4.18533  0.00000 -0.37065
       4     H     0.47224  0.47224  0.00000  0.05552
       5     H     0.47007  0.47007  0.00000  0.05985
       6     C     2.91973  2.91973  0.00000  0.16053
       7     C     3.13987  3.13987  0.00000 -0.27973
       8     C     3.14397  3.14397  0.00000 -0.28793
       9     H     0.46937  0.46937  0.00000  0.06125
      10     H     0.44871  0.44871  0.00000  0.10257
      11     H     0.45855  0.45855  0.00000  0.08290
      12     H     0.45216  0.45216  0.00000  0.09569
      13     H     0.45177  0.45177  0.00000  0.09646
      14     H     0.45378  0.45378  0.00000  0.09244
      15     H     0.45252  0.45252  0.00000  0.09496

   Total alpha = 21.00000, Total beta = 21.00000, Total charge =  0.00000

*** Psi4 exiting successfully. Buy a developer a beer!
