  ==> Input File <==

--------------------------------------------------------------------------
set {
	reference rhf
	basis cc-pvtz
}

set_num_threads( 4 )
memory 2 gb

molecule MOL {
0 1

O	 -2.817697	 1.304178	 0.001046
C	 -2.664672	 0.129869	 0.003507
C	 -3.797908	 -0.860100	 -0.001145
O	 -1.481217	 -0.452708	 0.001092
H	 -4.408836	 -0.679689	 -0.875387
H	 -3.443486	 -1.878443	 -0.002770
H	 -4.412123	 -0.683688	 0.871605
C	 -0.332055	 0.384012	 -0.000250
C	 0.892252	 -0.506059	 -0.000295
H	 -0.360822	 1.020205	 -0.874146
H	 -0.359817	 1.021310	 0.872861
C	 1.792510	 -0.244743	 -1.204293
H	 0.573185	 -1.543281	 0.005783
H	 1.445808	 -0.343137	 0.918779
C	 3.034706	 -1.131100	 -1.225383
H	 1.227469	 -0.400118	 -2.120025
H	 2.098261	 0.798556	 -1.208689
C	 3.935196	 -0.869460	 -2.427744
H	 2.730440	 -2.173919	 -1.222785
H	 3.600244	 -0.976581	 -0.310847
H	 3.407498	 -1.048948	 -3.358423
H	 4.806495	 -1.513752	 -2.412523
H	 4.283779	 0.157771	 -2.439590

	symmetry c1
}
set optking {
	frozen_dihedral = ("
		13 9 8 10
	")
}

ee = optimize('scf')
oeprop('DIPOLE', 'QUADRUPOLE', 'MULLIKEN_CHARGES')
f=open( 'psi4out.xyz', 'w' )
f.write( "23  " )
f.write( str(ee) + "\n" )
f.write( MOL.save_string_xyz() )
f.close()
--------------------------------------------------------------------------

    Molecular point group: c1
  Charge       = 0
  Multiplicity = 1
  Basis Set: CC-PVTZ
  Basis Set:
  @DF-RHF Final Energy:  -423.12862502285509
    Total Energy =                       -423.1286250228552035
    Molecular point group: c1
  Basis Set: CC-PVTZ
  Basis Set:
  Basis Set: CC-PVTZ
  Basis Set:
  @DF-RHF Final Energy:  -423.12878179583066
    Total Energy =                       -423.1287817958307187
  Basis Set: CC-PVTZ
  Basis Set:
  Basis Set: CC-PVTZ
  Basis Set:
  @DF-RHF Final Energy:  -423.12889596811999
    Total Energy =                       -423.1288959681203323
  Basis Set: CC-PVTZ
  Basis Set:
  Basis Set: CC-PVTZ
  Basis Set:
  @DF-RHF Final Energy:  -423.12902059179925
    Total Energy =                       -423.1290205917987350
  Basis Set: CC-PVTZ
  Basis Set:
  Basis Set: CC-PVTZ
  Basis Set:
  @DF-RHF Final Energy:  -423.12904616357588
    Total Energy =                       -423.1290461635752536
  Basis Set: CC-PVTZ
  Basis Set:
  Charge       = 0
  Multiplicity = 1
  Basis Set: CC-PVTZ
  Basis Set:

    Orbital Energies (a.u.)
    -----------------------

    Doubly Occupied:

       1A    -20.595938     2A    -20.529464     3A    -11.366142
       4A    -11.279781     5A    -11.230764     6A    -11.222103
       7A    -11.220083     8A    -11.218492     9A    -11.210522
      10A     -1.470750    11A     -1.363662    12A     -1.092840
      13A     -1.041880    14A     -1.003255    15A     -0.931613
      16A     -0.843390    17A     -0.801058    18A     -0.781165
      19A     -0.691050    20A     -0.684842    21A     -0.670083
      22A     -0.646516    23A     -0.608687    24A     -0.584548
      25A     -0.582378    26A     -0.571930    27A     -0.559492
      28A     -0.536316    29A     -0.527413    30A     -0.502589
      31A     -0.498635    32A     -0.475262    33A     -0.471214
      34A     -0.466730    35A     -0.447961    36A     -0.438923

  @DF-RHF Final Energy:  -423.12904608092134

   => Energetics <=

    Nuclear Repulsion Energy =            451.9922459144533491
    One-Electron Energy =               -1471.9076445592204436
    Two-Electron Energy =                 596.7863525638466626
    DFT Exchange-Correlation Energy =       0.0000000000000000
    Empirical Dispersion Energy =           0.0000000000000000
    PCM Polarization Energy =               0.0000000000000000
    EFP Energy =                            0.0000000000000000
    Total Energy =                       -423.1290460809203751
    Molecular point group: c1
  Basis Set: CC-PVTZ
  Basis Set:

  -Total Gradient:
     Atom            X                  Y                   Z
    ------   -----------------  -----------------  -----------------
       1        0.000000097314    -0.000011010385     0.000000575664
       2       -0.000025039674     0.000014608332    -0.000075495274
       3       -0.000002143221     0.000000105225     0.000054858974
       4        0.000047407981     0.000027824371    -0.000071253272
       5        0.000009269017     0.000000952236    -0.000002517388
       6        0.000000686256     0.000001240319    -0.000001797824
       7       -0.000011126036    -0.000002217686    -0.000003139201
       8       -0.000151006699    -0.000266282211     0.000158943261
       9        0.000021674351     0.000060127819    -0.000358511055
      10        0.000091776279     0.000194303785     0.000085062334
      11        0.000029744827     0.000007951767    -0.000050506663
      12       -0.000022624032    -0.000026274092     0.000000236912
      13        0.000006314636    -0.000008772873     0.000252097186
      14       -0.000010189981     0.000001898237     0.000008303903
      15        0.000003973466     0.000012912354     0.000008502631
      16       -0.000000040153    -0.000012534450    -0.000000817840
      17       -0.000008324399     0.000001507520    -0.000004454864
      18        0.000013418088     0.000000271552     0.000004625974
      19       -0.000001159860     0.000009209549    -0.000005506294
      20        0.000003565916    -0.000007298905     0.000002243573
      21       -0.000001611853    -0.000001010179     0.000003075224
      22        0.000004207138     0.000002403874    -0.000003751635
      23        0.000001130647     0.000000083838    -0.000000774318

  **** Optimization is complete! (in 6 steps) ****
    Final optimized geometry and variables:
    Molecular point group: c1

    Geometry (in Angstrom), charge = 0, multiplicity = 1:

    O           -2.649199863619     1.552593185839     0.554585165541
    C           -2.501157647963     0.377481464738     0.550146370816
    C           -3.639632057774    -0.606930941557     0.553881344245
    O           -1.320789504088    -0.210784296733     0.541831293031
    H           -4.257140136590    -0.421910733970    -0.314815393618
    H           -3.290750005997    -1.627223112691     0.547672872002
    H           -4.245346449660    -0.428713093124     1.432269397282
    C           -0.166834140680     0.623866303727     0.542258043237
    C            1.078396998564    -0.265117032182     0.521723584739
    H           -0.210630468369     1.269518210840    -0.323133601562
    H           -0.200590346956     1.254714572322     1.417878408756
    C            1.988050254319    -0.005374267489    -0.676664549405
    H            0.758487752285    -1.299707519379     0.519576446287
    H            1.641586980630    -0.120668287275     1.437346495402
    C            3.235226981014    -0.883405100045    -0.684818997309
    H            1.425579742948    -0.168197418822    -1.592756185876
    H            2.286372106308     1.040394522411    -0.684503687644
    C            4.141795547341    -0.624145627990    -1.883311634872
    H            2.937283132206    -1.928262642182    -0.677195643092
    H            3.794870401017    -0.720153030301     0.232148926252
    H            3.620841743942    -0.812540897199    -2.816070848472
    H            5.016781153719    -1.263223151408    -1.858699576949
    H            4.484457602247     0.405080012310    -1.899537947495

  Mulliken Charges: (a.u.)
   Center  Symbol    Alpha    Beta     Spin     Total
       1     O     4.20260  4.20260  0.00000 -0.40520
       2     C     2.81088  2.81088  0.00000  0.37824
       3     C     3.13890  3.13890  0.00000 -0.27781
       4     O     4.14644  4.14644  0.00000 -0.29287
       5     H     0.44225  0.44225  0.00000  0.11550
       6     H     0.44224  0.44224  0.00000  0.11552
       7     H     0.44208  0.44208  0.00000  0.11583
       8     C     2.98481  2.98481  0.00000  0.03038
       9     C     3.09225  3.09225  0.00000 -0.18449
      10     H     0.45341  0.45341  0.00000  0.09317
      11     H     0.45062  0.45062  0.00000  0.09875
      12     C     3.09422  3.09422  0.00000 -0.18844
      13     H     0.44521  0.44521  0.00000  0.10957
      14     H     0.44935  0.44935  0.00000  0.10131
      15     C     3.08629  3.08629  0.00000 -0.17257
      16     H     0.45160  0.45160  0.00000  0.09680
      17     H     0.45271  0.45271  0.00000  0.09457
      18     C     3.14947  3.14947  0.00000 -0.29893
      19     H     0.45353  0.45353  0.00000  0.09294
      20     H     0.45398  0.45398  0.00000  0.09203
      21     H     0.45457  0.45457  0.00000  0.09086
      22     H     0.44790  0.44790  0.00000  0.10419
      23     H     0.45467  0.45467  0.00000  0.09065

   Total alpha = 36.00000, Total beta = 36.00000, Total charge = -0.00000
