  ==> Input File <==

--------------------------------------------------------------------------
set {
	reference rhf
	basis cc-pvtz
}

set_num_threads( 4 )
memory 2 gb

molecule MOL {
0 1

H	 1.159607	 -1.140710	 0.565228
O	 1.317503	 -0.605253	 -0.191612
C	 0.706474	 0.636793	 -0.025501
C	 -0.793473	 0.591216	 0.050087
H	 1.002511	 1.240349	 -0.875433
H	 1.087812	 1.141212	 0.860412
C	 -1.534243	 -0.493009	 -0.013340
H	 -1.266611	 1.552628	 0.164437
H	 -1.101195	 -1.466332	 -0.144046
H	 -2.604242	 -0.437780	 0.050785

	symmetry c1
}
set optking {
	frozen_dihedral = ("
		5 3 4 7
	")
}

ee = optimize('scf')
oeprop('DIPOLE', 'QUADRUPOLE', 'MULLIKEN_CHARGES')
f=open( 'psi4out.xyz', 'w' )
f.write( "10  " )
f.write( str(ee) + "\n" )
f.write( MOL.save_string_xyz() )
f.close()
--------------------------------------------------------------------------

    Molecular point group: c1
  Charge       = 0
  Multiplicity = 1
  Basis Set: CC-PVTZ
  Basis Set:
  @DF-RHF Final Energy:  -191.99868005251830
    Total Energy =                       -191.9986800525182389
    Molecular point group: c1
  Basis Set: CC-PVTZ
  Basis Set:
  Basis Set: CC-PVTZ
  Basis Set:
  @DF-RHF Final Energy:  -191.99872093130099
    Total Energy =                       -191.9987209313008520
  Basis Set: CC-PVTZ
  Basis Set:
  Basis Set: CC-PVTZ
  Basis Set:
  @DF-RHF Final Energy:  -191.99873638528072
    Total Energy =                       -191.9987363852807221
  Basis Set: CC-PVTZ
  Basis Set:
  Charge       = 0
  Multiplicity = 1
  Basis Set: CC-PVTZ
  Basis Set:

    Orbital Energies (a.u.)
    -----------------------

    Doubly Occupied:

       1A    -20.554929     2A    -11.278441     3A    -11.230445
       4A    -11.216462     5A     -1.375420     6A     -1.062381
       7A     -0.932740     8A     -0.771239     9A     -0.694017
      10A     -0.665409    11A     -0.621963    12A     -0.573796
      13A     -0.538343    14A     -0.499605    15A     -0.452025
      16A     -0.368913

  @DF-RHF Final Energy:  -191.99873659377946

   => Energetics <=

    Nuclear Repulsion Energy =            119.5212429215433474
    One-Electron Energy =                -497.3677018788408191
    Two-Electron Energy =                 185.8477223635181304
    DFT Exchange-Correlation Energy =       0.0000000000000000
    Empirical Dispersion Energy =           0.0000000000000000
    PCM Polarization Energy =               0.0000000000000000
    EFP Energy =                            0.0000000000000000
    Total Energy =                       -191.9987365937793697
    Molecular point group: c1
  Basis Set: CC-PVTZ
  Basis Set:

  -Total Gradient:
     Atom            X                  Y                   Z
    ------   -----------------  -----------------  -----------------
       1       -0.000009253469    -0.000011335503     0.000006002184
       2        0.000014628894     0.000005059798    -0.000009544586
       3       -0.000008044892    -0.001168807200    -0.000236018468
       4       -0.000064621195     0.000352021601    -0.001494913106
       5        0.000001704399     0.000903225226     0.000653258824
       6        0.000010149221     0.000010889551     0.000004375552
       7        0.000067464157    -0.000067824402     0.001014370955
       8       -0.000000999998     0.000001102755     0.000013169687
       9       -0.000009227171    -0.000014787972     0.000018707279
      10       -0.000001799945    -0.000009543857     0.000030591678

  **** Optimization is complete! (in 4 steps) ****
    Final optimized geometry and variables:
    Molecular point group: c1

    Geometry (in Angstrom), charge = 0, multiplicity = 1:

    H            1.191757935221    -1.125982539863     0.630244879774
    O            1.321560278251    -0.608592412705    -0.144091419287
    C            0.708391146571     0.633261526436     0.009709498518
    C           -0.791143384002     0.590883668394     0.086304695746
    H            1.006434077751     1.237121446602    -0.839147571652
    H            1.086210881256     1.144986632675     0.893549549975
    C           -1.536765655996    -0.489683607723     0.022138826678
    H           -1.258804295752     1.551948284619     0.224182298130
    H           -1.110808094588    -1.463073221239    -0.129739835616
    H           -2.605589045189    -0.431305660970     0.100918289216

  Mulliken Charges: (a.u.)
   Center  Symbol    Alpha    Beta     Spin     Total
       1     H     0.39087  0.39087  0.00000  0.21826
       2     O     4.19893  4.19893  0.00000 -0.39787
       3     C     2.95017  2.95017  0.00000  0.09965
       4     C     3.08198  3.08198  0.00000 -0.16395
       5     H     0.45384  0.45384  0.00000  0.09233
       6     H     0.46932  0.46932  0.00000  0.06135
       7     C     3.17770  3.17770  0.00000 -0.35540
       8     H     0.42321  0.42321  0.00000  0.15358
       9     H     0.42589  0.42589  0.00000  0.14822
      10     H     0.42808  0.42808  0.00000  0.14383

   Total alpha = 16.00000, Total beta = 16.00000, Total charge = -0.00000
