  ==> Input File <==

--------------------------------------------------------------------------
set {
	reference rhf
	basis 6-31G*
}

set_num_threads( 1 )
memory 2 gb

molecule MOL {
0 1

H	 3.089270	 -1.380733	 0.000000
O	 2.178328	 -1.639175	 0.000000
C	 1.368216	 -0.558384	 0.000000
C	 0.318652	 -0.415067	 0.898431
C	 1.614294	 0.427659	 -0.939466
H	 0.128860	 -1.183601	 1.628752
C	 -0.483398	 0.713057	 0.856911
H	 2.424668	 0.318206	 -1.634008
C	 0.806598	 1.553924	 -0.974273
H	 -1.292636	 0.812798	 1.557313
C	 -0.244705	 1.703468	 -0.078634
C	 1.065421	 2.617096	 -1.981023
H	 -0.866442	 2.580560	 -0.112671
O	 1.937864	 2.583015	 -2.788629
H	 0.380802	 3.469533	 -1.937471

	symmetry c1
}
set optking {
	frozen_dihedral = ("
		11 9 12 14
	")
}

ee = energy('scf')
oeprop('DIPOLE', 'QUADRUPOLE', 'MULLIKEN_CHARGES')
f=open( 'psi4out.xyz', 'w' )
f.write( "15  " )
f.write( str(ee) + "\n" )
f.write( MOL.save_string_xyz() )
f.close()
--------------------------------------------------------------------------

    Molecular point group: c1

    Geometry (in Angstrom), charge = 0, multiplicity = 1:

       Center              X                  Y                   Z               Mass
    ------------   -----------------  -----------------  -----------------  -----------------
           H          2.080772085030    -2.136657287438     0.587712275150     1.007825032070
           O          1.169830085030    -2.395099287438     0.587712275150    15.994914619560
           C          0.359718085030    -1.314308287438     0.587712275150    12.000000000000
           C         -0.689845914970    -1.170991287438     1.486143275150    12.000000000000
           C          0.605796085030    -0.328265287438    -0.351753724850    12.000000000000
           H         -0.879637914970    -1.939525287438     2.216464275150     1.007825032070
           C         -1.491895914970    -0.042867287438     1.444623275150    12.000000000000
           H          1.416170085030    -0.437718287438    -1.046295724850     1.007825032070
           C         -0.201899914970     0.797999712562    -0.386560724850    12.000000000000
           H         -2.301133914970     0.056873712562     2.145025275150     1.007825032070
           C         -1.253202914970     0.947543712562     0.509078275150    12.000000000000
           C          0.056923085030     1.861171712562    -1.393310724850    12.000000000000
           H         -1.874939914970     1.824635712562     0.475041275150     1.007825032070
           O          0.929366085030     1.827090712562    -2.200916724850    15.994914619560
           H         -0.627695914970     2.713608712562    -1.349758724850     1.007825032070

  Charge       = 0
  Multiplicity = 1
  Basis Set: 6-31G*
  Basis Set:

    Orbital Energies (a.u.)
    -----------------------

    Doubly Occupied:

       1A    -20.592239     2A    -20.566168     3A    -11.334411
       4A    -11.307707     5A    -11.252264     6A    -11.251482
       7A    -11.249736     8A    -11.248147     9A    -11.243142
      10A     -1.415162    11A     -1.407163    12A     -1.169823
      13A     -1.049056    14A     -1.025628    15A     -0.898488
      16A     -0.850694    17A     -0.798212    18A     -0.750655
      19A     -0.701094    20A     -0.673358    21A     -0.657766
      22A     -0.631786    23A     -0.618362    24A     -0.607883
      25A     -0.559046    26A     -0.549119    27A     -0.531676
      28A     -0.508125    29A     -0.486429    30A     -0.424301
      31A     -0.352863    32A     -0.334115

  @DF-RHF Final Energy:  -418.28309836595508

   => Energetics <=

    Nuclear Repulsion Energy =            403.3791805826625705
    One-Electron Energy =               -1369.2323295315266023
    Two-Electron Energy =                 547.5700505829109943
    DFT Exchange-Correlation Energy =       0.0000000000000000
    Empirical Dispersion Energy =           0.0000000000000000
    PCM Polarization Energy =               0.0000000000000000
    EFP Energy =                            0.0000000000000000
    Total Energy =                       -418.2830983659530375

  Mulliken Charges: (a.u.)
   Center  Symbol    Alpha    Beta     Spin     Total
       1     H     0.26816  0.26816  0.00000  0.46369
       2     O     4.38316  4.38316  0.00000 -0.76632
       3     C     2.80235  2.80235  0.00000  0.39529
       4     C     3.11221  3.11221  0.00000 -0.22441
       5     C     3.12470  3.12470  0.00000 -0.24940
       6     H     0.38710  0.38710  0.00000  0.22579
       7     C     3.09900  3.09900  0.00000 -0.19800
       8     H     0.37773  0.37773  0.00000  0.24454
       9     C     3.04914  3.04914  0.00000 -0.09829
      10     H     0.39237  0.39237  0.00000  0.21527
      11     C     3.11075  3.11075  0.00000 -0.22149
      12     C     2.83217  2.83217  0.00000  0.33566
      13     H     0.39228  0.39228  0.00000  0.21544
      14     O     4.24726  4.24726  0.00000 -0.49451
      15     H     0.42163  0.42163  0.00000  0.15674

   Total alpha = 32.00000, Total beta = 32.00000, Total charge =  0.00000
