                              Psi4 1.0.54 Driver

  ==> Input File <==

--------------------------------------------------------------------------
set {
	reference rhf
	basis cc-pvtz
}

set_num_threads( 4 )
memory 2 gb

molecule MOL {
0 1

H	 2.457257	 -1.057460	 -0.194818
O	 1.675515	 -0.612943	 -0.465627
C	 1.135873	 0.113391	 0.608264
C	 0.027642	 1.012027	 0.090274
H	 1.902972	 0.727968	 1.072615
H	 0.756163	 -0.561896	 1.370018
C	 -1.138737	 0.285728	 -0.581921
H	 0.464661	 1.708096	 -0.618252
H	 -0.340737	 1.603071	 0.925246
C	 -1.933983	 -0.631436	 0.343653
H	 -0.763151	 -0.285569	 -1.422081
H	 -1.808359	 1.035291	 -0.992333
H	 -2.789188	 -1.049673	 -0.174718
H	 -1.335629	 -1.461368	 0.700418
H	 -2.305435	 -0.092167	 1.209725

	symmetry c1
}
set optking {
	frozen_dihedral = ("
		1 2 3 4
	")
}

ee,wfn = optimize('scf', return_wfn=True)
oeprop( wfn, 'DIPOLE', 'QUADRUPOLE', 'MULLIKEN_CHARGES')
f=open( 'psi4out.xyz', 'w' )
f.write( "15  " )
f.write( str(ee) + "\n" )
f.write( MOL.save_string_xyz() )
f.close()
--------------------------------------------------------------------------

    Molecular point group: c1
  Charge       = 0
  Multiplicity = 1
  Basis Set: CC-PVTZ
  Basis Set:
  @DF-RHF Final Energy:  -232.23751373724917
    Total Energy =                       -232.2375137372491167
    Molecular point group: c1
  Basis Set: CC-PVTZ
  Basis Set:
  Basis Set: CC-PVTZ
  Basis Set:
  @DF-RHF Final Energy:  -232.23751688548222
    Total Energy =                       -232.2375168854822505
  Basis Set: CC-PVTZ
  Basis Set:
  Charge       = 0
  Multiplicity = 1
  Basis Set: CC-PVTZ
  Basis Set:

    Orbital Energies (a.u.)
    -----------------------

    Doubly Occupied:

       1A    -20.546447     2A    -11.265388     3A    -11.210930
       4A    -11.207147     5A    -11.202510     6A     -1.364211
       7A     -1.065236     8A     -0.971257     9A     -0.869357
      10A     -0.775367    11A     -0.706651    12A     -0.649984
      13A     -0.609692    14A     -0.573041    15A     -0.566951
      16A     -0.532817    17A     -0.511100    18A     -0.476288
      19A     -0.467218    20A     -0.452642    21A     -0.433155

  @DF-RHF Final Energy:  -232.23751747403921

   => Energetics <=

    Nuclear Repulsion Energy =            191.9865604362236411
    One-Electron Energy =                -695.5333717571937768
    Two-Electron Energy =                 271.3092938469309274
    DFT Exchange-Correlation Energy =       0.0000000000000000
    Empirical Dispersion Energy =           0.0000000000000000
    PCM Polarization Energy =               0.0000000000000000
    EFP Energy =                            0.0000000000000000
    Total Energy =                       -232.2375174740392367
    Molecular point group: c1
  Basis Set: CC-PVTZ
  Basis Set:

  -Total Gradient:
     Atom            X                  Y                   Z
    ------   -----------------  -----------------  -----------------
       1        0.000405039222     0.000622003630    -0.000243442863
       2       -0.000326829890    -0.000715696339     0.000263402104
       3       -0.000466708534    -0.000342771946     0.000020457932
       4        0.000380055983     0.000473776136    -0.000103163263
       5       -0.000058462370     0.000014990727    -0.000018959295
       6        0.000038978800    -0.000105296277     0.000047435679
       7       -0.000002299105     0.000042021286     0.000056425980
       8        0.000028056345     0.000000698828    -0.000020305193
       9       -0.000057798082     0.000021054498    -0.000010193315
      10        0.000026281517     0.000002489799    -0.000005863981
      11        0.000013585396     0.000016218489    -0.000040879298
      12       -0.000022494221     0.000014878459     0.000006628994
      13        0.000006488305    -0.000017946653    -0.000011656073
      14        0.000043572417    -0.000036471868     0.000061496951
      15       -0.000007465781     0.000010051228    -0.000001384361

  **** Optimization is complete! (in 3 steps) ****
    Final optimized geometry and variables:
    Molecular point group: c1

    Geometry (in Angstrom), charge = 0, multiplicity = 1:

    H            2.442676069776    -1.073337994319    -0.189566732889
    O            1.662287545265    -0.626796028504    -0.460153306454
    C            1.134384891673     0.115596249965     0.608982409406
    C            0.028277840574     1.016515972908     0.090101889456
    H            1.907460054889     0.732176065539     1.060126315460
    H            0.758842594402    -0.549793533650     1.381537914305
    C           -1.138015614389     0.290560545638    -0.582715106300
    H            0.466663223447     1.711695610722    -0.618339603549
    H           -0.341043955961     1.607295615843     0.924913168367
    C           -1.926142521877    -0.635286046948     0.340160715931
    H           -0.763138341948    -0.274609699924    -1.427401511551
    H           -1.811591234636     1.040147137879    -0.986647756517
    H           -2.778715502782    -1.057651721424    -0.179172167948
    H           -1.321271403237    -1.461960142456     0.693401331144
    H           -2.300811121155    -0.101532312640     1.208292532230

  Mulliken Charges: (a.u.)
   Center  Symbol    Alpha    Beta     Spin     Total
       1     H     0.39519  0.39519  0.00000  0.20962
       2     O     4.19941  4.19941  0.00000 -0.39882
       3     C     2.97606  2.97606  0.00000  0.04788
       4     C     3.09374  3.09374  0.00000 -0.18748
       5     H     0.46346  0.46346  0.00000  0.07308
       6     H     0.47220  0.47220  0.00000  0.05559
       7     C     3.08613  3.08613  0.00000 -0.17225
       8     H     0.44936  0.44936  0.00000  0.10129
       9     H     0.45499  0.45499  0.00000  0.09003
      10     C     3.15504  3.15504  0.00000 -0.31008
      11     H     0.44666  0.44666  0.00000  0.10667
      12     H     0.45094  0.45094  0.00000  0.09812
      13     H     0.44675  0.44675  0.00000  0.10650
      14     H     0.45284  0.45284  0.00000  0.09433
      15     H     0.45724  0.45724  0.00000  0.08553

   Total alpha = 21.00000, Total beta = 21.00000, Total charge = -0.00000

*** Psi4 exiting successfully. Buy a developer a beer!
