                              Psi4 1.0.54 Driver

  ==> Input File <==

--------------------------------------------------------------------------
set {
	reference rhf
	basis cc-pvtz
}

set_num_threads( 4 )
memory 2 gb

molecule MOL {
0 1

H	 -3.162190	 0.493205	 -0.000107
C	 -2.363908	 -0.234727	 0.000005
O	 -1.158738	 0.454634	 -0.000087
H	 -2.464314	 -0.863616	 -0.882153
H	 -2.464327	 -0.863359	 0.882345
C	 -0.028611	 -0.359694	 0.000037
C	 0.075825	 -1.068446	 1.335386
H	 0.864338	 0.239992	 -0.177884
H	 -0.092912	 -1.088580	 -0.808191
C	 1.292788	 -1.983290	 1.415461
H	 0.117609	 -0.321604	 2.120502
H	 -0.832001	 -1.639648	 1.495173
H	 2.214849	 -1.427286	 1.282241
H	 1.342843	 -2.476108	 2.378604
H	 1.258747	 -2.754307	 0.652937

	symmetry c1
}
set optking {
	frozen_dihedral = ("
		8 6 3 2
	")
}

ee,wfn = optimize('scf', return_wfn=True)
oeprop( wfn, 'DIPOLE', 'QUADRUPOLE', 'MULLIKEN_CHARGES')
f=open( 'psi4out.xyz', 'w' )
f.write( "15  " )
f.write( str(ee) + "\n" )
f.write( MOL.save_string_xyz() )
f.close()
--------------------------------------------------------------------------

    Molecular point group: c1
  Charge       = 0
  Multiplicity = 1
  Basis Set: CC-PVTZ
  Basis Set:
  @DF-RHF Final Energy:  -232.22124174182611
    Total Energy =                       -232.2212417418260770
    Molecular point group: c1
  Basis Set: CC-PVTZ
  Basis Set:
  Basis Set: CC-PVTZ
  Basis Set:
  @DF-RHF Final Energy:  -231.71342494807885
    Total Energy =                       -231.7134249480787673
  Basis Set: CC-PVTZ
  Basis Set:
  Basis Set: CC-PVTZ
  Basis Set:
  @DF-RHF Final Energy:  -231.88401368135084
    Total Energy =                       -231.8840136813508366
  Basis Set: CC-PVTZ
  Basis Set:
  Basis Set: CC-PVTZ
  Basis Set:
  @DF-RHF Final Energy:  -232.13410912632600
    Total Energy =                       -232.1341091263259955
  Basis Set: CC-PVTZ
  Basis Set:
  @DF-RHF Final Energy:  -232.21366331767288
    Total Energy =                       -232.2136633176728537
  @DF-RHF Final Energy:  -232.22438370783684
    Total Energy =                       -232.2243837078369779
  Basis Set: CC-PVTZ
  Basis Set:
  @DF-RHF Final Energy:  -232.22509212381070
    Total Energy =                       -232.2250921238108390
  Basis Set: CC-PVTZ
  Basis Set:
  Basis Set: CC-PVTZ
  Basis Set:
  @DF-RHF Final Energy:  -232.22512117829544
    Total Energy =                       -232.2251211782952964
  Basis Set: CC-PVTZ
  Basis Set:
  Basis Set: CC-PVTZ
  Basis Set:
  @DF-RHF Final Energy:  -232.22512401854530
    Total Energy =                       -232.2251240185453298
  Basis Set: CC-PVTZ
  Basis Set:
  Charge       = 0
  Multiplicity = 1
  Basis Set: CC-PVTZ
  Basis Set:

    Orbital Energies (a.u.)
    -----------------------

    Doubly Occupied:

       1A    -20.545902     2A    -11.264354     3A    -11.260861
       4A    -11.215471     5A    -11.213072     6A     -1.378136
       7A     -1.057672     8A     -0.960398     9A     -0.883533
      10A     -0.804415    11A     -0.671720    12A     -0.659366
      13A     -0.635601    14A     -0.603615    15A     -0.565192
      16A     -0.531452    17A     -0.522903    18A     -0.498201
      19A     -0.485206    20A     -0.456593    21A     -0.409423

  @DF-RHF Final Energy:  -232.22512420250933

   => Energetics <=

    Nuclear Repulsion Energy =            191.9137791383741956
    One-Electron Energy =                -695.0316398359145751
    Two-Electron Energy =                 270.8927364950311016
    DFT Exchange-Correlation Energy =       0.0000000000000000
    Empirical Dispersion Energy =           0.0000000000000000
    PCM Polarization Energy =               0.0000000000000000
    EFP Energy =                            0.0000000000000000
    Total Energy =                       -232.2251242025092779
    Molecular point group: c1
  Basis Set: CC-PVTZ
  Basis Set:

  -Total Gradient:
     Atom            X                  Y                   Z
    ------   -----------------  -----------------  -----------------
       1        0.000013486797     0.000002130893     0.000005058253
       2        0.000113005658     0.000127267724     0.000874395577
       3       -0.000125823842    -0.000094566309    -0.001064240905
       4       -0.000003869492    -0.000010158643     0.000002030244
       5       -0.000005185470    -0.000003335234    -0.000000360502
       6       -0.000132388597    -0.000322573391    -0.000824962943
       7        0.000000325013    -0.000010492133     0.000008696857
       8        0.000137870212     0.000320366320     0.001010438995
       9        0.000002503991    -0.000012333445    -0.000009862512
      10        0.000000248828     0.000013838801    -0.000002355947
      11       -0.000002780554     0.000003772022     0.000004710373
      12       -0.000002518837    -0.000006778204     0.000000703695
      13        0.000002753583     0.000002021727     0.000001296171
      14       -0.000001374410    -0.000000630152    -0.000004030597
      15        0.000003747120    -0.000008529974    -0.000001516761

  **** Optimization is complete! (in 10 steps) ****
    Final optimized geometry and variables:
    Molecular point group: c1

    Geometry (in Angstrom), charge = 0, multiplicity = 1:

    H           -3.034290653617    -0.392531248180    -0.276294786916
    C           -1.989567415822    -0.655979081574    -0.193695964860
    O           -1.248604238944     0.496210111076    -0.430189043583
    H           -1.767901627400    -1.428700402343    -0.927405519484
    H           -1.816443484582    -1.062725949121     0.797685673493
    C            0.129232103219     0.327485461435    -0.574082482400
    C            0.854389878996    -0.046350212399     0.712393125778
    H            0.505194837016     1.280261156896    -0.925013176127
    H            0.335397814041    -0.413627459622    -1.346425000587
    C            2.367655462046    -0.069090574212     0.521122358662
    H            0.586564965670     0.672346095271     1.480079272334
    H            0.523974321132    -1.018476865196     1.061760428054
    H            2.739463773960     0.901636450612     0.211078308140
    H            2.872052913849    -0.336699744848     1.441551148373
    H            2.658594476254    -0.790845659083    -0.235055158481

  Mulliken Charges: (a.u.)
   Center  Symbol    Alpha    Beta     Spin     Total
       1     H     0.44440  0.44440  0.00000  0.11119
       2     C     3.03522  3.03522  0.00000 -0.07044
       3     O     4.17649  4.17649  0.00000 -0.35298
       4     H     0.47293  0.47293  0.00000  0.05414
       5     H     0.46928  0.46928  0.00000  0.06144
       6     C     2.97663  2.97663  0.00000  0.04674
       7     C     3.08988  3.08988  0.00000 -0.17975
       8     H     0.44954  0.44954  0.00000  0.10092
       9     H     0.47114  0.47114  0.00000  0.05772
      10     C     3.15259  3.15259  0.00000 -0.30517
      11     H     0.44982  0.44982  0.00000  0.10037
      12     H     0.45650  0.45650  0.00000  0.08699
      13     H     0.45356  0.45356  0.00000  0.09289
      14     H     0.44672  0.44672  0.00000  0.10657
      15     H     0.45531  0.45531  0.00000  0.08938

   Total alpha = 21.00000, Total beta = 21.00000, Total charge = -0.00000

*** Psi4 exiting successfully. Buy a developer a beer!
