  ==> Input File <==

--------------------------------------------------------------------------
set {
	reference rhf
	basis 6-31G*
}

set_num_threads( 4 )
memory 2 gb

molecule MOL {
0 1

H	 -1.748661	 -2.220942	 -0.005015
C	 -1.343207	 -1.225221	 -0.013879
N	 -0.055091	 -1.100174	 -0.261126
C	 -2.150779	 -0.125890	 0.222726
C	 0.449969	 0.122615	 -0.277109
H	 -3.200618	 -0.238980	 0.422496
N	 -1.660212	 1.097703	 0.209594
C	 -0.371804	 1.219904	 -0.038265
C	 1.928147	 0.267347	 -0.541394
H	 0.029131	 2.217482	 -0.051283
C	 2.660991	 0.973390	 0.604230
H	 2.347524	 -0.723256	 -0.681719
H	 2.078686	 0.813559	 -1.467227
H	 3.724061	 1.036482	 0.394704
H	 2.528790	 0.430109	 1.532588
H	 2.285870	 1.982143	 0.745691

	symmetry c1
}
set optking {
	frozen_dihedral = ("
		12 9 5 3
	")
}

ee = optimize('scf')
oeprop('DIPOLE', 'QUADRUPOLE', 'MULLIKEN_CHARGES')
f=open( 'psi4out.xyz', 'w' )
f.write( "16  " )
f.write( str(ee) + "\n" )
f.write( MOL.save_string_xyz() )
f.close()
--------------------------------------------------------------------------

    Molecular point group: c1
  Charge       = 0
  Multiplicity = 1
  Basis Set: 6-31G*
  Basis Set:
  @DF-RHF Final Energy:  -340.75669884380045
    Total Energy =                       -340.7566988438003364
    Molecular point group: c1
  Basis Set: 6-31G*
  Basis Set:
  Basis Set: 6-31G*
  Basis Set:
  @DF-RHF Final Energy:  -340.75682307209189
    Total Energy =                       -340.7568230720919473
  Basis Set: 6-31G*
  Basis Set:
  Basis Set: 6-31G*
  Basis Set:
  @DF-RHF Final Energy:  -340.75694764996206
    Total Energy =                       -340.7569476499620578
  Basis Set: 6-31G*
  Basis Set:
  Basis Set: 6-31G*
  Basis Set:
  @DF-RHF Final Energy:  -340.75695992122382
    Total Energy =                       -340.7569599212238245
  Basis Set: 6-31G*
  Basis Set:
  Basis Set: 6-31G*
  Basis Set:
  @DF-RHF Final Energy:  -340.75696801625872
    Total Energy =                       -340.7569680162588384
  Basis Set: 6-31G*
  Basis Set:
  Basis Set: 6-31G*
  Basis Set:
  @DF-RHF Final Energy:  -340.75697363346188
    Total Energy =                       -340.7569736334621098
  Basis Set: 6-31G*
  Basis Set:
  Charge       = 0
  Multiplicity = 1
  Basis Set: 6-31G*
  Basis Set:

    Orbital Energies (a.u.)
    -----------------------

    Doubly Occupied:

       1A    -15.586666     2A    -15.582013     3A    -11.281919
       4A    -11.274744     5A    -11.272884     6A    -11.271141
       7A    -11.232706     8A    -11.222931     9A     -1.312950
      10A     -1.221459    11A     -1.085074    12A     -1.014998
      13A     -0.904207    14A     -0.894688    15A     -0.829957
      16A     -0.714441    17A     -0.710541    18A     -0.656644
      19A     -0.615569    20A     -0.606760    21A     -0.579168
      22A     -0.562960    23A     -0.521498    24A     -0.510509
      25A     -0.504412    26A     -0.481194    27A     -0.429532
      28A     -0.394864    29A     -0.344737

  @DF-RHF Final Energy:  -340.75697434231790

   => Energetics <=

    Nuclear Repulsion Energy =            349.3590412813939565
    One-Electron Energy =               -1152.9896953591746751
    Two-Electron Energy =                 462.8736797354631562
    DFT Exchange-Correlation Energy =       0.0000000000000000
    Empirical Dispersion Energy =           0.0000000000000000
    PCM Polarization Energy =               0.0000000000000000
    EFP Energy =                            0.0000000000000000
    Total Energy =                       -340.7569743423175623
    Molecular point group: c1
  Basis Set: 6-31G*
  Basis Set:

  -Total Gradient:
     Atom            X                  Y                   Z
    ------   -----------------  -----------------  -----------------
       1       -0.000009699908     0.000002144881     0.000022400048
       2        0.000037433743    -0.000032092108    -0.000011316704
       3       -0.000315482147     0.000029753773    -0.001182406933
       4       -0.000018723846     0.000072067509    -0.000060938663
       5        0.000399490598    -0.000091304280     0.001909843306
       6        0.000007070329    -0.000004785507     0.000040366735
       7       -0.000058651309    -0.000056252225    -0.000020229290
       8        0.000086673207    -0.000026913844     0.000062426227
       9       -0.000434653341     0.000206961186    -0.002080216541
      10       -0.000010080315    -0.000010676513    -0.000007555532
      11        0.000037137978    -0.000007860713     0.000002397809
      12        0.000222633900    -0.000097719723     0.001330262949
      13        0.000030310689    -0.000013965216    -0.000038310882
      14        0.000009813664     0.000021789889     0.000028371262
      15        0.000017687408     0.000013268644    -0.000005318111
      16       -0.000000960653    -0.000004415755     0.000010224322

  **** Optimization is complete! (in 7 steps) ****
    Final optimized geometry and variables:
    Molecular point group: c1

    Geometry (in Angstrom), charge = 0, multiplicity = 1:

    H           -1.732824336261    -2.391993694571    -0.001626443678
    C           -1.332355200989    -1.394410806037    -0.010853922495
    N           -0.036549133088    -1.267180574488    -0.241104395544
    C           -2.143733766659    -0.299844763247     0.206362591341
    C            0.466783296967    -0.047862267444    -0.251178179440
    H           -3.196011219579    -0.412209720042     0.392538954549
    N           -1.654809836971     0.928855538111     0.189351834263
    C           -0.366918429941     1.052098421132    -0.036927791067
    C            1.944747517191     0.109840759738    -0.524997442212
    H            0.028340122189     2.051896275085    -0.057034739628
    C            2.711011151655     0.809020396293     0.604322037005
    H            2.349817127619    -0.882758350275    -0.673948020919
    H            2.082604159315     0.660155389215    -1.452375112059
    H            3.767289491886     0.866385254496     0.363041120866
    H            2.609116468391     0.263435278996     1.536640702527
    H            2.356803247220     1.821116728036     0.769867598909

  Mulliken Charges: (a.u.)
   Center  Symbol    Alpha    Beta     Spin     Total
       1     H     0.39382  0.39382  0.00000  0.21236
       2     C     2.99115  2.99115  0.00000  0.01771
       3     N     3.75711  3.75711  0.00000 -0.51422
       4     C     2.99830  2.99830  0.00000  0.00340
       5     C     2.87244  2.87244  0.00000  0.25511
       6     H     0.39421  0.39421  0.00000  0.21158
       7     N     3.73016  3.73016  0.00000 -0.46032
       8     C     2.99196  2.99196  0.00000  0.01608
       9     C     3.17695  3.17695  0.00000 -0.35390
      10     H     0.39499  0.39499  0.00000  0.21001
      11     C     3.24463  3.24463  0.00000 -0.48926
      12     H     0.39783  0.39783  0.00000  0.20434
      13     H     0.41013  0.41013  0.00000  0.17973
      14     H     0.41449  0.41449  0.00000  0.17102
      15     H     0.41265  0.41265  0.00000  0.17469
      16     H     0.41917  0.41917  0.00000  0.16166

   Total alpha = 29.00000, Total beta = 29.00000, Total charge = -0.00000
