  ==> Input File <==

--------------------------------------------------------------------------
set {
	reference rhf
	basis 6-31G*
}

set_num_threads( 4 )
memory 2 gb

molecule MOL {
0 1

H	 3.463771	 0.168298	 -0.756243
C	 2.752674	 -0.045734	 0.033351
C	 1.322923	 0.120767	 -0.479465
H	 2.934561	 -1.059086	 0.377456
H	 2.958358	 0.631174	 0.856809
C	 0.306652	 -0.176050	 0.621399
H	 1.144658	 -0.551717	 -1.312180
H	 1.166477	 1.131798	 -0.836680
N	 -1.068537	 -0.011044	 0.085269
H	 0.372515	 -1.192590	 0.973735
H	 0.391664	 0.520566	 1.441230
O	 -1.877254	 0.505694	 0.792611
O	 -1.277322	 -0.438128	 -1.009278

	symmetry c1
}
set optking {
	frozen_dihedral = ("
		12 9 6 3
	")
}

ee = optimize('scf')
oeprop('DIPOLE', 'QUADRUPOLE', 'MULLIKEN_CHARGES')
f=open( 'psi4out.xyz', 'w' )
f.write( "13  " )
f.write( str(ee) + "\n" )
f.write( MOL.save_string_xyz() )
f.close()
--------------------------------------------------------------------------

    Molecular point group: c1
  Charge       = 0
  Multiplicity = 1
  Basis Set: 6-31G*
  Basis Set:
  @DF-RHF Final Energy:  -321.73455640414790
    Total Energy =                       -321.7345564041478383
    Molecular point group: c1
  Basis Set: 6-31G*
  Basis Set:
  Basis Set: 6-31G*
  Basis Set:
  @DF-RHF Final Energy:  -321.73404676800362
    Total Energy =                       -321.7340467680037364
  Basis Set: 6-31G*
  Basis Set:
  Basis Set: 6-31G*
  Basis Set:
  @DF-RHF Final Energy:  -321.72962762037008
    Total Energy =                       -321.7296276203699108
  Basis Set: 6-31G*
  Basis Set:
  Basis Set: 6-31G*
  Basis Set:
  @DF-RHF Final Energy:  -321.73500475044267
    Total Energy =                       -321.7350047504428403
  Basis Set: 6-31G*
  Basis Set:
  @DF-RHF Final Energy:  -321.73383586324371
    Total Energy =                       -321.7338358632435416
  Basis Set: 6-31G*
  Basis Set:
  @DF-RHF Final Energy:  -321.73523930426882
    Total Energy =                       -321.7352393042688163
  Basis Set: 6-31G*
  Basis Set:
  Basis Set: 6-31G*
  Basis Set:
  @DF-RHF Final Energy:  -321.73525793044524
    Total Energy =                       -321.7352579304451865
  Basis Set: 6-31G*
  Basis Set:
  Basis Set: 6-31G*
  Basis Set:
  @DF-RHF Final Energy:  -321.73529087258282
    Total Energy =                       -321.7352908725825955
  Basis Set: 6-31G*
  Basis Set:
  Charge       = 0
  Multiplicity = 1
  Basis Set: 6-31G*
  Basis Set:

    Orbital Energies (a.u.)
    -----------------------

    Doubly Occupied:

       1A    -20.602146     2A    -20.600593     3A    -15.848139
       4A    -11.300377     5A    -11.252215     6A    -11.238297
       7A     -1.631632     8A     -1.416858     9A     -1.133642
      10A     -1.027772    11A     -0.884546    12A     -0.828673
      13A     -0.760435    14A     -0.742089    15A     -0.725055
      16A     -0.663481    17A     -0.605873    18A     -0.582314
      19A     -0.551168    20A     -0.522818    21A     -0.510846
      22A     -0.484356    23A     -0.473204    24A     -0.449328

  @DF-RHF Final Energy:  -321.73529139099503

   => Energetics <=

    Nuclear Repulsion Energy =            247.1033029406399635
    One-Electron Energy =                -928.0054747676947500
    Two-Electron Energy =                 359.1668804360596141
    DFT Exchange-Correlation Energy =       0.0000000000000000
    Empirical Dispersion Energy =           0.0000000000000000
    PCM Polarization Energy =               0.0000000000000000
    EFP Energy =                            0.0000000000000000
    Total Energy =                       -321.7352913909951440
    Molecular point group: c1
  Basis Set: 6-31G*
  Basis Set:

  -Total Gradient:
     Atom            X                  Y                   Z
    ------   -----------------  -----------------  -----------------
       1       -0.000002044859     0.000007649017    -0.000003559672
       2        0.000003416686    -0.000011813361     0.000005367640
       3       -0.000016022020    -0.000243388714    -0.000073147406
       4        0.000027432494    -0.000013889779    -0.000004609301
       5       -0.000032948843    -0.000015675426    -0.000001095129
       6        0.000003377754     0.000259663862     0.000167024042
       7       -0.000006136091    -0.000007191979     0.000014960740
       8       -0.000011600175    -0.000004032079    -0.000008992168
       9        0.000131756565     0.000346342189    -0.000244079662
      10        0.000002256750     0.000007309655    -0.000001724313
      11        0.000014531256    -0.000006642470    -0.000005752668
      12       -0.000114704759    -0.000349518611     0.000092552370
      13        0.000000685246     0.000031187696     0.000063055528

  **** Optimization is complete! (in 9 steps) ****
    Final optimized geometry and variables:
    Molecular point group: c1

    Geometry (in Angstrom), charge = 0, multiplicity = 1:

    H            3.496789544682     0.175527058459    -0.746436527000
    C            2.770556303402    -0.032120521135     0.030972102967
    C            1.350388764421     0.119284700158    -0.514665055730
    H            2.951285384254    -1.040777818657     0.390457258553
    H            2.958455341033     0.654020070275     0.851082353603
    C            0.322982320083    -0.164812436458     0.571904915723
    H            1.190084682477    -0.556772132711    -1.343352771662
    H            1.203774876756     1.127049919465    -0.890155918516
    N           -1.074687066867    -0.003813581650     0.083278314645
    H            0.378043763387    -1.190752523801     0.913675868940
    H            0.410279631088     0.495657105019     1.419030454461
    O           -1.852886697032     0.511866340257     0.824186360084
    O           -1.333465193312    -0.429098854614    -1.000720412701

  Mulliken Charges: (a.u.)
   Center  Symbol    Alpha    Beta     Spin     Total
       1     H     0.40752  0.40752  0.00000  0.18497
       2     C     3.24935  3.24935  0.00000 -0.49870
       3     C     3.16967  3.16967  0.00000 -0.33934
       4     H     0.41586  0.41586  0.00000  0.16828
       5     H     0.41574  0.41574  0.00000  0.16853
       6     C     3.08828  3.08828  0.00000 -0.17657
       7     H     0.39416  0.39416  0.00000  0.21167
       8     H     0.40602  0.40602  0.00000  0.18796
       9     N     3.22231  3.22231  0.00000  0.55537
      10     H     0.38677  0.38677  0.00000  0.22645
      11     H     0.38586  0.38586  0.00000  0.22828
      12     O     4.22853  4.22853  0.00000 -0.45707
      13     O     4.22992  4.22992  0.00000 -0.45984

   Total alpha = 24.00000, Total beta = 24.00000, Total charge = -0.00000
