  ==> Input File <==

--------------------------------------------------------------------------
set {
	reference rhf
	basis 6-31G*
}

set_num_threads( 1 )
memory 2 gb

molecule MOL {
0 1

O	 0.749854	 1.307668	 -0.000040
C	 0.576249	 0.131685	 -0.000108
C	 -0.766779	 -0.556801	 -0.000461
O	 1.568443	 -0.749345	 -0.000005
C	 -1.945214	 0.412366	 0.000161
H	 -0.796911	 -1.211249	 -0.867467
H	 -0.796854	 -1.212390	 0.865687
C	 -3.287791	 -0.317055	 0.000105
H	 -1.876087	 1.060580	 -0.866812
H	 -1.875822	 1.059691	 0.867761
H	 -3.394745	 -0.949193	 -0.877058
H	 -4.111778	 0.388953	 0.000015
H	 -3.394954	 -0.949187	 0.877259
C	 2.774661	 -0.358923	 -0.630733
H	 2.604343	 -0.142665	 -1.675609
H	 3.446423	 -1.196668	 -0.526886
H	 3.189204	 0.515447	 -0.149962

	symmetry c1
}
set optking {
	frozen_dihedral = ("
		1 2 3 6,
		9 5 3 6
	")
}

ee = energy('scf')
oeprop('DIPOLE', 'QUADRUPOLE', 'MULLIKEN_CHARGES')
f=open( 'psi4out.xyz', 'w' )
f.write( "17  " )
f.write( str(ee) + "\n" )
f.write( MOL.save_string_xyz() )
f.close()
--------------------------------------------------------------------------

    Molecular point group: c1

    Geometry (in Angstrom), charge = 0, multiplicity = 1:

       Center              X                  Y                   Z               Mass
    ------------   -----------------  -----------------  -----------------  -----------------
           O          0.767171243999     1.327181646253     0.097391407330    15.994914619560
           C          0.593566243999     0.151198646253     0.097323407330    12.000000000000
           C         -0.749461756001    -0.537287353747     0.096970407330    12.000000000000
           O          1.585760243999    -0.729831353747     0.097426407330    15.994914619560
           C         -1.927896756001     0.431879646253     0.097592407330    12.000000000000
           H         -0.779593756001    -1.191735353747    -0.770035592670     1.007825032070
           H         -0.779536756001    -1.192876353747     0.963118407330     1.007825032070
           C         -3.270473756001    -0.297541353747     0.097536407330    12.000000000000
           H         -1.858769756001     1.080093646253    -0.769380592670     1.007825032070
           H         -1.858504756001     1.079204646253     0.965192407330     1.007825032070
           H         -3.377427756001    -0.929679353747    -0.779626592670     1.007825032070
           H         -4.094460756001     0.408466646253     0.097446407330     1.007825032070
           H         -3.377636756001    -0.929673353747     0.974690407330     1.007825032070
           C          2.791978243999    -0.339409353747    -0.533301592670    12.000000000000
           H          2.621660243999    -0.123151353747    -1.578177592670     1.007825032070
           H          3.463740243999    -1.177154353747    -0.429454592670     1.007825032070
           H          3.206521243999     0.534960646253    -0.052530592670     1.007825032070

  Charge       = 0
  Multiplicity = 1
  Basis Set: 6-31G*
  Basis Set:

    Orbital Energies (a.u.)
    -----------------------

    Doubly Occupied:

       1A    -20.599406     2A    -20.547659     3A    -11.373122
       4A    -11.283494     5A    -11.236223     6A    -11.221930
       7A    -11.214679     8A     -1.468357     9A     -1.363689
      10A     -1.080428    11A     -1.000643    12A     -0.941727
      13A     -0.828141    14A     -0.767506    15A     -0.700319
      16A     -0.682185    17A     -0.672454    18A     -0.636567
      19A     -0.599820    20A     -0.575365    21A     -0.568221
      22A     -0.530849    23A     -0.520302    24A     -0.497960
      25A     -0.487789    26A     -0.479005    27A     -0.455000
      28A     -0.436346

  @DF-RHF Final Energy:  -344.90159974118274

   => Energetics <=

    Nuclear Repulsion Energy =            312.5212279090826542
    One-Electron Energy =               -1089.3074031854321220
    Two-Electron Energy =                 431.8845755351666185
    DFT Exchange-Correlation Energy =       0.0000000000000000
    Empirical Dispersion Energy =           0.0000000000000000
    PCM Polarization Energy =               0.0000000000000000
    EFP Energy =                            0.0000000000000000
    Total Energy =                       -344.9015997411828494

  Mulliken Charges: (a.u.)
   Center  Symbol    Alpha    Beta     Spin     Total
       1     O     4.28076  4.28076  0.00000 -0.56152
       2     C     2.60575  2.60575  0.00000  0.78849
       3     C     3.20722  3.20722  0.00000 -0.41444
       4     O     4.30832  4.30832  0.00000 -0.61665
       5     C     3.15232  3.15232  0.00000 -0.30465
       6     H     0.40292  0.40292  0.00000  0.19416
       7     H     0.39997  0.39997  0.00000  0.20007
       8     C     3.24267  3.24267  0.00000 -0.48534
       9     H     0.41152  0.41152  0.00000  0.17695
      10     H     0.41039  0.41039  0.00000  0.17921
      11     H     0.42174  0.42174  0.00000  0.15651
      12     H     0.41514  0.41514  0.00000  0.16971
      13     H     0.42110  0.42110  0.00000  0.15779
      14     C     3.09450  3.09450  0.00000 -0.18900
      15     H     0.41525  0.41525  0.00000  0.16951
      16     H     0.40724  0.40724  0.00000  0.18553
      17     H     0.40317  0.40317  0.00000  0.19367

   Total alpha = 28.00000, Total beta = 28.00000, Total charge = -0.00000
