                              Psi4 1.0.54 Driver

  ==> Input File <==

--------------------------------------------------------------------------
set {
	reference rhf
	basis cc-pvtz
}

set_num_threads( 4 )
memory 2 gb

molecule MOL {
0 1

O	 0.749630	 1.305591	 -0.000460
C	 0.576499	 0.134701	 -0.003900
C	 -0.765656	 -0.550508	 -0.002152
O	 1.564816	 -0.744612	 -0.000631
C	 -1.945526	 0.411052	 0.000603
H	 -0.794329	 -1.203792	 -0.868145
H	 -0.791555	 -1.205429	 0.862701
C	 -3.282915	 -0.321280	 0.002596
H	 -1.880300	 1.059126	 -0.864925
H	 -1.877207	 1.057892	 0.866807
H	 -3.388495	 -0.952755	 -0.873419
H	 -4.107811	 0.380864	 0.004116
H	 -3.385717	 -0.953283	 0.878571
C	 2.591199	 -0.570847	 -0.956850
H	 2.191343	 -0.622214	 -1.958613
H	 3.289261	 -1.375511	 -0.792786
H	 3.081291	 0.381742	 -0.821112

	symmetry c1
}
set optking {
	frozen_dihedral = ("
		14 4 2 1
	")
}

ee,wfn = optimize('scf', return_wfn=True)
oeprop( wfn, 'DIPOLE', 'QUADRUPOLE', 'MULLIKEN_CHARGES')
f=open( 'psi4out.xyz', 'w' )
f.write( "17  " )
f.write( str(ee) + "\n" )
f.write( MOL.save_string_xyz() )
f.close()
--------------------------------------------------------------------------

    Molecular point group: c1
  Charge       = 0
  Multiplicity = 1
  Basis Set: CC-PVTZ
  Basis Set:
  @DF-RHF Final Energy:  -345.02403016280869
    Total Energy =                       -345.0240301628086286
    Molecular point group: c1
  Basis Set: CC-PVTZ
  Basis Set:
  Basis Set: CC-PVTZ
  Basis Set:
  @DF-RHF Final Energy:  -345.02009806963378
    Total Energy =                       -345.0200980696336046
  Basis Set: CC-PVTZ
  Basis Set:
  Basis Set: CC-PVTZ
  Basis Set:
  @DF-RHF Final Energy:  -345.02467970657329
    Total Energy =                       -345.0246797065734086
  Basis Set: CC-PVTZ
  Basis Set:
  Basis Set: CC-PVTZ
  Basis Set:
  @DF-RHF Final Energy:  -345.02477962442339
    Total Energy =                       -345.0247796244238430
  Basis Set: CC-PVTZ
  Basis Set:
  @DF-RHF Final Energy:  -345.02482387596461
    Total Energy =                       -345.0248238759643300
  @DF-RHF Final Energy:  -345.02482890831430
    Total Energy =                       -345.0248289083141913
  Basis Set: CC-PVTZ
  Basis Set:
  @DF-RHF Final Energy:  -345.02417538264376
    Total Energy =                       -345.0241753826431932
  Basis Set: CC-PVTZ
  Basis Set:
  Basis Set: CC-PVTZ
  Basis Set:
  @DF-RHF Final Energy:  -345.02470752104909
    Total Energy =                       -345.0247075210493222
  Basis Set: CC-PVTZ
  Basis Set:
  Basis Set: CC-PVTZ
  Basis Set:
  @DF-RHF Final Energy:  -345.02482709235977
    Total Energy =                       -345.0248270923598284
  Basis Set: CC-PVTZ
  Basis Set:
  Charge       = 0
  Multiplicity = 1
  Basis Set: CC-PVTZ
  Basis Set:

    Orbital Energies (a.u.)
    -----------------------

    Doubly Occupied:

       1A    -20.585658     2A    -20.540653     3A    -11.366962
       4A    -11.283086     5A    -11.235777     6A    -11.221069
       7A    -11.213673     8A     -1.465551     9A     -1.368000
      10A     -1.081897    11A     -0.998256    12A     -0.944185
      13A     -0.830848    14A     -0.767060    15A     -0.701912
      16A     -0.681202    17A     -0.676353    18A     -0.636201
      19A     -0.607787    20A     -0.578081    21A     -0.567235
      22A     -0.532848    23A     -0.522892    24A     -0.500043
      25A     -0.489941    26A     -0.480243    27A     -0.457498
      28A     -0.438508

  @DF-RHF Final Energy:  -345.02482937154923

   => Energetics <=

    Nuclear Repulsion Energy =            312.4525881195713737
    One-Electron Energy =               -1089.4079937454512219
    Two-Electron Energy =                 431.9305762543303899
    DFT Exchange-Correlation Energy =       0.0000000000000000
    Empirical Dispersion Energy =           0.0000000000000000
    PCM Polarization Energy =               0.0000000000000000
    EFP Energy =                            0.0000000000000000
    Total Energy =                       -345.0248293715494583
    Molecular point group: c1
  Basis Set: CC-PVTZ
  Basis Set:

  -Total Gradient:
     Atom            X                  Y                   Z
    ------   -----------------  -----------------  -----------------
       1       -0.001222340712     0.001169876926     0.009182792723
       2        0.000215925175    -0.004022676055    -0.015768192169
       3        0.000009252485    -0.000002935621    -0.000050390801
       4        0.004216384106     0.007670866988     0.011244608528
       5        0.000010789844     0.000001933476     0.000007411322
       6        0.000000945687    -0.000005347930     0.000007535413
       7        0.000002979441     0.000010910704     0.000001370075
       8       -0.000003915340    -0.000004731085    -0.000000702903
       9        0.000005177212    -0.000001528245    -0.000001851210
      10        0.000002642051    -0.000000782266    -0.000001872472
      11       -0.000002238185     0.000001600159     0.000001061547
      12        0.000004778720    -0.000004680155     0.000000661880
      13       -0.000001705706     0.000000653290    -0.000001012145
      14       -0.003223731836    -0.004805051234    -0.004635960657
      15        0.000017575588    -0.000001388783     0.000009803003
      16       -0.000025054016    -0.000003395002     0.000006330719
      17       -0.000007464513    -0.000003325162    -0.000001592857

  **** Optimization is complete! (in 10 steps) ****
    Final optimized geometry and variables:
    Molecular point group: c1

    Geometry (in Angstrom), charge = 0, multiplicity = 1:

    O            0.801438368515     1.344748480556    -0.043097064451
    C            0.606524755218     0.188335360968     0.085799657810
    C           -0.748240577616    -0.467401874046     0.110978778075
    O            1.587239256083    -0.689732042874     0.328754493768
    C           -1.913776069909     0.506940608317     0.024583670276
    H           -0.770197093531    -1.179344472970    -0.709863509197
    H           -0.795716255187    -1.064997183414     1.015391357248
    C           -3.262150769179    -0.204545736153     0.050413461137
    H           -1.822651584587     1.094094751696    -0.881169216696
    H           -1.851586740200     1.210070845299     0.846658525600
    H           -3.361753305442    -0.892176925811    -0.783127283319
    H           -4.076093738338     0.507636443723    -0.011012197332
    H           -3.390367347280    -0.774478760751     0.964749691396
    C            2.723662930422    -0.641551913984    -0.509315128414
    H            2.449607878755    -0.895712530638    -1.525939766950
    H            3.415198728176    -1.376561301754    -0.130743839628
    H            3.179584401385     0.336964891294    -0.490191601060

  Mulliken Charges: (a.u.)
   Center  Symbol    Alpha    Beta     Spin     Total
       1     O     4.18260  4.18260  0.00000 -0.36520
       2     C     2.79887  2.79887  0.00000  0.40226
       3     C     3.09962  3.09962  0.00000 -0.19925
       4     O     4.16073  4.16073  0.00000 -0.32146
       5     C     3.08009  3.08009  0.00000 -0.16019
       6     H     0.44534  0.44534  0.00000  0.10933
       7     H     0.43806  0.43806  0.00000  0.12387
       8     C     3.15068  3.15068  0.00000 -0.30136
       9     H     0.44652  0.44652  0.00000  0.10696
      10     H     0.44646  0.44646  0.00000  0.10708
      11     H     0.45619  0.45619  0.00000  0.08761
      12     H     0.44545  0.44545  0.00000  0.10910
      13     H     0.45539  0.45539  0.00000  0.08922
      14     C     3.03681  3.03681  0.00000 -0.07362
      15     H     0.46495  0.46495  0.00000  0.07011
      16     H     0.44564  0.44564  0.00000  0.10873
      17     H     0.44660  0.44660  0.00000  0.10681

   Total alpha = 28.00000, Total beta = 28.00000, Total charge =  0.00000

*** Psi4 exiting successfully. Buy a developer a beer!
