                              Psi4 1.0.54 Driver

  ==> Input File <==

--------------------------------------------------------------------------
set {
	reference rhf
	basis cc-pvtz
}

set_num_threads( 4 )
memory 2 gb

molecule MOL {
0 1

H	 -2.644180	 -0.653737	 1.272255
C	 -2.092774	 -0.380414	 0.391915
O	 -0.808934	 -0.154049	 0.752536
F	 -2.163230	 -1.351640	 -0.507133
F	 -2.627232	 0.691260	 -0.169301
C	 0.085006	 0.250800	 -0.215074
C	 -0.724373	 0.843585	 -1.366068
Cl	 1.062110	 -1.110704	 -0.795690
H	 0.764646	 1.005690	 0.139718
F	 0.070974	 1.262732	 -2.317258
F	 -1.403795	 1.875027	 -0.923543
F	 -1.566688	 -0.014627	 -1.872258

	symmetry c1
}
set optking {
	frozen_dihedral = ("
		9 6 3 2
	")
}

ee,wfn = optimize('scf', return_wfn=True)
oeprop( wfn, 'DIPOLE', 'QUADRUPOLE', 'MULLIKEN_CHARGES')
f=open( 'psi4out.xyz', 'w' )
f.write( "12  " )
f.write( str(ee) + "\n" )
f.write( MOL.save_string_xyz() )
f.close()
--------------------------------------------------------------------------

    Molecular point group: c1
  Charge       = 0
  Multiplicity = 1
  Basis Set: CC-PVTZ
  Basis Set:
  @DF-RHF Final Energy: -1146.51488472266124
    Total Energy =                      -1146.5148847226614635
    Molecular point group: c1
  Basis Set: CC-PVTZ
  Basis Set:
  Basis Set: CC-PVTZ
  Basis Set:
  @DF-RHF Final Energy: -1146.55443024884926
    Total Energy =                      -1146.5544302488497124
  Basis Set: CC-PVTZ
  Basis Set:
  Basis Set: CC-PVTZ
  Basis Set:
  @DF-RHF Final Energy: -1146.57918850668057
    Total Energy =                      -1146.5791885066805662
  Basis Set: CC-PVTZ
  Basis Set:
  Basis Set: CC-PVTZ
  Basis Set:
  @DF-RHF Final Energy: -1146.59345814395101
    Total Energy =                      -1146.5934581439514659
  Basis Set: CC-PVTZ
  Basis Set:
  @DF-RHF Final Energy: -1146.60012588011432
    Total Energy =                      -1146.6001258801152289
  @DF-RHF Final Energy: -1146.60376835742682
    Total Energy =                      -1146.6037683574272705
  @DF-RHF Final Energy: -1146.60548607065471
    Total Energy =                      -1146.6054860706560703
  @DF-RHF Final Energy: -1146.60605606832496
    Total Energy =                      -1146.6060560683251879
  @DF-RHF Final Energy: -1146.60617870436226
    Total Energy =                      -1146.6061787043627191
  @DF-RHF Final Energy: -1146.60619623908906
    Total Energy =                      -1146.6061962390892859
  @DF-RHF Final Energy: -1146.60620228479593
    Total Energy =                      -1146.6062022847941080
  @DF-RHF Final Energy: -1146.57913210524885
    Total Energy =                      -1146.5791321052481635
  @DF-RHF Final Energy: -1146.45490845021823
    Total Energy =                      -1146.4549084502170899
  @DF-RHF Final Energy: -1146.39875449482383
    Total Energy =                      -1146.3987544948236064
  @DF-RHF Final Energy: -1146.43277715560748
    Total Energy =                      -1146.4327771556077096
  @DF-RHF Final Energy: -1146.29731568938337
    Total Energy =                      -1146.2973156893831401
  @DF-RHF Final Energy: -1145.94662419032920
    Total Energy =                      -1145.9466241903296577
  @DF-RHF Final Energy: -1144.88298569425024
    Total Energy =                      -1144.8829856942509196
  @DF-RHF Final Energy: -1144.70419668163458
    Total Energy =                      -1144.7041966816350396
  @DF-RHF Final Energy: -1144.88298569453491
    Total Energy =                      -1144.8829856945349093
  @DF-RHF Final Energy: -1146.19227243396017
    Total Energy =                      -1146.1922724339606248
  @DF-RHF Final Energy: -1146.45509661052824
    Total Energy =                      -1146.4550966105280168
  @DF-RHF Final Energy: -1146.58207135663224
    Total Energy =                      -1146.5820713566322411
  @DF-RHF Final Energy: -1146.54342584125152
    Total Energy =                      -1146.5434258412515192
  @DF-RHF Final Energy: -1146.59897631995659
    Total Energy =                      -1146.5989763199570461
  @DF-RHF Final Energy: -1146.59784498635963
    Total Energy =                      -1146.5978449863603146
  @DF-RHF Final Energy: -1146.59331453847062
    Total Energy =                      -1146.5933145384708496
  @DF-RHF Final Energy: -1146.60511187523480
    Total Energy =                      -1146.6051118752341154
  @DF-RHF Final Energy: -1146.60244743666362
    Total Energy =                      -1146.6024474366645336
  @DF-RHF Final Energy: -1146.60516906083194
    Total Energy =                      -1146.6051690608314857
  @DF-RHF Final Energy: -1146.60595442754106
    Total Energy =                      -1146.6059544275403823
  @DF-RHF Final Energy: -1146.60511712219386
    Total Energy =                      -1146.6051171221934055
  @DF-RHF Final Energy: -1146.60606379179535
    Total Energy =                      -1146.6060637917951226
  @DF-RHF Final Energy: -1146.60620794335409
    Total Energy =                      -1146.6062079433534109
  @DF-RHF Final Energy: -1146.60614402362626
    Total Energy =                      -1146.6061440236262570
  @DF-RHF Final Energy: -1146.60621543506613
    Total Energy =                      -1146.6062154350661331
  Basis Set: CC-PVTZ
  Basis Set:
  @DF-RHF Final Energy: -1146.60622598357031
    Total Energy =                      -1146.6062259835698569
  Basis Set: CC-PVTZ
  Basis Set:
  Basis Set: CC-PVTZ
  Basis Set:
  @DF-RHF Final Energy: -1146.60622323478970
    Total Energy =                      -1146.6062232347901499
  Basis Set: CC-PVTZ
  Basis Set:
  Basis Set: CC-PVTZ
  Basis Set:
  @DF-RHF Final Energy: -1146.60622693054756
    Total Energy =                      -1146.6062269305468817
  Basis Set: CC-PVTZ
  Basis Set:
  Charge       = 0
  Multiplicity = 1
  Basis Set: CC-PVTZ
  Basis Set:

    Orbital Energies (a.u.)
    -----------------------

    Doubly Occupied:

       1A   -104.855768     2A    -26.355531     3A    -26.354424
       4A    -26.353958     5A    -26.337770     6A    -26.334305
       7A    -20.636235     8A    -11.523782     9A    -11.481073
      10A    -11.404745    11A    -10.581327    12A     -8.048125
      13A     -8.046131    14A     -8.046058    15A     -1.770028
      16A     -1.718394    17A     -1.665143    18A     -1.661595
      19A     -1.639501    20A     -1.477599    21A     -1.177599
      22A     -1.047597    23A     -1.000978    24A     -0.922280
      25A     -0.865713    26A     -0.859440    27A     -0.853959
      28A     -0.833410    29A     -0.815374    30A     -0.755182
      31A     -0.737157    32A     -0.734399    33A     -0.710369
      34A     -0.700850    35A     -0.684649    36A     -0.680563
      37A     -0.668124    38A     -0.663847    39A     -0.658408
      40A     -0.643587    41A     -0.589373    42A     -0.558785
      43A     -0.524596    44A     -0.476937    45A     -0.467759

  @DF-RHF Final Energy: -1146.60622756422390

   => Energetics <=

    Nuclear Repulsion Energy =            757.8726691943509195
    One-Electron Energy =               -3099.1129417119896061
    Two-Electron Energy =                1194.6340449534145591
    DFT Exchange-Correlation Energy =       0.0000000000000000
    Empirical Dispersion Energy =           0.0000000000000000
    PCM Polarization Energy =               0.0000000000000000
    EFP Energy =                            0.0000000000000000
    Total Energy =                      -1146.6062275642243549
    Molecular point group: c1
  Basis Set: CC-PVTZ
  Basis Set:

  -Total Gradient:
     Atom            X                  Y                   Z
    ------   -----------------  -----------------  -----------------
       1       -0.000082102819    -0.000081820331    -0.000029836135
       2       -0.005730657568     0.002962190117     0.002311153092
       3        0.008505132443    -0.003353014473    -0.003902559866
       4        0.000028910010     0.000016524304     0.000071854333
       5        0.000017098497    -0.000029220991     0.000031851222
       6        0.001057500705    -0.005464281355     0.002358974558
       7        0.000152685233     0.000084096547    -0.000034972149
       8       -0.000093967823     0.000026711736    -0.000014078415
       9       -0.003729596311     0.005916613423    -0.000836142263
      10       -0.000097624360     0.000003586456    -0.000141092430
      11        0.000070568764    -0.000016406607     0.000013098319
      12       -0.000097946681    -0.000064978911     0.000171749802

  **** Optimization is complete! (in 24 steps) ****
    Final optimized geometry and variables:
    Molecular point group: c1

    Geometry (in Angstrom), charge = 0, multiplicity = 1:

    H           -1.588702322412    -1.496647670108    -2.051886532023
    C           -1.027412923721    -0.740751972560    -1.532998463141
    O           -0.783367880900    -1.226283112990    -0.291306782871
    F            0.092981092388    -0.489856496524    -2.185969710502
    F           -1.721802830913     0.380485116125    -1.500678417470
    C           -0.074596355336    -0.634036684073     0.736303402883
    C            0.053478592057     0.899439026913     0.757390117353
    CL           1.536575071488    -1.366569322027     0.854274835701
    H           -0.617936027391    -0.850572463322     1.639103766936
    F            0.718617010778     1.242269990450     1.833339514332
    F           -1.139568143396     1.435948681851     0.851260789952
    F            0.660388141378     1.403667496127    -0.278370922789

  Mulliken Charges: (a.u.)
   Center  Symbol    Alpha    Beta     Spin     Total
       1     H     0.44689  0.44689  0.00000  0.10621
       2     C     2.74464  2.74464  0.00000  0.51072
       3     O     4.16222  4.16222  0.00000 -0.32445
       4     F     4.61412  4.61412  0.00000 -0.22825
       5     F     4.61481  4.61481  0.00000 -0.22963
       6     C     2.93794  2.93794  0.00000  0.12412
       7     C     2.68283  2.68283  0.00000  0.63433
       8    CL     8.57192  8.57192  0.00000 -0.14383
       9     H     0.42091  0.42091  0.00000  0.15819
      10     F     4.60092  4.60092  0.00000 -0.20185
      11     F     4.60459  4.60459  0.00000 -0.20917
      12     F     4.59819  4.59819  0.00000 -0.19639

   Total alpha = 45.00000, Total beta = 45.00000, Total charge =  0.00000

*** Psi4 exiting successfully. Buy a developer a beer!
