  ==> Input File <==

--------------------------------------------------------------------------
set {
	reference rhf
	basis 6-31G*
}

set_num_threads( 4 )
memory 2 gb

molecule MOL {
0 1

H	 -2.646374	 -0.642757	 1.268656
C	 -2.083525	 -0.384536	 0.393091
O	 -0.807605	 -0.127164	 0.768327
F	 -2.118945	 -1.383102	 -0.486752
F	 -2.621877	 0.670592	 -0.209486
C	 0.084052	 0.273579	 -0.209957
C	 0.972908	 1.343976	 0.410000
Cl	 -0.773193	 0.914939	 -1.620986
H	 0.711138	 -0.532911	 -0.547761
F	 1.861211	 1.766652	 -0.464301
F	 1.620994	 0.818585	 1.430483
F	 0.282702	 2.371475	 0.841088

	symmetry c1
}
set optking {
	frozen_dihedral = ("
		9 6 3 2
	")
}

ee = optimize('scf')
oeprop('DIPOLE', 'QUADRUPOLE', 'MULLIKEN_CHARGES')
f=open( 'psi4out.xyz', 'w' )
f.write( "12  " )
f.write( str(ee) + "\n" )
f.write( MOL.save_string_xyz() )
f.close()
--------------------------------------------------------------------------

    Molecular point group: c1
  Charge       = 0
  Multiplicity = 1
  Basis Set: 6-31G*
  Basis Set:
  @DF-RHF Final Energy: -1146.27974823973477
    Total Energy =                      -1146.2797482397343174
    Molecular point group: c1
  Basis Set: 6-31G*
  Basis Set:
  Basis Set: 6-31G*
  Basis Set:
  @DF-RHF Final Energy: -1146.29722052049601
    Total Energy =                      -1146.2972205204964666
  Basis Set: 6-31G*
  Basis Set:
  Basis Set: 6-31G*
  Basis Set:
  @DF-RHF Final Energy: -1146.30211716822373
    Total Energy =                      -1146.3021171682244130
  Basis Set: 6-31G*
  Basis Set:
  Basis Set: 6-31G*
  Basis Set:
  @DF-RHF Final Energy: -1146.30431887247687
    Total Energy =                      -1146.3043188724770971
  Basis Set: 6-31G*
  Basis Set:
  @DF-RHF Final Energy: -1146.30471449931565
    Total Energy =                      -1146.3047144993158781
  @DF-RHF Final Energy: -1146.30477178657065
    Total Energy =                      -1146.3047717865701998
  Basis Set: 6-31G*
  Basis Set:
  @DF-RHF Final Energy: -1146.30478215328867
    Total Energy =                      -1146.3047821532884427
  Basis Set: 6-31G*
  Basis Set:
  Basis Set: 6-31G*
  Basis Set:
  @DF-RHF Final Energy: -1146.30480078025198
    Total Energy =                      -1146.3048007802519805
  Basis Set: 6-31G*
  Basis Set:
  Basis Set: 6-31G*
  Basis Set:
  @DF-RHF Final Energy: -1146.30480475133299
    Total Energy =                      -1146.3048047513329948
  Basis Set: 6-31G*
  Basis Set:
  Charge       = 0
  Multiplicity = 1
  Basis Set: 6-31G*
  Basis Set:

    Orbital Energies (a.u.)
    -----------------------

    Doubly Occupied:

       1A   -104.847933     2A    -26.358734     3A    -26.356814
       4A    -26.356417     5A    -26.339496     6A    -26.335616
       7A    -20.643459     8A    -11.525698     9A    -11.485389
      10A    -11.402426    11A    -10.583033    12A     -8.052418
      13A     -8.048803    14A     -8.048666    15A     -1.759731
      16A     -1.708742    17A     -1.656273    18A     -1.654564
      19A     -1.631528    20A     -1.475858    21A     -1.183155
      22A     -1.058527    23A     -0.982793    24A     -0.914486
      25A     -0.851680    26A     -0.847674    27A     -0.841343
      28A     -0.819674    29A     -0.804633    30A     -0.780029
      31A     -0.730527    32A     -0.722917    33A     -0.704660
      34A     -0.689434    35A     -0.678479    36A     -0.673093
      37A     -0.657360    38A     -0.656039    39A     -0.647093
      40A     -0.631733    41A     -0.592849    42A     -0.553102
      43A     -0.535529    44A     -0.478911    45A     -0.468177

  @DF-RHF Final Energy: -1146.30480573474961

   => Energetics <=

    Nuclear Repulsion Energy =            742.9534924662058302
    One-Electron Energy =               -3068.9656087985340491
    Two-Electron Energy =                1179.7073105975780436
    DFT Exchange-Correlation Energy =       0.0000000000000000
    Empirical Dispersion Energy =           0.0000000000000000
    PCM Polarization Energy =               0.0000000000000000
    EFP Energy =                            0.0000000000000000
    Total Energy =                      -1146.3048057347502890
    Molecular point group: c1
  Basis Set: 6-31G*
  Basis Set:

  -Total Gradient:
     Atom            X                  Y                   Z
    ------   -----------------  -----------------  -----------------
       1        0.000012109595    -0.000046153593    -0.000038442089
       2       -0.000893808771     0.003097443418     0.000339002561
       3        0.001957420970    -0.004615051536     0.000045550038
       4        0.000011541614     0.000046235964     0.000094994142
       5       -0.000000414520     0.000019462707    -0.000024417589
       6       -0.003346747904     0.000496738680    -0.002900238905
       7       -0.000028413486    -0.000013781037    -0.000125089879
       8       -0.000004739914    -0.000014918184    -0.000011812396
       9        0.002234920656     0.000963942006     0.002490986515
      10       -0.000021224513     0.000011658800     0.000091014884
      11        0.000012624618     0.000051678947     0.000005267350
      12        0.000066731661     0.000002743824     0.000033185358

  **** Optimization is complete! (in 10 steps) ****
    Final optimized geometry and variables:
    Molecular point group: c1

    Geometry (in Angstrom), charge = 0, multiplicity = 1:

    H           -2.136740374275    -1.503413235104     1.446641492478
    C           -1.739293251504    -1.096710719565     0.536429973453
    O           -0.448384708181    -0.763018856443     0.780526426985
    F           -1.822792228416    -2.001120861417    -0.434588821816
    F           -2.458578550345    -0.046088116074     0.170582551713
    C            0.485050705779    -0.389075020740    -0.178318176674
    C            1.359286075850     0.660724987486     0.503004370426
    CL          -0.143027175144     0.251997035820    -1.701870545072
    H            1.116491520499    -1.230089677450    -0.411732981856
    F            2.357533555626     1.003329386019    -0.283975142908
    F            1.869966888525     0.150534278610     1.605326337597
    F            0.682401120734     1.738047667325     0.819213104360

  Mulliken Charges: (a.u.)
   Center  Symbol    Alpha    Beta     Spin     Total
       1     H     0.40501  0.40501  0.00000  0.18998
       2     C     2.55876  2.55876  0.00000  0.88248
       3     O     4.31855  4.31855  0.00000 -0.63709
       4     F     4.68559  4.68559  0.00000 -0.37117
       5     F     4.67953  4.67953  0.00000 -0.35906
       6     C     3.02222  3.02222  0.00000 -0.04444
       7     C     2.43956  2.43956  0.00000  1.12089
       8    CL     8.49860  8.49860  0.00000  0.00281
       9     H     0.37271  0.37271  0.00000  0.25458
      10     F     4.67471  4.67471  0.00000 -0.34943
      11     F     4.67643  4.67643  0.00000 -0.35286
      12     F     4.66835  4.66835  0.00000 -0.33670

   Total alpha = 45.00000, Total beta = 45.00000, Total charge =  0.00000
