                              Psi4 1.0.54 Driver

  ==> Input File <==

--------------------------------------------------------------------------
set {
	reference rhf
	basis cc-pvtz
}

set_num_threads( 4 )
memory 2 gb

molecule MOL {
0 1

H	 3.083659	 -1.378387	 0.000000
O	 2.179005	 -1.633391	 0.000000
C	 1.366950	 -0.558201	 0.000000
C	 1.799664	 0.696663	 0.400944
C	 0.064024	 -0.737019	 -0.417648
H	 2.814977	 0.834173	 0.725997
C	 0.929992	 1.768259	 0.383422
H	 -0.273201	 -1.704933	 -0.727913
C	 -0.800907	 0.342357	 -0.432087
H	 1.275931	 2.734459	 0.695842
C	 -0.374985	 1.597798	 -0.032989
C	 -2.206901	 0.163080	 -0.879770
H	 -1.053542	 2.429203	 -0.047692
O	 -2.674096	 -0.862163	 -1.240360
H	 -2.813813	 1.073414	 -0.856351

	symmetry c1
}
set optking {
	frozen_dihedral = ("
		4 3 2 1
	")
}

ee,wfn = optimize('scf', return_wfn=True)
oeprop( wfn, 'DIPOLE', 'QUADRUPOLE', 'MULLIKEN_CHARGES')
f=open( 'psi4out.xyz', 'w' )
f.write( "15  " )
f.write( str(ee) + "\n" )
f.write( MOL.save_string_xyz() )
f.close()
--------------------------------------------------------------------------

    Molecular point group: c1
  Charge       = 0
  Multiplicity = 1
  Basis Set: CC-PVTZ
  Basis Set:
  @DF-RHF Final Energy:  -418.43837703887448
    Total Energy =                       -418.4383770388743642
    Molecular point group: c1
  Basis Set: CC-PVTZ
  Basis Set:
  Basis Set: CC-PVTZ
  Basis Set:
  @DF-RHF Final Energy:  -418.43840039264620
    Total Energy =                       -418.4384003926461446
  Basis Set: CC-PVTZ
  Basis Set:
  Basis Set: CC-PVTZ
  Basis Set:
  @DF-RHF Final Energy:  -418.43844321679666
    Total Energy =                       -418.4384432167964860
  Basis Set: CC-PVTZ
  Basis Set:
  Basis Set: CC-PVTZ
  Basis Set:
  @DF-RHF Final Energy:  -418.43842720429450
    Total Energy =                       -418.4384272042944986
  Basis Set: CC-PVTZ
  Basis Set:
  Charge       = 0
  Multiplicity = 1
  Basis Set: CC-PVTZ
  Basis Set:

    Orbital Energies (a.u.)
    -----------------------

    Doubly Occupied:

       1A    -20.594211     2A    -20.554385     3A    -11.327540
       4A    -11.310864     5A    -11.250949     6A    -11.250634
       7A    -11.247800     8A    -11.243951     9A    -11.237652
      10A     -1.425555    11A     -1.410133    12A     -1.174414
      13A     -1.052151    14A     -1.030939    15A     -0.902390
      16A     -0.850062    17A     -0.816039    18A     -0.740590
      19A     -0.705860    20A     -0.689949    21A     -0.644682
      22A     -0.640937    23A     -0.616501    24A     -0.610402
      25A     -0.573737    26A     -0.556531    27A     -0.545609
      28A     -0.515587    29A     -0.492710    30A     -0.426825
      31A     -0.358202    32A     -0.332413

  @DF-RHF Final Energy:  -418.43844804678776

   => Energetics <=

    Nuclear Repulsion Energy =            404.0379369244033683
    One-Electron Energy =               -1370.6923605695444621
    Two-Electron Energy =                 548.2159755983532250
    DFT Exchange-Correlation Energy =       0.0000000000000000
    Empirical Dispersion Energy =           0.0000000000000000
    PCM Polarization Energy =               0.0000000000000000
    EFP Energy =                            0.0000000000000000
    Total Energy =                       -418.4384480467879257
    Molecular point group: c1
  Basis Set: CC-PVTZ
  Basis Set:

  -Total Gradient:
     Atom            X                  Y                   Z
    ------   -----------------  -----------------  -----------------
       1       -0.000008049599    -0.000005002311    -0.001521611312
       2       -0.000241482844    -0.000097776298     0.002463027967
       3        0.000719589650     0.000435894586    -0.001927404102
       4       -0.000313006623    -0.000404209180     0.001018714638
       5       -0.000163532452     0.000081032214    -0.000044704607
       6       -0.000000529773     0.000016712466    -0.000008845357
       7       -0.000175976626     0.000049387555     0.000005053049
       8        0.000008726907    -0.000008920110     0.000010409536
       9        0.000045571852    -0.000168856765    -0.000023462109
      10        0.000011944098    -0.000006100884     0.000003444937
      11        0.000135404025     0.000117469489     0.000021329630
      12        0.000050689244     0.000035968671     0.000056617024
      13       -0.000004543965    -0.000006525137    -0.000002977416
      14       -0.000042128944    -0.000052116642    -0.000033802571
      15       -0.000022674941     0.000013042345    -0.000015789308

  **** Optimization is complete! (in 5 steps) ****
    Final optimized geometry and variables:
    Molecular point group: c1

    Geometry (in Angstrom), charge = 0, multiplicity = 1:

    H            3.047478470174    -1.409535872005     0.291444417038
    O            2.142467305560    -1.662993700965     0.269205880054
    C            1.332556660799    -0.584148478918     0.248514308236
    C            1.762940745666     0.668551128416     0.660453613582
    C            0.029460765892    -0.763343373379    -0.165164880920
    H            2.775521290747     0.801532973991     0.995310123938
    C            0.894055624691     1.740110580619     0.643826706340
    H           -0.307119872509    -1.730441878612    -0.478931846173
    C           -0.838405934923     0.314893951442    -0.171137218374
    H            1.238473752481     2.705335644142     0.960912656827
    C           -0.412156634131     1.569140388601     0.229027628242
    C           -2.245310198167     0.135588238078    -0.615779496802
    H           -1.091512059878     2.400069055917     0.218397214753
    O           -2.711987684429    -0.888552246587    -0.979963740978
    H           -2.853090497170     1.045458143585    -0.586469423400

  Mulliken Charges: (a.u.)
   Center  Symbol    Alpha    Beta     Spin     Total
       1     H     0.38662  0.38662  0.00000  0.22676
       2     O     4.17207  4.17207  0.00000 -0.34415
       3     C     2.84574  2.84574  0.00000  0.30852
       4     C     3.12360  3.12360  0.00000 -0.24720
       5     C     3.11862  3.11862  0.00000 -0.23724
       6     H     0.42907  0.42907  0.00000  0.14185
       7     C     3.06341  3.06341  0.00000 -0.12681
       8     H     0.40444  0.40444  0.00000  0.19113
       9     C     2.97116  2.97116  0.00000  0.05768
      10     H     0.41936  0.41936  0.00000  0.16128
      11     C     3.10829  3.10829  0.00000 -0.21657
      12     C     2.90901  2.90901  0.00000  0.18198
      13     H     0.42315  0.42315  0.00000  0.15369
      14     O     4.16895  4.16895  0.00000 -0.33790
      15     H     0.45651  0.45651  0.00000  0.08698

   Total alpha = 32.00000, Total beta = 32.00000, Total charge =  0.00000

*** Psi4 exiting successfully. Buy a developer a beer!
