  ==> Input File <==

--------------------------------------------------------------------------
set {
	reference rhf
	basis 6-31G*
}

set_num_threads( 1 )
memory 2 gb

molecule MOL {
0 1

H	 -1.237202	 -0.672035	 -1.119515
O	 -1.422729	 -0.573567	 -0.196946
C	 -0.731407	 0.539437	 0.309156
C	 0.680193	 0.672443	 -0.251532
H	 -1.319765	 1.404033	 0.030086
H	 -0.700012	 0.506517	 1.397677
C	 1.599139	 -0.492137	 0.118598
H	 0.616402	 0.758534	 -1.332349
H	 1.107032	 1.602637	 0.117369
H	 1.239738	 -1.428634	 -0.297334
H	 2.601428	 -0.335055	 -0.265730
H	 1.674954	 -0.608418	 1.197020

	symmetry c1
}
set optking {
	frozen_dihedral = ("
		8 4 3 2
	")
}

ee = energy('scf')
oeprop('DIPOLE', 'QUADRUPOLE', 'MULLIKEN_CHARGES')
f=open( 'psi4out.xyz', 'w' )
f.write( "12  " )
f.write( str(ee) + "\n" )
f.write( MOL.save_string_xyz() )
f.close()
--------------------------------------------------------------------------

    Molecular point group: c1

    Geometry (in Angstrom), charge = 0, multiplicity = 1:

       Center              X                  Y                   Z               Mass
    ------------   -----------------  -----------------  -----------------  -----------------
           H         -1.234411506504    -0.683689588987    -1.097696232801     1.007825032070
           O         -1.419938506504    -0.585221588987    -0.175127232801    15.994914619560
           C         -0.728616506504     0.527782411013     0.330974767199    12.000000000000
           C          0.682983493496     0.660788411013    -0.229713232801    12.000000000000
           H         -1.316974506504     1.392378411013     0.051904767199     1.007825032070
           H         -0.697221506504     0.494862411013     1.419495767199     1.007825032070
           C          1.601929493496    -0.503791588987     0.140416767199    12.000000000000
           H          0.619192493496     0.746879411013    -1.310530232801     1.007825032070
           H          1.109822493496     1.590982411013     0.139187767199     1.007825032070
           H          1.242528493496    -1.440288588987    -0.275515232801     1.007825032070
           H          2.604218493496    -0.346709588987    -0.243911232801     1.007825032070
           H          1.677744493496    -0.620072588987     1.218838767199     1.007825032070

  Charge       = 0
  Multiplicity = 1
  Basis Set: 6-31G*
  Basis Set:

    Orbital Energies (a.u.)
    -----------------------

    Doubly Occupied:

       1A    -20.551118     2A    -11.268008     3A    -11.224571
       4A    -11.213435     5A     -1.359499     6A     -1.051880
       7A     -0.924065     8A     -0.817635     9A     -0.665776
      10A     -0.643972    11A     -0.636149    12A     -0.571172
      13A     -0.537757    14A     -0.515034    15A     -0.490992
      16A     -0.464846    17A     -0.428722

  @DF-RHF Final Energy:  -193.10785249179662

   => Energetics <=

    Nuclear Repulsion Energy =            133.0733395881604793
    One-Electron Energy =                -525.6331629113967665
    Two-Electron Energy =                 199.4519708314396098
    DFT Exchange-Correlation Energy =       0.0000000000000000
    Empirical Dispersion Energy =           0.0000000000000000
    PCM Polarization Energy =               0.0000000000000000
    EFP Energy =                            0.0000000000000000
    Total Energy =                       -193.1078524917966774

  Mulliken Charges: (a.u.)
   Center  Symbol    Alpha    Beta     Spin     Total
       1     H     0.28211  0.28211  0.00000  0.43578
       2     O     4.37177  4.37177  0.00000 -0.74355
       3     C     2.98694  2.98694  0.00000  0.02611
       4     C     3.17690  3.17690  0.00000 -0.35379
       5     H     0.42749  0.42749  0.00000  0.14502
       6     H     0.41811  0.41811  0.00000  0.16378
       7     C     3.23832  3.23832  0.00000 -0.47665
       8     H     0.42595  0.42595  0.00000  0.14810
       9     H     0.41859  0.41859  0.00000  0.16283
      10     H     0.41586  0.41586  0.00000  0.16827
      11     H     0.41884  0.41884  0.00000  0.16232
      12     H     0.41912  0.41912  0.00000  0.16177

   Total alpha = 17.00000, Total beta = 17.00000, Total charge =  0.00000
