  ==> Input File <==

--------------------------------------------------------------------------
set {
	reference rhf
	basis cc-pvtz
}

set_num_threads( 4 )
memory 2 gb

molecule MOL {
0 1

H	 2.604402	 -0.489839	 0.547058
O	 2.063695	 -0.083403	 -0.105237
C	 0.742924	 0.005675	 0.350750
H	 0.731380	 0.039219	 1.440080
C	 -0.064076	 -1.193495	 -0.124425
C	 -0.047832	 1.190568	 -0.194462
H	 0.194729	 -1.376165	 -1.161308
H	 0.163013	 -2.094508	 0.429933
C	 -1.533112	 -0.752002	 0.006102
H	 0.148003	 1.266545	 -1.259275
H	 0.226235	 2.136493	 0.259722
C	 -1.506634	 0.799189	 0.067162
H	 -2.124360	 -1.110499	 -0.826089
H	 -1.983103	 -1.158030	 0.903403
H	 -2.183808	 1.252169	 -0.644677
H	 -1.813926	 1.138698	 1.049457

	symmetry c1
}
set optking {
	frozen_dihedral = ("
		1 2 3 6
	")
}

ee = optimize('scf')
oeprop('DIPOLE', 'QUADRUPOLE', 'MULLIKEN_CHARGES')
f=open( 'psi4out.xyz', 'w' )
f.write( "16  " )
f.write( str(ee) + "\n" )
f.write( MOL.save_string_xyz() )
f.close()
--------------------------------------------------------------------------

    Molecular point group: c1
  Charge       = 0
  Multiplicity = 1
  Basis Set: CC-PVTZ
  Basis Set:
  @DF-RHF Final Energy:  -270.11491417723067
    Total Energy =                       -270.1149141772306166
    Molecular point group: c1
  Basis Set: CC-PVTZ
  Basis Set:
  Basis Set: CC-PVTZ
  Basis Set:
  @DF-RHF Final Energy:  -270.11607295382282
    Total Energy =                       -270.1160729538231635
  Basis Set: CC-PVTZ
  Basis Set:
  Basis Set: CC-PVTZ
  Basis Set:
  @DF-RHF Final Energy:  -270.11616109298348
    Total Energy =                       -270.1161610929833614
  Basis Set: CC-PVTZ
  Basis Set:
  Basis Set: CC-PVTZ
  Basis Set:
  @DF-RHF Final Energy:  -270.11616503575851
    Total Energy =                       -270.1161650357583994
  Basis Set: CC-PVTZ
  Basis Set:
  Basis Set: CC-PVTZ
  Basis Set:
  @DF-RHF Final Energy:  -270.11616663871291
    Total Energy =                       -270.1161666387124569
  Basis Set: CC-PVTZ
  Basis Set:
  Basis Set: CC-PVTZ
  Basis Set:
  @DF-RHF Final Energy:  -270.11617227241089
    Total Energy =                       -270.1161722724110632
  Basis Set: CC-PVTZ
  Basis Set:
  Basis Set: CC-PVTZ
  Basis Set:
  @DF-RHF Final Energy:  -270.11617446619567
    Total Energy =                       -270.1161744661954458
  Basis Set: CC-PVTZ
  Basis Set:
  Charge       = 0
  Multiplicity = 1
  Basis Set: CC-PVTZ
  Basis Set:

    Orbital Energies (a.u.)
    -----------------------

    Doubly Occupied:

       1A    -20.545513     2A    -11.267851     3A    -11.213271
       4A    -11.212481     5A    -11.207112     6A    -11.206353
       7A     -1.365221     8A     -1.113791     9A     -0.965051
      10A     -0.949162    11A     -0.782962    12A     -0.779293
      13A     -0.714253    14A     -0.654828    15A     -0.622094
      16A     -0.581961    17A     -0.557758    18A     -0.526638
      19A     -0.518820    20A     -0.479883    21A     -0.469743
      22A     -0.454958    23A     -0.453271    24A     -0.415852

  @DF-RHF Final Energy:  -270.11617513142107

   => Energetics <=

    Nuclear Repulsion Energy =            255.3785149893482469
    One-Electron Energy =                -872.8731433509988165
    Two-Electron Energy =                 347.3784532302294110
    DFT Exchange-Correlation Energy =       0.0000000000000000
    Empirical Dispersion Energy =           0.0000000000000000
    PCM Polarization Energy =               0.0000000000000000
    EFP Energy =                            0.0000000000000000
    Total Energy =                       -270.1161751314211870
    Molecular point group: c1
  Basis Set: CC-PVTZ
  Basis Set:

  -Total Gradient:
     Atom            X                  Y                   Z
    ------   -----------------  -----------------  -----------------
       1        0.000192551154     0.001244077242     0.000621010811
       2       -0.000160378612    -0.001331592068    -0.000538121018
       3       -0.000245767674    -0.000378318915    -0.000725803102
       4       -0.000006289477    -0.000009364538     0.000014282703
       5        0.000002177280     0.000024903171    -0.000029207235
       6        0.000229187643     0.000428688620     0.000680638864
       7        0.000000617139    -0.000018445630     0.000000234213
       8       -0.000002008312     0.000014683933     0.000025452803
       9       -0.000015584533    -0.000003103713    -0.000009502721
      10       -0.000016357741     0.000003117367    -0.000015240832
      11       -0.000006602590    -0.000000627706    -0.000018207772
      12        0.000014807567     0.000002777897    -0.000001397772
      13        0.000024881332     0.000023745479    -0.000012788571
      14       -0.000010988472    -0.000008764476    -0.000008197816
      15       -0.000018670655     0.000018353263     0.000011394846
      16        0.000018425955    -0.000010129924     0.000005452600

  **** Optimization is complete! (in 8 steps) ****
    Final optimized geometry and variables:
    Molecular point group: c1

    Geometry (in Angstrom), charge = 0, multiplicity = 1:

    H            2.633930433901    -0.411200764443     0.515246444945
    O            2.065757717094    -0.003843518486    -0.110677684165
    C            0.741467873015    -0.011181803557     0.350122255203
    H            0.730837297041     0.017138712401     1.438719760081
    C           -0.081244964427    -1.201377206729    -0.135868034525
    C           -0.032469184313     1.184999912678    -0.181950959505
    H            0.166763306894    -1.369997233944    -1.177935500349
    H            0.136248423607    -2.116549418637     0.402203655606
    C           -1.542924750352    -0.746723695858     0.014000412240
    H            0.185502230044     1.280381708835    -1.240673734131
    H            0.251462167419     2.114230863447     0.294786182203
    C           -1.500989379017     0.806074467382     0.044390357086
    H           -2.155967740646    -1.118336983641    -0.796348810815
    H           -1.975382321588    -1.129846332195     0.930131459664
    H           -2.152073723066     1.247999716993    -0.698041963620
    H           -1.837586111560     1.168641143849     1.008569387134

  Mulliken Charges: (a.u.)
   Center  Symbol    Alpha    Beta     Spin     Total
       1     H     0.39392  0.39392  0.00000  0.21217
       2     O     4.20176  4.20176  0.00000 -0.40351
       3     C     2.92179  2.92179  0.00000  0.15643
       4     H     0.46905  0.46905  0.00000  0.06189
       5     C     3.10112  3.10112  0.00000 -0.20223
       6     C     3.09670  3.09670  0.00000 -0.19340
       7     H     0.45288  0.45288  0.00000  0.09424
       8     H     0.44978  0.44978  0.00000  0.10043
       9     C     3.11342  3.11342  0.00000 -0.22683
      10     H     0.45257  0.45257  0.00000  0.09486
      11     H     0.44619  0.44619  0.00000  0.10762
      12     C     3.11182  3.11182  0.00000 -0.22363
      13     H     0.44489  0.44489  0.00000  0.11022
      14     H     0.44928  0.44928  0.00000  0.10143
      15     H     0.44411  0.44411  0.00000  0.11179
      16     H     0.45073  0.45073  0.00000  0.09853

   Total alpha = 24.00000, Total beta = 24.00000, Total charge =  0.00000
