  ==> Input File <==

--------------------------------------------------------------------------
set {
	reference rhf
	basis 6-31G*
}

set_num_threads( 4 )
memory 2 gb

molecule MOL {
0 1

H	 -3.135461	 -1.215070	 0.001379
O	 -2.310168	 -0.871793	 -0.309793
C	 -2.026376	 0.340750	 0.341611
C	 -0.673256	 0.843270	 -0.132153
H	 -2.792215	 1.080697	 0.115987
H	 -2.013526	 0.200402	 1.421792
C	 0.486613	 -0.083066	 0.235839
H	 -0.715586	 0.970948	 -1.210718
H	 -0.508072	 1.829858	 0.297090
C	 1.840406	 0.433480	 -0.254303
H	 0.300215	 -1.068318	 -0.178947
H	 0.519509	 -0.203625	 1.318070
C	 1.855055	 0.737051	 -1.752069
H	 2.102904	 1.333431	 0.297875
H	 2.612590	 -0.299188	 -0.027647
H	 1.116678	 1.492473	 -2.005106
H	 2.826219	 1.103481	 -2.070681
H	 1.629677	 -0.151995	 -2.334575

	symmetry c1
}
set optking {
	frozen_dihedral = ("
		14 10 7 11
	")
}

ee = optimize('scf')
oeprop('DIPOLE', 'QUADRUPOLE', 'MULLIKEN_CHARGES')
f=open( 'psi4out.xyz', 'w' )
f.write( "18  " )
f.write( str(ee) + "\n" )
f.write( MOL.save_string_xyz() )
f.close()
--------------------------------------------------------------------------

    Molecular point group: c1
  Charge       = 0
  Multiplicity = 1
  Basis Set: 6-31G*
  Basis Set:
  @DF-RHF Final Energy:  -271.17653334690044
    Total Energy =                       -271.1765333469004418
    Molecular point group: c1
  Basis Set: 6-31G*
  Basis Set:
  Basis Set: 6-31G*
  Basis Set:
  @DF-RHF Final Energy:  -271.17723379838736
    Total Energy =                       -271.1772337983872490
  Basis Set: 6-31G*
  Basis Set:
  Basis Set: 6-31G*
  Basis Set:
  @DF-RHF Final Energy:  -271.17792454907834
    Total Energy =                       -271.1779245490783978
  Basis Set: 6-31G*
  Basis Set:
  Basis Set: 6-31G*
  Basis Set:
  @DF-RHF Final Energy:  -271.17799416519284
    Total Energy =                       -271.1779941651926720
  Basis Set: 6-31G*
  Basis Set:
  Basis Set: 6-31G*
  Basis Set:
  @DF-RHF Final Energy:  -271.17799858091672
    Total Energy =                       -271.1779985809167783
  Basis Set: 6-31G*
  Basis Set:
  Basis Set: 6-31G*
  Basis Set:
  @DF-RHF Final Energy:  -271.17800179158883
    Total Energy =                       -271.1780017915887129
  Basis Set: 6-31G*
  Basis Set:
  Charge       = 0
  Multiplicity = 1
  Basis Set: 6-31G*
  Basis Set:

    Orbital Energies (a.u.)
    -----------------------

    Doubly Occupied:

       1A    -20.552928     2A    -11.267971     3A    -11.211576
       4A    -11.211115     5A    -11.206689     6A    -11.203933
       7A     -1.359651     8A     -1.074274     9A     -1.005672
      10A     -0.914526    11A     -0.830256    12A     -0.769931
      13A     -0.703961    14A     -0.642656    15A     -0.612876
      16A     -0.602328    17A     -0.563206    18A     -0.553807
      19A     -0.524379    20A     -0.504780    21A     -0.490214
      22A     -0.460871    23A     -0.455352    24A     -0.449099
      25A     -0.427746

  @DF-RHF Final Energy:  -271.17800210236589

   => Energetics <=

    Nuclear Repulsion Energy =            252.1082686404755577
    One-Electron Energy =                -867.3729492301008577
    Two-Electron Energy =                 344.0866784872595190
    DFT Exchange-Correlation Energy =       0.0000000000000000
    Empirical Dispersion Energy =           0.0000000000000000
    PCM Polarization Energy =               0.0000000000000000
    EFP Energy =                            0.0000000000000000
    Total Energy =                       -271.1780021023657810
    Molecular point group: c1
  Basis Set: 6-31G*
  Basis Set:

  -Total Gradient:
     Atom            X                  Y                   Z
    ------   -----------------  -----------------  -----------------
       1        0.000000825083     0.000000863214     0.000001413764
       2        0.000003962412    -0.000001595516     0.000003493686
       3       -0.000003688603     0.000004154000    -0.000006591725
       4        0.000006814474     0.000002150536    -0.000001040559
       5        0.000001917066     0.000000765200     0.000000866050
       6       -0.000001309572    -0.000003990805     0.000000387562
       7       -0.000807831939     0.000798913907    -0.001597929219
       8       -0.000007069976    -0.000002590104     0.000000405360
       9        0.000004804329     0.000000329539    -0.000001838895
      10       -0.000859733170     0.001154629229    -0.001284464003
      11        0.000826975789    -0.000842596133     0.001540629464
      12        0.000000727533     0.000000095894     0.000004793413
      13       -0.000009827486     0.000002983405    -0.000009215173
      14        0.000849813633    -0.001116180186     0.001343583509
      15       -0.000004639148    -0.000003485818     0.000010728098
      16       -0.000005516026     0.000002501148    -0.000007536795
      17       -0.000000470013     0.000002613999     0.000002448862
      18        0.000004245617     0.000000438493    -0.000000133399

  **** Optimization is complete! (in 7 steps) ****
    Final optimized geometry and variables:
    Molecular point group: c1

    Geometry (in Angstrom), charge = 0, multiplicity = 1:

    H           -2.956270554822    -1.444801175396     0.453252928100
    O           -2.150656353229    -1.102642705151     0.093072943981
    C           -1.842358697652     0.124371354630     0.704991558487
    C           -0.520660940559     0.626676493458     0.148645612982
    H           -2.625114973690     0.854406570930     0.506439489065
    H           -1.770667669151     0.005238444435     1.785377784665
    C            0.658190966734    -0.292747869721     0.473935185460
    H           -0.630879428754     0.739968936370    -0.925012209599
    H           -0.336394417038     1.619556631036     0.556355409234
    C            2.028490061270     0.245491585142     0.045364772580
    H            0.493397995560    -1.268635896060     0.028677885781
    H            0.682453599031    -0.457261362317     1.550266904473
    C            2.163878365068     0.550260859591    -1.447143861700
    H            2.267816009064     1.133748100033     0.627189505828
    H            2.778580536331    -0.493442935898     0.318090460486
    H            1.523403506407     1.370158680462    -1.754739186646
    H            3.185107198311     0.825951367304    -1.692039244668
    H            1.902335512341    -0.316934824293    -2.047428041695

  Mulliken Charges: (a.u.)
   Center  Symbol    Alpha    Beta     Spin     Total
       1     H     0.28061  0.28061  0.00000  0.43878
       2     O     4.36961  4.36961  0.00000 -0.73923
       3     C     2.99733  2.99733  0.00000  0.00534
       4     C     3.16229  3.16229  0.00000 -0.32457
       5     H     0.42932  0.42932  0.00000  0.14136
       6     H     0.43266  0.43266  0.00000  0.13468
       7     C     3.15370  3.15370  0.00000 -0.30741
       8     H     0.41258  0.41258  0.00000  0.17484
       9     H     0.42470  0.42470  0.00000  0.15060
      10     C     3.15243  3.15243  0.00000 -0.30486
      11     H     0.40879  0.40879  0.00000  0.18242
      12     H     0.42625  0.42625  0.00000  0.14749
      13     C     3.24151  3.24151  0.00000 -0.48302
      14     H     0.42539  0.42539  0.00000  0.14922
      15     H     0.42157  0.42157  0.00000  0.15687
      16     H     0.42075  0.42075  0.00000  0.15850
      17     H     0.42034  0.42034  0.00000  0.15932
      18     H     0.42016  0.42016  0.00000  0.15967

   Total alpha = 25.00000, Total beta = 25.00000, Total charge =  0.00000
