  ==> Input File <==

--------------------------------------------------------------------------
set {
	reference rhf
	basis 6-31G*
}

set_num_threads( 4 )
memory 2 gb

molecule MOL {
0 1

H	 -3.042581	 -0.665861	 0.004336
O	 -2.245037	 -1.176175	 0.000806
C	 -1.162163	 -0.365336	 0.001020
C	 -0.566501	 0.078580	 1.167834
C	 -0.657334	 0.018914	 -1.235237
H	 -0.958313	 -0.216221	 2.126764
C	 0.540490	 0.911415	 1.084960
H	 -1.146243	 -0.342725	 -2.121409
C	 0.447396	 0.848390	 -1.316818
H	 1.004744	 1.260420	 1.990335
C	 1.046917	 1.296830	 -0.139768
C	 1.011818	 1.247522	 -2.660404
H	 1.904238	 1.944942	 -0.187538
H	 1.268718	 2.301295	 -2.679259
H	 0.303794	 1.059460	 -3.458649
H	 1.916052	 0.686772	 -2.880102

	symmetry c1
}
set optking {
	frozen_dihedral = ("
		5 3 2 1
	")
}

ee = optimize('scf')
oeprop('DIPOLE', 'QUADRUPOLE', 'MULLIKEN_CHARGES')
f=open( 'psi4out.xyz', 'w' )
f.write( "16  " )
f.write( str(ee) + "\n" )
f.write( MOL.save_string_xyz() )
f.close()
--------------------------------------------------------------------------

    Molecular point group: c1
  Charge       = 0
  Multiplicity = 1
  Basis Set: 6-31G*
  Basis Set:
  @DF-RHF Final Energy:  -344.58975745976306
    Total Energy =                       -344.5897574597628932
    Molecular point group: c1
  Basis Set: 6-31G*
  Basis Set:
  Basis Set: 6-31G*
  Basis Set:
  @DF-RHF Final Energy:  -344.59060135153732
    Total Energy =                       -344.5906013515371455
  Basis Set: 6-31G*
  Basis Set:
  Basis Set: 6-31G*
  Basis Set:
  @DF-RHF Final Energy:  -344.59066338402391
    Total Energy =                       -344.5906633840237419
  Basis Set: 6-31G*
  Basis Set:
  Basis Set: 6-31G*
  Basis Set:
  @DF-RHF Final Energy:  -344.59066951434858
    Total Energy =                       -344.5906695143484626
  Basis Set: 6-31G*
  Basis Set:
  Basis Set: 6-31G*
  Basis Set:
  @DF-RHF Final Energy:  -344.59067062502214
    Total Energy =                       -344.5906706250220282
  Basis Set: 6-31G*
  Basis Set:
  Charge       = 0
  Multiplicity = 1
  Basis Set: 6-31G*
  Basis Set:

    Orbital Energies (a.u.)
    -----------------------

    Doubly Occupied:

       1A    -20.574311     2A    -11.286231     3A    -11.241240
       4A    -11.232539     5A    -11.222101     6A    -11.222068
       7A    -11.221486     8A    -11.220994     9A     -1.388966
      10A     -1.149945    11A     -1.043142    12A     -1.003153
      13A     -0.936435    14A     -0.827376    15A     -0.805363
      16A     -0.715830    17A     -0.675923    18A     -0.653538
      19A     -0.617797    20A     -0.588718    21A     -0.575553
      22A     -0.567532    23A     -0.550612    24A     -0.509998
      25A     -0.502473    26A     -0.479565    27A     -0.461367
      28A     -0.329290    29A     -0.318406

  @DF-RHF Final Energy:  -344.59067114387108

   => Energetics <=

    Nuclear Repulsion Energy =            344.9506519856503246
    One-Electron Energy =               -1151.2387465210831579
    Two-Electron Energy =                 461.6974233915620403
    DFT Exchange-Correlation Energy =       0.0000000000000000
    Empirical Dispersion Energy =           0.0000000000000000
    PCM Polarization Energy =               0.0000000000000000
    EFP Energy =                            0.0000000000000000
    Total Energy =                       -344.5906711438707930
    Molecular point group: c1
  Basis Set: 6-31G*
  Basis Set:

  -Total Gradient:
     Atom            X                  Y                   Z
    ------   -----------------  -----------------  -----------------
       1       -0.000006272222    -0.000006733112     0.000055049095
       2       -0.000053276719    -0.000041450990    -0.000076347104
       3        0.000039950163     0.000070344223     0.000079027333
       4        0.000027366866     0.000021016837     0.000015457219
       5       -0.000029979168    -0.000031529239    -0.000069039742
       6       -0.000002686846    -0.000001887090    -0.000005379767
       7       -0.000060220818    -0.000030080017    -0.000001337206
       8        0.000017172891     0.000006300132     0.000028844019
       9        0.000048923033     0.000010520105     0.000021054621
      10        0.000002519449     0.000002914931     0.000003056827
      11        0.000024800814    -0.000014998550    -0.000041353972
      12       -0.000000238191     0.000004299616    -0.000002304280
      13       -0.000007923171    -0.000002125788    -0.000004460552
      14       -0.000010208509     0.000010323366    -0.000002842186
      15        0.000004230010    -0.000007006732    -0.000010785144
      16        0.000005842423     0.000010092311     0.000011360839

  **** Optimization is complete! (in 6 steps) ****
    Final optimized geometry and variables:
    Molecular point group: c1

    Geometry (in Angstrom), charge = 0, multiplicity = 1:

    H           -2.804816941613    -1.026214556977     0.457154077978
    O           -1.999772738725    -1.526624709234     0.455111380924
    C           -0.920268999167    -0.682157606562     0.400099537095
    C           -0.325305782337    -0.247990871028     1.569624973974
    C           -0.411498570539    -0.303118837748    -0.832160973359
    H           -0.726214406509    -0.561903097224     2.515897961125
    C            0.784066190112     0.579651829849     1.493027935209
    H           -0.891284008151    -0.670053787926    -1.722000848721
    C            0.699960175142     0.523856169095    -0.915127655389
    H            1.253466737693     0.924637334310     2.397221530857
    C            1.291286921790     0.965147372217     0.265072765830
    C            1.273310328125     0.919316888820    -2.256418825964
    H            2.152511620659     1.609116942927     0.221538568477
    H            1.544062364703     1.969762388303    -2.273244029798
    H            0.564289965623     0.743057298903    -3.056886272444
    H            2.170049958993     0.347268291182    -2.477746269359

  Mulliken Charges: (a.u.)
   Center  Symbol    Alpha    Beta     Spin     Total
       1     H     0.27141  0.27141  0.00000  0.45717
       2     O     4.38924  4.38924  0.00000 -0.77848
       3     C     2.81515  2.81515  0.00000  0.36970
       4     C     3.12303  3.12303  0.00000 -0.24605
       5     C     3.13537  3.13537  0.00000 -0.27075
       6     H     0.39529  0.39529  0.00000  0.20941
       7     C     3.09371  3.09371  0.00000 -0.18742
       8     H     0.39725  0.39725  0.00000  0.20551
       9     C     2.97460  2.97460  0.00000  0.05080
      10     H     0.39858  0.39858  0.00000  0.20283
      11     C     3.11680  3.11680  0.00000 -0.23360
      12     C     3.25385  3.25385  0.00000 -0.50771
      13     H     0.40235  0.40235  0.00000  0.19529
      14     H     0.41223  0.41223  0.00000  0.17555
      15     H     0.41267  0.41267  0.00000  0.17465
      16     H     0.40845  0.40845  0.00000  0.18310

   Total alpha = 29.00000, Total beta = 29.00000, Total charge = -0.00000
