                              Psi4 1.0.54 Driver

  ==> Input File <==

--------------------------------------------------------------------------
set {
	reference rhf
	basis cc-pvtz
}

set_num_threads( 4 )
memory 2 gb

molecule MOL {
0 1

H	 -3.144994	 -1.202467	 -0.018751
O	 -2.321472	 -0.864941	 -0.318626
C	 -2.021813	 0.336996	 0.342658
C	 -0.669613	 0.837286	 -0.127252
H	 -2.780861	 1.084746	 0.127159
H	 -2.006390	 0.184138	 1.420053
C	 0.490865	 -0.082543	 0.241244
H	 -0.708709	 0.967192	 -1.204587
H	 -0.507562	 1.822272	 0.303070
C	 1.839800	 0.429565	 -0.255472
H	 0.305636	 -1.070211	 -0.165276
H	 0.527397	 -0.195943	 1.322876
C	 2.978173	 -0.556918	 -0.017259
H	 1.770380	 0.648249	 -1.317574
H	 2.072110	 1.371798	 0.234344
H	 2.791692	 -1.497774	 -0.524141
H	 3.921024	 -0.165564	 -0.382194
H	 3.096131	 -0.770703	 1.040014

	symmetry c1
}
set optking {
	frozen_dihedral = ("
		14 10 7 11
	")
}

ee,wfn = optimize('scf', return_wfn=True)
oeprop( wfn, 'DIPOLE', 'QUADRUPOLE', 'MULLIKEN_CHARGES')
f=open( 'psi4out.xyz', 'w' )
f.write( "18  " )
f.write( str(ee) + "\n" )
f.write( MOL.save_string_xyz() )
f.close()
--------------------------------------------------------------------------

    Molecular point group: c1
  Charge       = 0
  Multiplicity = 1
  Basis Set: CC-PVTZ
  Basis Set:
  @DF-RHF Final Energy:  -271.28677510772559
    Total Energy =                       -271.2867751077254752
    Molecular point group: c1
  Basis Set: CC-PVTZ
  Basis Set:
  Basis Set: CC-PVTZ
  Basis Set:
  @DF-RHF Final Energy:  -271.28679390591782
    Total Energy =                       -271.2867939059177047
  Basis Set: CC-PVTZ
  Basis Set:
  Basis Set: CC-PVTZ
  Basis Set:
  @DF-RHF Final Energy:  -271.28680127226846
    Total Energy =                       -271.2868012722685762
  Basis Set: CC-PVTZ
  Basis Set:
  Charge       = 0
  Multiplicity = 1
  Basis Set: CC-PVTZ
  Basis Set:

    Orbital Energies (a.u.)
    -----------------------

    Doubly Occupied:

       1A    -20.546243     2A    -11.265983     3A    -11.210554
       4A    -11.209112     5A    -11.204967     6A    -11.202797
       7A     -1.364146     8A     -1.076562     9A     -1.010314
      10A     -0.914526    11A     -0.818600    12A     -0.784945
      13A     -0.708213    14A     -0.643523    15A     -0.626785
      16A     -0.581915    17A     -0.572021    18A     -0.560241
      19A     -0.523974    20A     -0.502223    21A     -0.489227
      22A     -0.468750    23A     -0.458524    24A     -0.449762
      25A     -0.431536

  @DF-RHF Final Energy:  -271.28680140324843

   => Energetics <=

    Nuclear Repulsion Energy =            249.3085284774500678
    One-Electron Energy =                -861.9397720487535253
    Two-Electron Energy =                 341.3444421680550249
    DFT Exchange-Correlation Energy =       0.0000000000000000
    Empirical Dispersion Energy =           0.0000000000000000
    PCM Polarization Energy =               0.0000000000000000
    EFP Energy =                            0.0000000000000000
    Total Energy =                       -271.2868014032484325
    Molecular point group: c1
  Basis Set: CC-PVTZ
  Basis Set:

  -Total Gradient:
     Atom            X                  Y                   Z
    ------   -----------------  -----------------  -----------------
       1        0.000002887656     0.000002864702    -0.000001051861
       2       -0.000024804372     0.000010890652    -0.000011232481
       3        0.000024609646    -0.000011895575     0.000044484040
       4       -0.000002302020    -0.000000655959    -0.000039612469
       5       -0.000000160965    -0.000013256194    -0.000006927741
       6       -0.000008146938     0.000001919266     0.000001267024
       7       -0.000738078077     0.000878628104    -0.001123632330
       8        0.000006344585     0.000004055730    -0.000003839091
       9        0.000005673002    -0.000014548250    -0.000003072420
      10        0.000544982390    -0.001501825193    -0.000081323170
      11        0.000530154251    -0.000481181726     0.000960916756
      12        0.000003477295    -0.000002540031     0.000005596872
      13        0.000002901640    -0.000009302890    -0.000002469796
      14       -0.000335875648     0.001119294820     0.000264722305
      15        0.000004604809     0.000003353971    -0.000000733830
      16        0.000004834493     0.000015108431     0.000009167888
      17       -0.000017120973    -0.000005951163     0.000005144703
      18       -0.000003980775     0.000005041303    -0.000017404400

  **** Optimization is complete! (in 4 steps) ****
    Final optimized geometry and variables:
    Molecular point group: c1

    Geometry (in Angstrom), charge = 0, multiplicity = 1:

    H           -3.149066797425    -1.181388842899     0.023463927380
    O           -2.326448827984    -0.848699833236    -0.283961833055
    C           -2.015358573910     0.353137003732     0.372099488118
    C           -0.665244210958     0.846246840293    -0.111027687511
    H           -2.772879395710     1.103927109543     0.161883235250
    H           -1.990861252915     0.202398783839     1.449577502310
    C            0.493725189182    -0.079140989328     0.246028274181
    H           -0.713877209173     0.976609597615    -1.187823276454
    H           -0.493774110010     1.830248152936     0.318015794602
    C            1.845643269993     0.438435435029    -0.237636046943
    H            0.311137586643    -1.064647468128    -0.166861565929
    H            0.529140654002    -0.206271229671     1.326351042982
    C            2.987708603209    -0.539368499027     0.014741667154
    H            1.786041510898     0.664338280511    -1.298876618307
    H            2.065255511756     1.382190502150     0.255486096009
    H            2.819675955748    -1.477680372609    -0.502903817877
    H            3.933952457909    -0.136552855657    -0.328112460193
    H            3.086570412503    -0.760436471334     1.072491975552

  Mulliken Charges: (a.u.)
   Center  Symbol    Alpha    Beta     Spin     Total
       1     H     0.39572  0.39572  0.00000  0.20856
       2     O     4.19875  4.19875  0.00000 -0.39750
       3     C     2.97377  2.97377  0.00000  0.05245
       4     C     3.09124  3.09124  0.00000 -0.18247
       5     H     0.46539  0.46539  0.00000  0.06921
       6     H     0.47370  0.47370  0.00000  0.05260
       7     C     3.08646  3.08646  0.00000 -0.17292
       8     H     0.45200  0.45200  0.00000  0.09601
       9     H     0.45436  0.45436  0.00000  0.09127
      10     C     3.08357  3.08357  0.00000 -0.16713
      11     H     0.44483  0.44483  0.00000  0.11034
      12     H     0.45941  0.45941  0.00000  0.08117
      13     C     3.14964  3.14964  0.00000 -0.29929
      14     H     0.45495  0.45495  0.00000  0.09010
      15     H     0.45656  0.45656  0.00000  0.08689
      16     H     0.45431  0.45431  0.00000  0.09138
      17     H     0.44942  0.44942  0.00000  0.10117
      18     H     0.45592  0.45592  0.00000  0.08815

   Total alpha = 25.00000, Total beta = 25.00000, Total charge = -0.00000

*** Psi4 exiting successfully. Buy a developer a beer!
