  ==> Input File <==

--------------------------------------------------------------------------
set {
	reference rhf
	basis 6-31G*
}

set_num_threads( 4 )
memory 2 gb

molecule MOL {
0 1

O	 -1.556552	 -0.597882	 -0.694905
C	 -1.083277	 0.139568	 0.115197
C	 0.323299	 -0.082943	 0.642902
C	 -1.860983	 1.310371	 0.673964
C	 1.355627	 -0.005344	 -0.493127
H	 0.396251	 -1.044647	 1.143147
H	 0.528637	 0.693580	 1.371677
C	 2.786168	 -0.195604	 0.007473
H	 1.132807	 -0.760304	 -1.243899
H	 1.259610	 0.958506	 -0.981915
H	 3.495561	 -0.130713	 -0.811210
H	 2.912696	 -1.165395	 0.480041
H	 3.049284	 0.565503	 0.735850
H	 -1.844148	 1.300975	 1.759918
H	 -2.882648	 1.277543	 0.322026
H	 -1.399239	 2.240922	 0.354477

	symmetry c1
}
set optking {
	frozen_dihedral = ("
		4 2 3 5
	")
}

ee = optimize('scf')
oeprop('DIPOLE', 'QUADRUPOLE', 'MULLIKEN_CHARGES')
f=open( 'psi4out.xyz', 'w' )
f.write( "16  " )
f.write( str(ee) + "\n" )
f.write( MOL.save_string_xyz() )
f.close()
--------------------------------------------------------------------------

    Molecular point group: c1
  Charge       = 0
  Multiplicity = 1
  Basis Set: 6-31G*
  Basis Set:
  @DF-RHF Final Energy:  -270.02946216517694
    Total Energy =                       -270.0294621651769376
    Molecular point group: c1
  Basis Set: 6-31G*
  Basis Set:
  Basis Set: 6-31G*
  Basis Set:
  @DF-RHF Final Energy:  -270.02818950912899
    Total Energy =                       -270.0281895091289925
  Basis Set: 6-31G*
  Basis Set:
  Basis Set: 6-31G*
  Basis Set:
  @DF-RHF Final Energy:  -270.03010439098466
    Total Energy =                       -270.0301043909848318
  Basis Set: 6-31G*
  Basis Set:
  Basis Set: 6-31G*
  Basis Set:
  @DF-RHF Final Energy:  -270.03041987578030
    Total Energy =                       -270.0304198757802396
  Basis Set: 6-31G*
  Basis Set:
  Basis Set: 6-31G*
  Basis Set:
  @DF-RHF Final Energy:  -270.03030004985851
    Total Energy =                       -270.0303000498584538
  Basis Set: 6-31G*
  Basis Set:
  Basis Set: 6-31G*
  Basis Set:
  @DF-RHF Final Energy:  -270.03035792151002
    Total Energy =                       -270.0303579215103582
  Basis Set: 6-31G*
  Basis Set:
  Basis Set: 6-31G*
  Basis Set:
  @DF-RHF Final Energy:  -270.03043902442630
    Total Energy =                       -270.0304390244261867
  Basis Set: 6-31G*
  Basis Set:
  Charge       = 0
  Multiplicity = 1
  Basis Set: 6-31G*
  Basis Set:

    Orbital Energies (a.u.)
    -----------------------

    Doubly Occupied:

       1A    -20.548337     2A    -11.325853     3A    -11.230490
       4A    -11.229034     5A    -11.228149     6A    -11.216899
       7A     -1.394374     8A     -1.079290     9A     -1.014458
      10A     -0.948393    11A     -0.826444    12A     -0.734246
      13A     -0.658362    14A     -0.648095    15A     -0.614603
      16A     -0.603869    17A     -0.573161    18A     -0.559855
      19A     -0.542860    20A     -0.511694    21A     -0.498606
      22A     -0.481982    23A     -0.471159    24A     -0.398709

  @DF-RHF Final Energy:  -270.03043993163425

   => Energetics <=

    Nuclear Repulsion Energy =            236.8493228521703600
    One-Electron Energy =                -835.0816834896455703
    Two-Electron Energy =                 328.2019207058408483
    DFT Exchange-Correlation Energy =       0.0000000000000000
    Empirical Dispersion Energy =           0.0000000000000000
    PCM Polarization Energy =               0.0000000000000000
    EFP Energy =                            0.0000000000000000
    Total Energy =                       -270.0304399316344188
    Molecular point group: c1
  Basis Set: 6-31G*
  Basis Set:

  -Total Gradient:
     Atom            X                  Y                   Z
    ------   -----------------  -----------------  -----------------
       1       -0.000004993975    -0.000003592734    -0.000005782482
       2       -0.000156147941    -0.000165730156     0.000385734890
       3        0.000029037958    -0.000333743734    -0.000166952497
       4        0.000124768564     0.000191758674    -0.000266760616
       5        0.000013568347     0.000338244405     0.000044253004
       6       -0.000001950524     0.000002402472    -0.000001271700
       7        0.000011128540    -0.000001164030    -0.000001592489
       8       -0.000001454064    -0.000017476974     0.000010445479
       9       -0.000001754097    -0.000004880220     0.000022436438
      10       -0.000006754157     0.000004779949    -0.000024836692
      11       -0.000006828697     0.000012238792    -0.000000373552
      12        0.000021138944    -0.000014079248    -0.000004243909
      13       -0.000016912473    -0.000009653544     0.000004287160
      14        0.000000888069    -0.000010175827    -0.000010283970
      15       -0.000002678312    -0.000008108295     0.000009370852
      16       -0.000001056178     0.000019180471     0.000005570086

  **** Optimization is complete! (in 8 steps) ****
    Final optimized geometry and variables:
    Molecular point group: c1

    Geometry (in Angstrom), charge = 0, multiplicity = 1:

    O           -1.545644504085    -0.737496913519    -0.691944145655
    C           -1.087748958247     0.033789257364     0.095214001632
    C            0.337437267628    -0.128572256695     0.601614371464
    C           -1.887121632192     1.206368410290     0.615491553769
    C            1.356538805260    -0.078824092721    -0.544160512593
    H            0.395360683730    -1.094681637347     1.096000527612
    H            0.568582428739     0.629691143647     1.343978980726
    C            2.788024704124    -0.302093938370    -0.060559725006
    H            1.088301307390    -0.830860549634    -1.276996337190
    H            1.289804234954     0.883844130268    -1.046172711914
    H            3.488221622964    -0.258649990930    -0.888556484907
    H            2.894240815442    -1.274052164621     0.412407536182
    H            3.083754538618     0.452507810448     0.662810379367
    H           -1.978402985482     1.146259448349     1.696584227564
    H           -2.870605148199     1.213347652034     0.166775007245
    H           -1.373898507303     2.137274046804     0.389556321627

  Mulliken Charges: (a.u.)
   Center  Symbol    Alpha    Beta     Spin     Total
       1     O     4.26316  4.26316  0.00000 -0.52631
       2     C     2.73607  2.73607  0.00000  0.52787
       3     C     3.20164  3.20164  0.00000 -0.40328
       4     C     3.28924  3.28924  0.00000 -0.57848
       5     C     3.15765  3.15765  0.00000 -0.31529
       6     H     0.40241  0.40241  0.00000  0.19519
       7     H     0.41671  0.41671  0.00000  0.16658
       8     C     3.24058  3.24058  0.00000 -0.48117
       9     H     0.40242  0.40242  0.00000  0.19516
      10     H     0.42023  0.42023  0.00000  0.15954
      11     H     0.41558  0.41558  0.00000  0.16884
      12     H     0.41899  0.41899  0.00000  0.16203
      13     H     0.42172  0.42172  0.00000  0.15655
      14     H     0.40790  0.40790  0.00000  0.18419
      15     H     0.39713  0.39713  0.00000  0.20575
      16     H     0.40859  0.40859  0.00000  0.18283

   Total alpha = 24.00000, Total beta = 24.00000, Total charge =  0.00000
