  ==> Input File <==

--------------------------------------------------------------------------
set {
	reference rhf
	basis 6-31G*
}

set_num_threads( 4 )
memory 2 gb

molecule MOL {
0 1

H	 -3.892951	 0.981613	 -0.358725
C	 -3.196921	 0.361773	 0.172313
C	 -2.076860	 -0.007332	 -0.404944
H	 -3.439953	 0.057760	 1.173024
O	 -1.180634	 -0.819263	 0.215062
H	 -1.811520	 0.292194	 -1.403480
C	 0.051604	 -1.018856	 -0.387932
C	 1.043764	 0.054862	 -0.001873
H	 -0.017620	 -1.041351	 -1.469781
H	 0.437898	 -1.966374	 -0.042284
F	 2.226173	 -0.227380	 -0.529182
F	 0.678188	 1.244730	 -0.449534
F	 1.192517	 0.145056	 1.303549

	symmetry c1
}
set optking {
	frozen_dihedral = ("
		11 8 7 9
	")
}

ee = optimize('scf')
oeprop('DIPOLE', 'QUADRUPOLE', 'MULLIKEN_CHARGES')
f=open( 'psi4out.xyz', 'w' )
f.write( "13  " )
f.write( str(ee) + "\n" )
f.write( MOL.save_string_xyz() )
f.close()
--------------------------------------------------------------------------

    Molecular point group: c1
  Charge       = 0
  Multiplicity = 1
  Basis Set: 6-31G*
  Basis Set:
  @DF-RHF Final Energy:  -527.53588684711758
    Total Energy =                       -527.5358868471178084
    Molecular point group: c1
  Basis Set: 6-31G*
  Basis Set:
  Basis Set: 6-31G*
  Basis Set:
  @DF-RHF Final Energy:  -527.53588927623321
    Total Energy =                       -527.5358892762336609
  Basis Set: 6-31G*
  Basis Set:
  Charge       = 0
  Multiplicity = 1
  Basis Set: 6-31G*
  Basis Set:

    Orbital Energies (a.u.)
    -----------------------

    Doubly Occupied:

       1A    -26.344608     2A    -26.343861     3A    -26.340388
       4A    -20.608312     5A    -11.503148     6A    -11.318991
       7A    -11.299445     8A    -11.215837     9A     -1.741733
      10A     -1.639941    11A     -1.638167    12A     -1.438216
      13A     -1.084192    14A     -1.016483    15A     -0.925321
      16A     -0.836440    17A     -0.831028    18A     -0.821232
      19A     -0.792036    20A     -0.721602    21A     -0.711282
      22A     -0.696446    23A     -0.675959    24A     -0.660370
      25A     -0.654700    26A     -0.643085    27A     -0.634334
      28A     -0.584762    29A     -0.563146    30A     -0.523835
      31A     -0.514110    32A     -0.351499

  @DF-RHF Final Energy:  -527.53589015881175

   => Energetics <=

    Nuclear Repulsion Energy =            413.5316132496851083
    One-Electron Energy =               -1550.7859863228509312
    Two-Electron Energy =                 609.7184829143538991
    DFT Exchange-Correlation Energy =       0.0000000000000000
    Empirical Dispersion Energy =           0.0000000000000000
    PCM Polarization Energy =               0.0000000000000000
    EFP Energy =                            0.0000000000000000
    Total Energy =                       -527.5358901588119807
    Molecular point group: c1
  Basis Set: 6-31G*
  Basis Set:

  -Total Gradient:
     Atom            X                  Y                   Z
    ------   -----------------  -----------------  -----------------
       1       -0.000007601132    -0.000014372771    -0.000007842926
       2        0.000007062279    -0.000003736791    -0.000005917008
       3       -0.000035415575     0.000044367656     0.000006111408
       4       -0.000005524691    -0.000008697741     0.000005188453
       5        0.000068254301     0.000006826933    -0.000056133502
       6       -0.000005506804    -0.000013643717     0.000000838496
       7        0.000577704910    -0.000659823799     0.000175804625
       8       -0.000256487656     0.000438330139    -0.000515114132
       9       -0.000496063943     0.000446746533     0.000002675596
      10        0.000013511987     0.000006179696     0.000005728538
      11        0.000126482223    -0.000285647387     0.000400378832
      12        0.000030105909     0.000048117480    -0.000003805423
      13       -0.000016521796    -0.000004646228    -0.000007912958

  **** Optimization is complete! (in 3 steps) ****
    Final optimized geometry and variables:
    Molecular point group: c1

    Geometry (in Angstrom), charge = 0, multiplicity = 1:

    H           -3.890404721490     0.983337501915    -0.360198142484
    C           -3.194789790518     0.363434914092     0.171326354374
    C           -2.075959049719    -0.008605051734    -0.406416232943
    H           -3.437336494137     0.061460718389     1.172864345336
    O           -1.180433944061    -0.820935183551     0.214088889918
    H           -1.811151086296     0.288773576254    -1.405713716388
    C            0.052687738891    -1.020164836764    -0.387629338096
    C            1.043111554936     0.055481772730    -0.001916929667
    H           -0.018641670923    -1.040463096072    -1.469440060594
    H            0.439341112896    -1.967116433623    -0.041392023275
    F            2.224952007633    -0.222795353730    -0.532492189698
    F            0.673317344235     1.245950936598    -0.444878662094
    F            1.195061376402     0.142001995143     1.303274175902

  Mulliken Charges: (a.u.)
   Center  Symbol    Alpha    Beta     Spin     Total
       1     H     0.40706  0.40706  0.00000  0.18588
       2     C     3.23548  3.23548  0.00000 -0.47095
       3     C     2.89569  2.89569  0.00000  0.20862
       4     H     0.40177  0.40177  0.00000  0.19647
       5     O     4.30159  4.30159  0.00000 -0.60318
       6     H     0.40670  0.40670  0.00000  0.18659
       7     C     3.06374  3.06374  0.00000 -0.12748
       8     C     2.45585  2.45585  0.00000  1.08830
       9     H     0.40560  0.40560  0.00000  0.18881
      10     H     0.38968  0.38968  0.00000  0.22064
      11     F     4.68278  4.68278  0.00000 -0.36556
      12     F     4.67970  4.67970  0.00000 -0.35940
      13     F     4.67436  4.67436  0.00000 -0.34873

   Total alpha = 32.00000, Total beta = 32.00000, Total charge = -0.00000
