  ==> Input File <==

--------------------------------------------------------------------------
set {
	reference rhf
	basis 6-31G*
}

set_num_threads( 1 )
memory 2 gb

molecule MOL {
0 1

H	 -3.261111	 -0.295142	 1.469456
C	 -3.306842	 -0.277400	 0.373456
C	 -2.660244	 0.921717	 -0.272021
O	 -3.838538	 -1.161155	 -0.216482
C	 -1.220012	 1.144545	 0.209990
H	 -2.705793	 0.797307	 -1.347733
H	 -3.263782	 1.790044	 -0.010477
C	 -0.252658	 0.041456	 -0.226725
H	 -0.873521	 2.100229	 -0.171974
H	 -1.211708	 1.231594	 1.295398
C	 1.180775	 0.282413	 0.250794
H	 -0.266029	 -0.034465	 -1.312038
H	 -0.597733	 -0.921000	 0.146291
C	 2.148627	 -0.814315	 -0.201312
H	 1.516199	 1.249228	 -0.115937
H	 1.192670	 0.346017	 1.338083
C	 3.580890	 -0.659131	 0.322722
H	 2.166869	 -0.852443	 -1.289387
H	 1.762857	 -1.776509	 0.128956
C	 4.582868	 -1.656639	 -0.260919
H	 3.564935	 -0.774229	 1.403669
H	 3.926625	 0.354647	 0.131299
H	 4.254469	 -2.679881	 -0.098441
H	 4.719308	 -1.518438	 -1.328279
H	 5.555673	 -1.544188	 0.208124

	symmetry c1
}
set optking {
	frozen_dihedral = ("
		6 3 5 8,
		6 3 2 4,
		3 5 8 12,
		12 8 11 14,
		8 11 14 18
	")
}

ee = energy('scf')
oeprop('DIPOLE', 'QUADRUPOLE', 'MULLIKEN_CHARGES')
f=open( 'psi4out.xyz', 'w' )
f.write( "25  " )
f.write( str(ee) + "\n" )
f.write( MOL.save_string_xyz() )
f.close()
--------------------------------------------------------------------------

    Molecular point group: c1

    Geometry (in Angstrom), charge = 0, multiplicity = 1:

       Center              X                  Y                   Z               Mass
    ------------   -----------------  -----------------  -----------------  -----------------
           H         -3.291181566103    -0.035012451267     1.474609626645     1.007825032070
           C         -3.336912566103    -0.017270451267     0.378609626645    12.000000000000
           C         -2.690314566103     1.181846548733    -0.266867373355    12.000000000000
           O         -3.868608566103    -0.901025451267    -0.211328373355    15.994914619560
           C         -1.250082566103     1.404674548733     0.215143626645    12.000000000000
           H         -2.735863566103     1.057436548733    -1.342579373355     1.007825032070
           H         -3.293852566103     2.050173548733    -0.005323373355     1.007825032070
           C         -0.282728566103     0.301585548733    -0.221571373355    12.000000000000
           H         -0.903591566103     2.360358548733    -0.166820373355     1.007825032070
           H         -1.241778566103     1.491723548733     1.300551626645     1.007825032070
           C          1.150704433897     0.542542548733     0.255947626645    12.000000000000
           H         -0.296099566103     0.225664548733    -1.306884373355     1.007825032070
           H         -0.627803566103    -0.660870451267     0.151444626645     1.007825032070
           C          2.118556433897    -0.554185451267    -0.196158373355    12.000000000000
           H          1.486128433897     1.509357548733    -0.110783373355     1.007825032070
           H          1.162599433897     0.606146548733     1.343236626645     1.007825032070
           C          3.550819433897    -0.399001451267     0.327875626645    12.000000000000
           H          2.136798433897    -0.592313451267    -1.284233373355     1.007825032070
           H          1.732786433897    -1.516379451267     0.134109626645     1.007825032070
           C          4.552797433897    -1.396509451267    -0.255765373355    12.000000000000
           H          3.534864433897    -0.514099451267     1.408822626645     1.007825032070
           H          3.896554433897     0.614776548733     0.136452626645     1.007825032070
           H          4.224398433897    -2.419751451267    -0.093287373355     1.007825032070
           H          4.689237433897    -1.258308451267    -1.323125373355     1.007825032070
           H          5.525602433897    -1.284058451267     0.213277626645     1.007825032070

  Charge       = 0
  Multiplicity = 1
  Basis Set: 6-31G*
  Basis Set:

    Orbital Energies (a.u.)
    -----------------------

    Doubly Occupied:

       1A    -20.562089     2A    -11.326229     3A    -11.235518
       4A    -11.234786     5A    -11.224201     6A    -11.220815
       7A    -11.217942     8A    -11.216972     9A    -11.210738
      10A     -1.402070    11A     -1.103855    12A     -1.069045
      13A     -1.015433    14A     -0.943853    15A     -0.868991
      16A     -0.815095    17A     -0.793360    18A     -0.786959
      19A     -0.665271    20A     -0.663971    21A     -0.639009
      22A     -0.614402    23A     -0.607467    24A     -0.591241
      25A     -0.566432    26A     -0.555316    27A     -0.537654
      28A     -0.520695    29A     -0.508074    30A     -0.500492
      31A     -0.487055    32A     -0.477613    33A     -0.464228
      34A     -0.463891    35A     -0.442106    36A     -0.409647

  @DF-RHF Final Energy:  -387.12307353145508

   => Energetics <=

    Nuclear Repulsion Energy =            435.0050521870669513
    One-Electron Energy =               -1386.3309871589249269
    Two-Electron Energy =                 564.2028614404021027
    DFT Exchange-Correlation Energy =       0.0000000000000000
    Empirical Dispersion Energy =           0.0000000000000000
    PCM Polarization Energy =               0.0000000000000000
    EFP Energy =                            0.0000000000000000
    Total Energy =                       -387.1230735314559297

  Mulliken Charges: (a.u.)
   Center  Symbol    Alpha    Beta     Spin     Total
       1     H     0.43258  0.43258  0.00000  0.13483
       2     C     2.83087  2.83087  0.00000  0.33827
       3     C     3.20811  3.20811  0.00000 -0.41621
       4     O     4.23772  4.23772  0.00000 -0.47544
       5     C     3.16666  3.16666  0.00000 -0.33333
       6     H     0.39966  0.39966  0.00000  0.20069
       7     H     0.40663  0.40663  0.00000  0.18674
       8     C     3.15535  3.15535  0.00000 -0.31069
       9     H     0.41277  0.41277  0.00000  0.17445
      10     H     0.41953  0.41953  0.00000  0.16094
      11     C     3.15259  3.15259  0.00000 -0.30517
      12     H     0.41782  0.41782  0.00000  0.16435
      13     H     0.41822  0.41822  0.00000  0.16356
      14     C     3.15136  3.15136  0.00000 -0.30271
      15     H     0.42242  0.42242  0.00000  0.15516
      16     H     0.42338  0.42338  0.00000  0.15324
      17     C     3.15146  3.15146  0.00000 -0.30293
      18     H     0.42308  0.42308  0.00000  0.15384
      19     H     0.42254  0.42254  0.00000  0.15492
      20     C     3.23956  3.23956  0.00000 -0.47913
      21     H     0.42321  0.42321  0.00000  0.15358
      22     H     0.42348  0.42348  0.00000  0.15305
      23     H     0.42121  0.42121  0.00000  0.15757
      24     H     0.42084  0.42084  0.00000  0.15833
      25     H     0.41895  0.41895  0.00000  0.16210

   Total alpha = 36.00000, Total beta = 36.00000, Total charge =  0.00000
