  ==> Input File <==

--------------------------------------------------------------------------
set {
	reference rhf
	basis 6-31G*
}

set_num_threads( 1 )
memory 2 gb

molecule MOL {
0 1

H	 -3.233384	 -0.438475	 -1.538171
O	 -3.452007	 0.283848	 -0.965577
C	 -3.181085	 -0.079926	 0.364119
C	 -1.765924	 0.277073	 0.805136
H	 -3.327791	 -1.152017	 0.410903
H	 -3.905698	 0.375695	 1.036898
C	 -0.677594	 -0.417312	 -0.014550
H	 -1.637766	 1.358238	 0.744969
H	 -1.659588	 0.017670	 1.857098
C	 0.738335	 -0.034840	 0.421385
H	 -0.814977	 -0.178223	 -1.064632
H	 -0.802730	 -1.495410	 0.071702
C	 1.822265	 -0.738362	 -0.399735
H	 0.853533	 1.043532	 0.342250
H	 0.871597	 -0.279636	 1.474438
C	 3.258060	 -0.455774	 0.057203
H	 1.718003	 -0.459167	 -1.447053
H	 1.651028	 -1.811884	 -0.354513
C	 3.709143	 0.994797	 -0.123830
H	 3.930637	 -1.101717	 -0.501982
H	 3.365259	 -0.739518	 1.102287
H	 3.601178	 1.310569	 -1.158127
H	 4.753787	 1.110486	 0.148516
H	 3.135362	 1.678896	 0.492569

	symmetry c1
}
set optking {
	frozen_dihedral = ("
		20 16 13 17,
		17 13 10 7,
		13 10 7 11,
		11 7 4 3,
		7 4 3 2
	")
}

ee = energy('scf')
oeprop('DIPOLE', 'QUADRUPOLE', 'MULLIKEN_CHARGES')
f=open( 'psi4out.xyz', 'w' )
f.write( "24  " )
f.write( str(ee) + "\n" )
f.write( MOL.save_string_xyz() )
f.close()
--------------------------------------------------------------------------

    Molecular point group: c1

    Geometry (in Angstrom), charge = 0, multiplicity = 1:

       Center              X                  Y                   Z               Mass
    ------------   -----------------  -----------------  -----------------  -----------------
           H         -3.235009845896    -0.424016531565    -1.533884237050     1.007825032070
           O         -3.453632845896     0.298306468435    -0.961290237050    15.994914619560
           C         -3.182710845896    -0.065467531565     0.368405762950    12.000000000000
           C         -1.767549845896     0.291531468435     0.809422762950    12.000000000000
           H         -3.329416845896    -1.137558531565     0.415189762950     1.007825032070
           H         -3.907323845896     0.390153468435     1.041184762950     1.007825032070
           C         -0.679219845896    -0.402853531565    -0.010263237050    12.000000000000
           H         -1.639391845896     1.372696468435     0.749255762950     1.007825032070
           H         -1.661213845896     0.032128468435     1.861384762950     1.007825032070
           C          0.736709154104    -0.020381531565     0.425671762950    12.000000000000
           H         -0.816602845896    -0.163764531565    -1.060345237050     1.007825032070
           H         -0.804355845896    -1.480951531565     0.075988762950     1.007825032070
           C          1.820639154104    -0.723903531565    -0.395448237050    12.000000000000
           H          0.851907154104     1.057990468435     0.346536762950     1.007825032070
           H          0.869971154104    -0.265177531565     1.478724762950     1.007825032070
           C          3.256434154104    -0.441315531565     0.061489762950    12.000000000000
           H          1.716377154104    -0.444708531565    -1.442766237050     1.007825032070
           H          1.649402154104    -1.797425531565    -0.350226237050     1.007825032070
           C          3.707517154104     1.009255468435    -0.119543237050    12.000000000000
           H          3.929011154104    -1.087258531565    -0.497695237050     1.007825032070
           H          3.363633154104    -0.725059531565     1.106573762950     1.007825032070
           H          3.599552154104     1.325027468435    -1.153840237050     1.007825032070
           H          4.752161154104     1.124944468435     0.152802762950     1.007825032070
           H          3.133736154104     1.693354468435     0.496855762950     1.007825032070

  Charge       = 0
  Multiplicity = 1
  Basis Set: 6-31G*
  Basis Set:

    Orbital Energies (a.u.)
    -----------------------

    Doubly Occupied:

       1A    -20.551698     2A    -11.268271     3A    -11.216219
       4A    -11.215483     5A    -11.214564     6A    -11.213852
       7A    -11.213738     8A    -11.207931     9A     -1.359379
      10A     -1.090374    11A     -1.048925    12A     -0.986339
      13A     -0.916913    14A     -0.850272    15A     -0.794863
      16A     -0.778442    17A     -0.698431    18A     -0.648117
      19A     -0.628720    20A     -0.610069    21A     -0.600386
      22A     -0.584374    23A     -0.561787    24A     -0.537937
      25A     -0.518011    26A     -0.511439    27A     -0.494614
      28A     -0.476244    29A     -0.471481    30A     -0.460172
      31A     -0.456659    32A     -0.448396    33A     -0.419687

  @DF-RHF Final Energy:  -349.24509196992898

   => Energetics <=

    Nuclear Repulsion Energy =            384.6640166584493841
    One-Electron Energy =               -1235.7107094217540180
    Two-Electron Energy =                 501.8016007933751439
    DFT Exchange-Correlation Energy =       0.0000000000000000
    Empirical Dispersion Energy =           0.0000000000000000
    PCM Polarization Energy =               0.0000000000000000
    EFP Energy =                            0.0000000000000000
    Total Energy =                       -349.2450919699295468

  Mulliken Charges: (a.u.)
   Center  Symbol    Alpha    Beta     Spin     Total
       1     H     0.27894  0.27894  0.00000  0.44212
       2     O     4.37105  4.37105  0.00000 -0.74210
       3     C     2.99920  2.99920  0.00000  0.00160
       4     C     3.15792  3.15792  0.00000 -0.31585
       5     H     0.43340  0.43340  0.00000  0.13321
       6     H     0.41576  0.41576  0.00000  0.16849
       7     C     3.15970  3.15970  0.00000 -0.31941
       8     H     0.41620  0.41620  0.00000  0.16759
       9     H     0.42508  0.42508  0.00000  0.14984
      10     C     3.15294  3.15294  0.00000 -0.30589
      11     H     0.41964  0.41964  0.00000  0.16073
      12     H     0.42722  0.42722  0.00000  0.14556
      13     C     3.15252  3.15252  0.00000 -0.30504
      14     H     0.41944  0.41944  0.00000  0.16112
      15     H     0.42427  0.42427  0.00000  0.15147
      16     C     3.15240  3.15240  0.00000 -0.30479
      17     H     0.42404  0.42404  0.00000  0.15192
      18     H     0.42327  0.42327  0.00000  0.15347
      19     C     3.24122  3.24122  0.00000 -0.48245
      20     H     0.42117  0.42117  0.00000  0.15767
      21     H     0.42352  0.42352  0.00000  0.15296
      22     H     0.42198  0.42198  0.00000  0.15603
      23     H     0.41933  0.41933  0.00000  0.16135
      24     H     0.41979  0.41979  0.00000  0.16042

   Total alpha = 33.00000, Total beta = 33.00000, Total charge =  0.00000
