  ==> Input File <==

--------------------------------------------------------------------------
set {
	reference rhf
	basis 6-31G*
}

set_num_threads( 4 )
memory 2 gb

molecule MOL {
0 1

O	 0.749854	 1.307668	 -0.000040
C	 0.576249	 0.131685	 -0.000108
C	 -0.766779	 -0.556801	 -0.000461
O	 1.568443	 -0.749345	 -0.000005
C	 -1.945214	 0.412366	 0.000161
H	 -0.796911	 -1.211249	 -0.867467
H	 -0.796854	 -1.212390	 0.865687
C	 -3.287791	 -0.317055	 0.000105
H	 -1.876087	 1.060580	 -0.866812
H	 -1.875822	 1.059691	 0.867761
H	 -3.394745	 -0.949193	 -0.877058
H	 -4.111778	 0.388953	 0.000015
H	 -3.394954	 -0.949187	 0.877259
C	 2.690920	 -0.453251	 -0.810919
H	 2.399641	 -0.373215	 -1.848365
H	 3.376464	 -1.275472	 -0.677324
H	 3.151536	 0.472985	 -0.498782

	symmetry c1
}
set optking {
	frozen_dihedral = ("
		14 4 2 1
	")
}

ee = optimize('scf')
oeprop('DIPOLE', 'QUADRUPOLE', 'MULLIKEN_CHARGES')
f=open( 'psi4out.xyz', 'w' )
f.write( "17  " )
f.write( str(ee) + "\n" )
f.write( MOL.save_string_xyz() )
f.close()
--------------------------------------------------------------------------

    Molecular point group: c1
  Charge       = 0
  Multiplicity = 1
  Basis Set: 6-31G*
  Basis Set:
  @DF-RHF Final Energy:  -344.89833004427084
    Total Energy =                       -344.8983300442710060
    Molecular point group: c1
  Basis Set: 6-31G*
  Basis Set:
  Basis Set: 6-31G*
  Basis Set:
  @DF-RHF Final Energy:  -344.89554940082388
    Total Energy =                       -344.8955494008237110
  Basis Set: 6-31G*
  Basis Set:
  Basis Set: 6-31G*
  Basis Set:
  @DF-RHF Final Energy:  -344.89895385336820
    Total Energy =                       -344.8989538533680843
  Basis Set: 6-31G*
  Basis Set:
  Basis Set: 6-31G*
  Basis Set:
  @DF-RHF Final Energy:  -344.89901463576490
    Total Energy =                       -344.8990146357647859
  Basis Set: 6-31G*
  Basis Set:
  @DF-RHF Final Energy:  -344.89902364133224
    Total Energy =                       -344.8990236413321782
  Basis Set: 6-31G*
  Basis Set:
  @DF-RHF Final Energy:  -344.89817711433000
    Total Energy =                       -344.8981771143299397
  Basis Set: 6-31G*
  Basis Set:
  Basis Set: 6-31G*
  Basis Set:
  @DF-RHF Final Energy:  -344.89900193532901
    Total Energy =                       -344.8990019353290677
  Basis Set: 6-31G*
  Basis Set:
  Basis Set: 6-31G*
  Basis Set:
  @DF-RHF Final Energy:  -344.89902540036746
    Total Energy =                       -344.8990254003675204
  Basis Set: 6-31G*
  Basis Set:
  Charge       = 0
  Multiplicity = 1
  Basis Set: 6-31G*
  Basis Set:

    Orbital Energies (a.u.)
    -----------------------

    Doubly Occupied:

       1A    -20.596455     2A    -20.550045     3A    -11.373905
       4A    -11.284513     5A    -11.236638     6A    -11.222324
       7A    -11.214975     8A     -1.464657     9A     -1.364675
      10A     -1.080445    11A     -0.998861    12A     -0.942367
      13A     -0.829088    14A     -0.766102    15A     -0.699630
      16A     -0.679705    17A     -0.672653    18A     -0.635958
      19A     -0.602734    20A     -0.576539    21A     -0.567005
      22A     -0.530748    23A     -0.521875    24A     -0.497759
      25A     -0.487952    26A     -0.479096    27A     -0.454499
      28A     -0.436086

  @DF-RHF Final Energy:  -344.89902570351052

   => Energetics <=

    Nuclear Repulsion Energy =            312.0053736889501010
    One-Electron Energy =               -1088.2742181700652964
    Two-Electron Energy =                 431.3698187776046780
    DFT Exchange-Correlation Energy =       0.0000000000000000
    Empirical Dispersion Energy =           0.0000000000000000
    PCM Polarization Energy =               0.0000000000000000
    EFP Energy =                            0.0000000000000000
    Total Energy =                       -344.8990257035104605
    Molecular point group: c1
  Basis Set: 6-31G*
  Basis Set:

  -Total Gradient:
     Atom            X                  Y                   Z
    ------   -----------------  -----------------  -----------------
       1       -0.000682611733     0.000198699815     0.009866728398
       2       -0.000356527057    -0.002235783917    -0.017618733007
       3        0.000084116955    -0.000014719555     0.000022953310
       4        0.003868495216     0.006019455584     0.013690197140
       5        0.000017579171     0.000000076006    -0.000030482718
       6        0.000005907622    -0.000004816794     0.000018666257
       7       -0.000012359182    -0.000010387037     0.000025361240
       8       -0.000001439641    -0.000002512434     0.000018816342
       9        0.000002074053    -0.000002256623     0.000003346776
      10       -0.000005676851     0.000003143153     0.000000754268
      11        0.000002534328     0.000007549547    -0.000001101686
      12       -0.000001154966    -0.000000150810     0.000004578288
      13       -0.000001368816    -0.000005694742    -0.000003588457
      14       -0.002944818933    -0.003963026623    -0.006024009611
      15        0.000024324381     0.000011374163     0.000011723269
      16        0.000011654285    -0.000010457989     0.000007793263
      17       -0.000010728837     0.000009508253     0.000006996928

  **** Optimization is complete! (in 9 steps) ****
    Final optimized geometry and variables:
    Molecular point group: c1

    Geometry (in Angstrom), charge = 0, multiplicity = 1:

    O            0.762262669044     1.345679966173     0.010465468584
    C            0.595005863399     0.171743083684     0.041908992996
    C           -0.745768179231    -0.517253158810     0.085621803651
    O            1.599054097871    -0.705580539802     0.143248773027
    C           -1.926973384486     0.444635691634     0.165945510057
    H           -0.812466676500    -1.147607347321    -0.798437333789
    H           -0.731677769336    -1.199807513583     0.930833060504
    C           -3.265761865399    -0.290850594264     0.201700965384
    H           -1.897636367991     1.119682855831    -0.682488776003
    H           -1.822487076685     1.065232036345     1.049720925441
    H           -3.409394232738    -0.894791933733    -0.690029622832
    H           -4.091396601943     0.410685087576     0.260972326179
    H           -3.331608320825    -0.951548642051     1.061629091855
    C            2.773909123065    -0.431640692218    -0.598063926924
    H            2.546415408162    -0.386099151009    -1.655843624203
    H            3.448096379805    -1.251821331538    -0.406471896482
    H            3.221993976020     0.499541773951    -0.284386939727

  Mulliken Charges: (a.u.)
   Center  Symbol    Alpha    Beta     Spin     Total
       1     O     4.27475  4.27475  0.00000 -0.54949
       2     C     2.60580  2.60580  0.00000  0.78841
       3     C     3.20860  3.20860  0.00000 -0.41720
       4     O     4.31151  4.31151  0.00000 -0.62301
       5     C     3.15234  3.15234  0.00000 -0.30469
       6     H     0.40421  0.40421  0.00000  0.19158
       7     H     0.39887  0.39887  0.00000  0.20226
       8     C     3.24267  3.24267  0.00000 -0.48533
       9     H     0.41071  0.41071  0.00000  0.17859
      10     H     0.41099  0.41099  0.00000  0.17802
      11     H     0.42171  0.42171  0.00000  0.15657
      12     H     0.41504  0.41504  0.00000  0.16992
      13     H     0.42099  0.42099  0.00000  0.15802
      14     C     3.09452  3.09452  0.00000 -0.18904
      15     H     0.41755  0.41755  0.00000  0.16491
      16     H     0.40657  0.40657  0.00000  0.18685
      17     H     0.40318  0.40318  0.00000  0.19364

   Total alpha = 28.00000, Total beta = 28.00000, Total charge =  0.00000
