                              Psi4 1.0.54 Driver

  ==> Input File <==

--------------------------------------------------------------------------
set {
	reference rhf
	basis cc-pvtz
}

set_num_threads( 4 )
memory 2 gb

molecule MOL {
0 1

O	 0.039438	 -0.213865	 -0.338656
C	 1.121787	 0.124983	 0.000110
C	 1.497036	 1.503055	 0.481327
O	 2.167739	 -0.685178	 -0.000678
C	 0.332834	 2.482867	 0.504296
H	 1.935184	 1.390069	 1.467603
H	 2.297900	 1.859161	 -0.158412
C	 0.747233	 3.866460	 0.996490
H	 -0.454586	 2.088673	 1.136847
H	 -0.091137	 2.558753	 -0.490709
C	 -0.412550	 4.855876	 1.025652
H	 1.174311	 3.783520	 1.992464
H	 1.536482	 4.256170	 0.358958
H	 -1.203927	 4.510752	 1.682307
H	 -0.089534	 5.828331	 1.378737
H	 -0.839053	 4.986944	 0.036967
C	 3.449556	 -0.089977	 -0.000570
H	 3.585694	 0.522473	 -0.879546
H	 4.155805	 -0.904274	 -0.001389
H	 3.586173	 0.521118	 0.879272

	symmetry c1
}
set optking {
	frozen_dihedral = ("
		1 2 4 17
	")
}

ee,wfn = optimize('scf', return_wfn=True)
oeprop( wfn, 'DIPOLE', 'QUADRUPOLE', 'MULLIKEN_CHARGES')
f=open( 'psi4out.xyz', 'w' )
f.write( "20  " )
f.write( str(ee) + "\n" )
f.write( MOL.save_string_xyz() )
f.close()
--------------------------------------------------------------------------

    Molecular point group: c1
  Charge       = 0
  Multiplicity = 1
  Basis Set: CC-PVTZ
  Basis Set:
  @DF-RHF Final Energy:  -384.05863348673205
    Total Energy =                       -384.0586334867323330
    Molecular point group: c1
  Basis Set: CC-PVTZ
  Basis Set:
  Basis Set: CC-PVTZ
  Basis Set:
  @DF-RHF Final Energy:  -383.92697212010518
    Total Energy =                       -383.9269721201050061
  Basis Set: CC-PVTZ
  Basis Set:
  Basis Set: CC-PVTZ
  Basis Set:
  @DF-RHF Final Energy:  -384.03077996263005
    Total Energy =                       -384.0307799626302767
  Basis Set: CC-PVTZ
  Basis Set:
  Basis Set: CC-PVTZ
  Basis Set:
  @DF-RHF Final Energy:  -384.06518403412599
    Total Energy =                       -384.0651840341262186
  Basis Set: CC-PVTZ
  Basis Set:
  @DF-RHF Final Energy:  -384.06736574415584
    Total Energy =                       -384.0673657441559499
  @DF-RHF Final Energy:  -383.99394525468699
    Total Energy =                       -383.9939452546869347
  @DF-RHF Final Energy:  -384.06211256551381
    Total Energy =                       -384.0621125655145534
  @DF-RHF Final Energy:  -384.06788663737643
    Total Energy =                       -384.0678866373765459
  @DF-RHF Final Energy:  -384.06466853180450
    Total Energy =                       -384.0646685318049549
  Basis Set: CC-PVTZ
  Basis Set:
  @DF-RHF Final Energy:  -384.06831310586085
    Total Energy =                       -384.0683131058603976
  Basis Set: CC-PVTZ
  Basis Set:
  Basis Set: CC-PVTZ
  Basis Set:
  @DF-RHF Final Energy:  -384.06835778085974
    Total Energy =                       -384.0683577808600830
  Basis Set: CC-PVTZ
  Basis Set:
  Basis Set: CC-PVTZ
  Basis Set:
  @DF-RHF Final Energy:  -384.06836058615499
    Total Energy =                       -384.0683605861546539
  Basis Set: CC-PVTZ
  Basis Set:
  Charge       = 0
  Multiplicity = 1
  Basis Set: CC-PVTZ
  Basis Set:

    Orbital Energies (a.u.)
    -----------------------

    Doubly Occupied:

       1A    -20.593227     2A    -20.529538     3A    -11.366302
       4A    -11.293124     5A    -11.243288     6A    -11.222454
       7A    -11.221327     8A    -11.211544     9A     -1.465340
      10A     -1.367895    11A     -1.092924    12A     -1.017977
      13A     -0.984654    14A     -0.902514    15A     -0.811157
      16A     -0.767971    17A     -0.701869    18A     -0.690951
      19A     -0.675980    20A     -0.650680    21A     -0.605195
      22A     -0.594555    23A     -0.589936    24A     -0.554125
      25A     -0.541914    26A     -0.523764    27A     -0.509681
      28A     -0.483001    29A     -0.477060    30A     -0.474652
      31A     -0.451567    32A     -0.433878

  @DF-RHF Final Energy:  -384.06836095743495

   => Energetics <=

    Nuclear Repulsion Energy =            383.8437751043538810
    One-Electron Energy =               -1283.7241771381834496
    Two-Electron Energy =                 515.8120410763941663
    DFT Exchange-Correlation Energy =       0.0000000000000000
    Empirical Dispersion Energy =           0.0000000000000000
    PCM Polarization Energy =               0.0000000000000000
    EFP Energy =                            0.0000000000000000
    Total Energy =                       -384.0683609574354023
    Molecular point group: c1
  Basis Set: CC-PVTZ
  Basis Set:

  -Total Gradient:
     Atom            X                  Y                   Z
    ------   -----------------  -----------------  -----------------
       1        0.000822005479     0.001467275237    -0.001441807894
       2       -0.001011514672    -0.001525511990     0.001113182069
       3       -0.000016870871    -0.000013428466     0.000012620607
       4       -0.000082780573    -0.000922496957     0.001991407263
       5        0.000009464236     0.000008957165    -0.000009187741
       6        0.000002124617    -0.000003298827     0.000003747210
       7       -0.000014746383     0.000008272688     0.000002674486
       8       -0.000009680680    -0.000008167262     0.000005254981
       9        0.000004493383    -0.000011227866     0.000000754564
      10       -0.000001816921     0.000004643399    -0.000009922914
      11        0.000008997082     0.000006995681    -0.000000526969
      12        0.000003689119    -0.000005048200     0.000008702347
      13       -0.000001885575     0.000008268832    -0.000001679494
      14        0.000003184898    -0.000007918342    -0.000001361206
      15        0.000001105436     0.000000120792     0.000001795759
      16       -0.000001445636     0.000003890077    -0.000005933270
      17        0.000273826552     0.001004302042    -0.001675994367
      18        0.000024428952    -0.000016161818     0.000001798514
      19       -0.000007468641     0.000001885116    -0.000000025900
      20       -0.000005109804    -0.000001351302     0.000004501953

  **** Optimization is complete! (in 13 steps) ****
    Final optimized geometry and variables:
    Molecular point group: c1

    Geometry (in Angstrom), charge = 0, multiplicity = 1:

    O           -1.002673179537    -0.912112655061    -1.494352009244
    C            0.032140216764    -0.927223115548    -0.930630681827
    C            0.366093973163    -0.009393835477     0.225154448623
    O            0.959282398415    -1.810256858943    -1.303446470121
    C           -0.790953488233     0.898137242121     0.620527778900
    H            0.671938634486    -0.626175013068     1.064746772516
    H            1.234485784781     0.583842289524    -0.042807572212
    C           -0.437285255497     1.813297446836     1.789286667916
    H           -1.650183747752     0.289144283095     0.875524801311
    H           -1.087247664619     1.491099459914    -0.236525004976
    C           -1.590238845008     2.725281539237     2.194273047772
    H           -0.137850146047     1.212015644863     2.643927901571
    H            0.425557932284     2.420391464602     1.527174639205
    H           -2.457353115414     2.147626822352     2.495504905370
    H           -1.312020096208     3.363392446799     3.024906383334
    H           -1.890285499854     3.364253793055     1.370835696446
    C            2.322841935451    -1.655670749248    -1.001395947752
    H            2.715481283284    -0.734720911673    -1.413010675677
    H            2.825424098912    -2.487482853651    -1.467390475909
    H            2.510438258254    -1.685530848661     0.063558409676

  Mulliken Charges: (a.u.)
   Center  Symbol    Alpha    Beta     Spin     Total
       1     O     4.17903  4.17903  0.00000 -0.35807
       2     C     2.80333  2.80333  0.00000  0.39335
       3     C     3.13622  3.13622  0.00000 -0.27245
       4     O     4.13116  4.13116  0.00000 -0.26233
       5     C     3.08106  3.08106  0.00000 -0.16213
       6     H     0.43884  0.43884  0.00000  0.12232
       7     H     0.44180  0.44180  0.00000  0.11639
       8     C     3.08529  3.08529  0.00000 -0.17057
       9     H     0.44389  0.44389  0.00000  0.11223
      10     H     0.44387  0.44387  0.00000  0.11226
      11     C     3.14988  3.14988  0.00000 -0.29976
      12     H     0.45580  0.45580  0.00000  0.08840
      13     H     0.45612  0.45612  0.00000  0.08776
      14     H     0.45302  0.45302  0.00000  0.09396
      15     H     0.44820  0.44820  0.00000  0.10361
      16     H     0.45317  0.45317  0.00000  0.09366
      17     C     3.04637  3.04637  0.00000 -0.09274
      18     H     0.45894  0.45894  0.00000  0.08212
      19     H     0.43308  0.43308  0.00000  0.13384
      20     H     0.46092  0.46092  0.00000  0.07815

   Total alpha = 32.00000, Total beta = 32.00000, Total charge = -0.00000

*** Psi4 exiting successfully. Buy a developer a beer!
