                              Psi4 1.0.54 Driver

  ==> Input File <==

--------------------------------------------------------------------------
set {
	reference rhf
	basis cc-pvtz
}

set_num_threads( 4 )
memory 2 gb

molecule MOL {
0 1

H	 3.459101	 0.139266	 -0.762951
C	 2.749156	 -0.051729	 0.031265
C	 1.322304	 0.099773	 -0.484271
H	 2.929445	 -1.053887	 0.403481
H	 2.954281	 0.646699	 0.834672
C	 0.308557	 -0.162619	 0.622645
H	 1.143368	 -0.594400	 -1.295960
H	 1.169532	 1.100095	 -0.870217
N	 -1.069352	 -0.004081	 0.085342
H	 0.371632	 -1.172932	 0.991288
H	 0.400391	 0.548875	 1.426218
O	 -1.623915	 1.019396	 0.307894
O	 -1.531046	 -0.922847	 -0.504278

	symmetry c1
}
set optking {
	frozen_dihedral = ("
		12 9 6 3
	")
}

ee,wfn = optimize('scf', return_wfn=True)
oeprop( wfn, 'DIPOLE', 'QUADRUPOLE', 'MULLIKEN_CHARGES')
f=open( 'psi4out.xyz', 'w' )
f.write( "13  " )
f.write( str(ee) + "\n" )
f.write( MOL.save_string_xyz() )
f.close()
--------------------------------------------------------------------------

    Molecular point group: c1
  Charge       = 0
  Multiplicity = 1
  Basis Set: CC-PVTZ
  Basis Set:
  @DF-RHF Final Energy:  -321.86130725326740
    Total Energy =                       -321.8613072532676256
    Molecular point group: c1
  Basis Set: CC-PVTZ
  Basis Set:
  Basis Set: CC-PVTZ
  Basis Set:
  @DF-RHF Final Energy:  -321.85547012933517
    Total Energy =                       -321.8554701293353446
  Basis Set: CC-PVTZ
  Basis Set:
  Basis Set: CC-PVTZ
  Basis Set:
  @DF-RHF Final Energy:  -321.86105355753978
    Total Energy =                       -321.8610535575396625
  Basis Set: CC-PVTZ
  Basis Set:
  Basis Set: CC-PVTZ
  Basis Set:
  @DF-RHF Final Energy:  -321.86144094761818
    Total Energy =                       -321.8614409476183482
  Basis Set: CC-PVTZ
  Basis Set:
  Basis Set: CC-PVTZ
  Basis Set:
  @DF-RHF Final Energy:  -321.86149361011888
    Total Energy =                       -321.8614936101188277
  Basis Set: CC-PVTZ
  Basis Set:
  Basis Set: CC-PVTZ
  Basis Set:
  @DF-RHF Final Energy:  -321.86150200725433
    Total Energy =                       -321.8615020072543871
  Basis Set: CC-PVTZ
  Basis Set:
  Charge       = 0
  Multiplicity = 1
  Basis Set: CC-PVTZ
  Basis Set:

    Orbital Energies (a.u.)
    -----------------------

    Doubly Occupied:

       1A    -20.591417     2A    -20.589451     3A    -15.836988
       4A    -11.297306     5A    -11.253991     6A    -11.237164
       7A     -1.636022     8A     -1.420358     9A     -1.134217
      10A     -1.027883    11A     -0.884088    12A     -0.834233
      13A     -0.761697    14A     -0.738907    15A     -0.727713
      16A     -0.673085    17A     -0.604215    18A     -0.588180
      19A     -0.551459    20A     -0.520814    21A     -0.514482
      22A     -0.487041    23A     -0.475088    24A     -0.453020

  @DF-RHF Final Energy:  -321.86150244236046

   => Energetics <=

    Nuclear Repulsion Energy =            247.9912445115073751
    One-Electron Energy =                -930.0278574974933008
    Two-Electron Energy =                 360.1751105436254647
    DFT Exchange-Correlation Energy =       0.0000000000000000
    Empirical Dispersion Energy =           0.0000000000000000
    PCM Polarization Energy =               0.0000000000000000
    EFP Energy =                            0.0000000000000000
    Total Energy =                       -321.8615024423604609
    Molecular point group: c1
  Basis Set: CC-PVTZ
  Basis Set:

  -Total Gradient:
     Atom            X                  Y                   Z
    ------   -----------------  -----------------  -----------------
       1       -0.000004691697    -0.000000650365    -0.000000200628
       2       -0.000004691910     0.000003049010     0.000002784792
       3        0.000006861379    -0.000131034281    -0.000045949995
       4       -0.000001542497    -0.000000391075     0.000000245579
       5        0.000004624297     0.000001454495     0.000001532329
       6       -0.000028080282     0.000130620116     0.000095293172
       7       -0.000003915175     0.000002489450     0.000001431956
       8        0.000005221734     0.000001162126    -0.000003362439
       9        0.000055676444     0.000071197467    -0.000227038961
      10       -0.000001538907    -0.000001421484     0.000011284762
      11       -0.000015282224     0.000005843628    -0.000009813299
      12       -0.000044378194    -0.000051723589     0.000184347500
      13        0.000031737027    -0.000030595499    -0.000010554772

  **** Optimization is complete! (in 7 steps) ****
    Final optimized geometry and variables:
    Molecular point group: c1

    Geometry (in Angstrom), charge = 0, multiplicity = 1:

    H            3.462548502384     0.137800310316    -0.760189877856
    C            2.750903186945    -0.044614461334     0.034513988244
    C            1.325091581026     0.095275601484    -0.487322779437
    H            2.932825727526    -1.041438299753     0.420204066089
    H            2.952255971971     0.664580975041     0.829388991024
    C            0.309581349878    -0.158224334516     0.619618768473
    H            1.150016706512    -0.606991942960    -1.291807899348
    H            1.171130886494     1.091727734098    -0.884573169914
    N           -1.069807196953    -0.004370521992     0.083866425360
    H            0.372206099147    -1.168470491141     0.990972018431
    H            0.400154743635     0.553103689544     1.422705316802
    O           -1.628373341510     1.018551127956     0.297258916604
    O           -1.509174823301    -0.910733114431    -0.541617418843

  Mulliken Charges: (a.u.)
   Center  Symbol    Alpha    Beta     Spin     Total
       1     H     0.44166  0.44166  0.00000  0.11668
       2     C     3.15110  3.15110  0.00000 -0.30220
       3     C     3.09609  3.09609  0.00000 -0.19217
       4     H     0.45166  0.45166  0.00000  0.09668
       5     H     0.45162  0.45162  0.00000  0.09676
       6     C     3.03942  3.03942  0.00000 -0.07884
       7     H     0.43609  0.43609  0.00000  0.12783
       8     H     0.43998  0.43998  0.00000  0.12004
       9     N     3.27614  3.27614  0.00000  0.44772
      10     H     0.43541  0.43541  0.00000  0.12918
      11     H     0.43393  0.43393  0.00000  0.13214
      12     O     4.17183  4.17183  0.00000 -0.34366
      13     O     4.17508  4.17508  0.00000 -0.35015

   Total alpha = 24.00000, Total beta = 24.00000, Total charge = -0.00000

*** Psi4 exiting successfully. Buy a developer a beer!
