  ==> Input File <==

--------------------------------------------------------------------------
set {
	reference rhf
	basis cc-pvtz
}

set_num_threads( 4 )
memory 2 gb

molecule MOL {
0 1

H	 2.766695	 -0.243521	 0.650996
O	 1.927219	 -0.677235	 0.681146
C	 1.050374	 0.054877	 0.000135
C	 -0.318151	 -0.570512	 0.000144
O	 1.352184	 1.069315	 -0.526927
C	 -1.454884	 0.441630	 -0.000560
H	 -0.371613	 -1.223646	 -0.864985
H	 -0.371920	 -1.222758	 0.865929
C	 -2.822577	 -0.232186	 0.000063
H	 -1.359760	 1.084704	 -0.867077
H	 -1.359641	 1.085996	 0.864983
H	 -2.954352	 -0.858985	 -0.875745
H	 -3.615886	 0.505352	 0.000019
H	 -2.953878	 -0.858359	 0.876394

	symmetry c1
}
set optking {
	frozen_dihedral = ("
		2 3 4 7
	")
}

ee = optimize('scf')
oeprop('DIPOLE', 'QUADRUPOLE', 'MULLIKEN_CHARGES')
f=open( 'psi4out.xyz', 'w' )
f.write( "14  " )
f.write( str(ee) + "\n" )
f.write( MOL.save_string_xyz() )
f.close()
--------------------------------------------------------------------------

    Molecular point group: c1
  Charge       = 0
  Multiplicity = 1
  Basis Set: CC-PVTZ
  Basis Set:
  @DF-RHF Final Energy:  -305.99987420142412
    Total Energy =                       -305.9998742014240634
    Molecular point group: c1
  Basis Set: CC-PVTZ
  Basis Set:
  Basis Set: CC-PVTZ
  Basis Set:
  @DF-RHF Final Energy:  -306.00008714016849
    Total Energy =                       -306.0000871401686027
  Basis Set: CC-PVTZ
  Basis Set:
  Basis Set: CC-PVTZ
  Basis Set:
  @DF-RHF Final Energy:  -306.00015617828348
    Total Energy =                       -306.0001561782833051
  Basis Set: CC-PVTZ
  Basis Set:
  Basis Set: CC-PVTZ
  Basis Set:
  @DF-RHF Final Energy:  -306.00020998496655
    Total Energy =                       -306.0002099849667729
  Basis Set: CC-PVTZ
  Basis Set:
  Basis Set: CC-PVTZ
  Basis Set:
  @DF-RHF Final Energy:  -306.00022158868387
    Total Energy =                       -306.0002215886835870
  Basis Set: CC-PVTZ
  Basis Set:
  Charge       = 0
  Multiplicity = 1
  Basis Set: CC-PVTZ
  Basis Set:

    Orbital Energies (a.u.)
    -----------------------

    Doubly Occupied:

       1A    -20.605807     2A    -20.539629     3A    -11.374115
       4A    -11.239426     5A    -11.225874     6A    -11.216037
       7A     -1.478505     8A     -1.369225     9A     -1.084658
      10A     -0.980540    11A     -0.858683    12A     -0.796570
      13A     -0.705559    14A     -0.691617    15A     -0.663774
      16A     -0.622362    17A     -0.596614    18A     -0.573935
      19A     -0.548341    20A     -0.509052    21A     -0.492954
      22A     -0.485536    23A     -0.480298    24A     -0.446169

  @DF-RHF Final Energy:  -306.00022216729474

   => Energetics <=

    Nuclear Repulsion Energy =            240.4232679832481097
    One-Electron Energy =                -893.6764180400134592
    Two-Electron Energy =                 347.2529278894711524
    DFT Exchange-Correlation Energy =       0.0000000000000000
    Empirical Dispersion Energy =           0.0000000000000000
    PCM Polarization Energy =               0.0000000000000000
    EFP Energy =                            0.0000000000000000
    Total Energy =                       -306.0002221672941687
    Molecular point group: c1
  Basis Set: CC-PVTZ
  Basis Set:

  -Total Gradient:
     Atom            X                  Y                   Z
    ------   -----------------  -----------------  -----------------
       1       -0.000006239027    -0.000006013121    -0.000018960916
       2       -0.000189413837     0.000447020677     0.000844634586
       3        0.000152104741    -0.000373090394    -0.001231039862
       4        0.000396427453    -0.000855905423     0.000989935001
       5        0.000004482742    -0.000025663337     0.000019832973
       6        0.000021722809     0.000003400783    -0.000008935217
       7       -0.000425828869     0.000855304758    -0.000580067402
       8        0.000008622863    -0.000021833327     0.000006992045
       9        0.000014108714    -0.000027729015    -0.000005550626
      10       -0.000004285060     0.000023502377    -0.000015200529
      11        0.000022163775    -0.000019577018    -0.000004668702
      12       -0.000006755725    -0.000004064838    -0.000000473504
      13        0.000014209400     0.000005699224     0.000002235673
      14       -0.000001319972    -0.000001051347     0.000001266481

  **** Optimization is complete! (in 6 steps) ****
    Final optimized geometry and variables:
    Molecular point group: c1

    Geometry (in Angstrom), charge = 0, multiplicity = 1:

    H            2.799673326746    -0.249477613641     0.534903397015
    O            1.962046192426    -0.680201497628     0.619626619292
    C            1.051942059623     0.043745105341    -0.023422395632
    C           -0.313582228281    -0.590881693878     0.006348496167
    O            1.324093907595     1.060641605465    -0.562797055430
    C           -1.447466592724     0.428987029930    -0.025584266552
    H           -0.367725495441    -1.228629876697    -0.872078516710
    H           -0.382118869701    -1.237955741079     0.870472454664
    C           -2.817836933588    -0.237898825955    -0.057441191344
    H           -1.323359320419     1.068706098281    -0.889255479329
    H           -1.374251601597     1.072019090951     0.845209410957
    H           -2.931059129846    -0.860521367848    -0.938733887689
    H           -3.607121020944     0.503811889899    -0.073773599306
    H           -2.972751616194    -0.866405951740     0.813195701154

  Mulliken Charges: (a.u.)
   Center  Symbol    Alpha    Beta     Spin     Total
       1     H     0.38111  0.38111  0.00000  0.23778
       2     O     4.15845  4.15845  0.00000 -0.31690
       3     C     2.80905  2.80905  0.00000  0.38191
       4     C     3.09730  3.09730  0.00000 -0.19460
       5     O     4.19427  4.19427  0.00000 -0.38853
       6     C     3.08325  3.08325  0.00000 -0.16651
       7     H     0.44358  0.44358  0.00000  0.11283
       8     H     0.43678  0.43678  0.00000  0.12643
       9     C     3.14997  3.14997  0.00000 -0.29994
      10     H     0.44040  0.44040  0.00000  0.11920
      11     H     0.45050  0.45050  0.00000  0.09900
      12     H     0.45465  0.45465  0.00000  0.09070
      13     H     0.44529  0.44529  0.00000  0.10941
      14     H     0.45540  0.45540  0.00000  0.08921

   Total alpha = 24.00000, Total beta = 24.00000, Total charge = -0.00000
