  ==> Input File <==

--------------------------------------------------------------------------
set {
	reference rhf
	basis 6-31G*
}

set_num_threads( 4 )
memory 2 gb

molecule MOL {
0 1

H	 -1.732305	 0.185262	 -3.362181
C	 -2.356927	 -0.168986	 -2.532737
C	 -1.787429	 -1.328960	 -1.756372
O	 -3.398275	 0.355082	 -2.303176
C	 -0.352901	 -1.068319	 -1.276320
H	 -2.451884	 -1.545254	 -0.927865
H	 -1.791288	 -2.191672	 -2.421481
C	 -0.252658	 0.041456	 -0.226725
H	 0.045005	 -1.991117	 -0.864737
H	 0.275176	 -0.822835	 -2.131314
C	 1.180775	 0.282413	 0.250794
H	 -0.880533	 -0.215459	 0.623930
H	 -0.656788	 0.968178	 -0.629718
C	 2.148627	 -0.814315	 -0.201312
H	 1.516199	 1.249228	 -0.115937
H	 1.192670	 0.346017	 1.338083
C	 3.580890	 -0.659131	 0.322722
H	 2.166869	 -0.852443	 -1.289387
H	 1.762857	 -1.776509	 0.128956
C	 4.324889	 0.564933	 -0.213704
H	 4.142010	 -1.551473	 0.056605
H	 3.564836	 -0.624694	 1.410140
H	 4.342616	 0.565491	 -1.300421
H	 3.866655	 1.493402	 0.110242
H	 5.353900	 0.572371	 0.132816

	symmetry c1
}
set optking {
	frozen_dihedral = ("
		12 8 11 14
	")
}

ee = optimize('scf')
oeprop('DIPOLE', 'QUADRUPOLE', 'MULLIKEN_CHARGES')
f=open( 'psi4out.xyz', 'w' )
f.write( "25  " )
f.write( str(ee) + "\n" )
f.write( MOL.save_string_xyz() )
f.close()
--------------------------------------------------------------------------

    Molecular point group: c1
  Charge       = 0
  Multiplicity = 1
  Basis Set: 6-31G*
  Basis Set:
  @DF-RHF Final Energy:  -387.10757577963921
    Total Energy =                       -387.1075757796394328
    Molecular point group: c1
  Basis Set: 6-31G*
  Basis Set:
  Basis Set: 6-31G*
  Basis Set:
  @DF-RHF Final Energy:  -387.10740520351379
    Total Energy =                       -387.1074052035138493
  Basis Set: 6-31G*
  Basis Set:
  Basis Set: 6-31G*
  Basis Set:
  @DF-RHF Final Energy:  -387.11183757557296
    Total Energy =                       -387.1118375755730767
  Basis Set: 6-31G*
  Basis Set:
  Basis Set: 6-31G*
  Basis Set:
  @DF-RHF Final Energy:  -387.11252242905459
    Total Energy =                       -387.1125224290547067
  Basis Set: 6-31G*
  Basis Set:
  @DF-RHF Final Energy:  -387.10904999416522
    Total Energy =                       -387.1090499941652752
  @DF-RHF Final Energy:  -387.11248298368974
    Total Energy =                       -387.1124829836896879
  @DF-RHF Final Energy:  -387.11266944533025
    Total Energy =                       -387.1126694453306527
  @DF-RHF Final Energy:  -387.11258514705969
    Total Energy =                       -387.1125851470599173
  @DF-RHF Final Energy:  -387.11267190880903
    Total Energy =                       -387.1126719088093751
  Basis Set: 6-31G*
  Basis Set:
  @DF-RHF Final Energy:  -387.11267020358309
    Total Energy =                       -387.1126702035827520
  Basis Set: 6-31G*
  Basis Set:
  Basis Set: 6-31G*
  Basis Set:
  @DF-RHF Final Energy:  -387.11267144662185
    Total Energy =                       -387.1126714466215617
  Basis Set: 6-31G*
  Basis Set:
  Basis Set: 6-31G*
  Basis Set:
  @DF-RHF Final Energy:  -387.11267282886490
    Total Energy =                       -387.1126728288643335
  Basis Set: 6-31G*
  Basis Set:
  Charge       = 0
  Multiplicity = 1
  Basis Set: 6-31G*
  Basis Set:

    Orbital Energies (a.u.)
    -----------------------

    Doubly Occupied:

       1A    -20.561799     2A    -11.326057     3A    -11.235072
       4A    -11.234460     5A    -11.224704     6A    -11.220383
       7A    -11.219576     8A    -11.218948     9A    -11.211570
      10A     -1.401789    11A     -1.102211    12A     -1.069107
      13A     -1.010104    14A     -0.940475    15A     -0.885805
      16A     -0.824767    17A     -0.792963    18A     -0.766241
      19A     -0.662534    20A     -0.660141    21A     -0.631873
      22A     -0.627616    23A     -0.602052    24A     -0.587534
      25A     -0.587027    26A     -0.545883    27A     -0.542274
      28A     -0.524190    29A     -0.513986    30A     -0.503127
      31A     -0.485734    32A     -0.478763    33A     -0.455390
      34A     -0.451583    35A     -0.446112    36A     -0.409042

  @DF-RHF Final Energy:  -387.11267272254503

   => Energetics <=

    Nuclear Repulsion Energy =            443.5494994310899415
    One-Electron Energy =               -1403.4025625145548020
    Two-Electron Energy =                 572.7403903609199460
    DFT Exchange-Correlation Energy =       0.0000000000000000
    Empirical Dispersion Energy =           0.0000000000000000
    PCM Polarization Energy =               0.0000000000000000
    EFP Energy =                            0.0000000000000000
    Total Energy =                       -387.1126727225448576
    Molecular point group: c1
  Basis Set: 6-31G*
  Basis Set:

  -Total Gradient:
     Atom            X                  Y                   Z
    ------   -----------------  -----------------  -----------------
       1       -0.000002015219    -0.000002776269    -0.000002737445
       2        0.000006886458    -0.000001677679     0.000004711030
       3       -0.000025389692    -0.000021772258     0.000005193719
       4        0.000000676026     0.000005202539     0.000001926487
       5        0.000013229345     0.000027779834    -0.000023629544
       6       -0.000004515620    -0.000002808797     0.000000045424
       7        0.000005809441     0.000004630301     0.000001405802
       8        0.001397091479    -0.004598201320    -0.001815662071
       9        0.000014618136     0.000000921666     0.000005461306
      10       -0.000015392242    -0.000005017379    -0.000002702037
      11       -0.001168999414    -0.001302735731     0.004214652086
      12       -0.000899927279     0.004317294174     0.000433742212
      13        0.000008094381    -0.000003225930     0.000002742691
      14        0.000665984317     0.001578299535    -0.002822021069
      15        0.000005080120     0.000003523998     0.000001599696
      16       -0.000001885967     0.000000392075     0.000001469974
      17        0.000000862572    -0.000002516388    -0.000008880732
      18        0.000002908704    -0.000002165578     0.000003367561
      19        0.000006227234     0.000002509245     0.000002071580
      20       -0.000000961685     0.000002776285     0.000000831882
      21       -0.000002687815    -0.000002690872    -0.000001593951
      22       -0.000001341276    -0.000000779601    -0.000001339214
      23        0.000001974292    -0.000000052656    -0.000000341481
      24       -0.000006123900     0.000001361516    -0.000001167674
      25       -0.000000202389     0.000001729286     0.000000853775

  **** Optimization is complete! (in 13 steps) ****
    Final optimized geometry and variables:
    Molecular point group: c1

    Geometry (in Angstrom), charge = 0, multiplicity = 1:

    H           -2.177752559169     0.544958115261    -2.462449887670
    C           -2.784790358016     0.210795534596    -1.611688585451
    C           -2.254710219548    -1.000752514836    -0.887678037718
    O           -3.783529726471     0.788468421621    -1.327698781535
    C           -0.779962229038    -0.854001469081    -0.485512275857
    H           -2.886518410682    -1.188555400816    -0.027193086833
    H           -2.356503204586    -1.846601547148    -1.566578324278
    C           -0.570012582524     0.224785774771     0.582044395689
    H           -0.429867523451    -1.815211335788    -0.126987033090
    H           -0.191121235764    -0.625972709671    -1.371292694771
    C            0.884453919121     0.476730019916     1.064486133279
    H           -1.202519104874     0.006924041224     1.438602719800
    H           -0.959678609222     1.164650960258     0.197669964857
    C            1.927662317269    -0.590544021438     0.710594513739
    H            1.218154948821     1.424541721823     0.654433632036
    H            0.875137708423     0.609166911756     2.142820205537
    C            3.320240929411    -0.307272500385     1.288654215249
    H            2.009058915098    -0.689703344163    -0.368892699013
    H            1.599485580831    -1.557966758356     1.083492721919
    C            4.015642501767     0.926560721084     0.709766324961
    H            3.947892822202    -1.176153695226     1.106577509902
    H            3.247711014058    -0.207623308816     2.369681734299
    H            4.085285423403     0.863304508216    -0.372998899278
    H            3.491527819514     1.844026151776     0.954964809116
    H            5.024964127460     1.015900637781     1.099399090155

  Mulliken Charges: (a.u.)
   Center  Symbol    Alpha    Beta     Spin     Total
       1     H     0.43271  0.43271  0.00000  0.13458
       2     C     2.83100  2.83100  0.00000  0.33801
       3     C     3.20828  3.20828  0.00000 -0.41657
       4     O     4.23793  4.23793  0.00000 -0.47586
       5     C     3.16862  3.16862  0.00000 -0.33724
       6     H     0.39970  0.39970  0.00000  0.20060
       7     H     0.40623  0.40623  0.00000  0.18755
       8     C     3.15973  3.15973  0.00000 -0.31947
       9     H     0.41069  0.41069  0.00000  0.17862
      10     H     0.41899  0.41899  0.00000  0.16202
      11     C     3.15729  3.15729  0.00000 -0.31457
      12     H     0.41608  0.41608  0.00000  0.16783
      13     H     0.41673  0.41673  0.00000  0.16654
      14     C     3.15653  3.15653  0.00000 -0.31306
      15     H     0.41815  0.41815  0.00000  0.16371
      16     H     0.41864  0.41864  0.00000  0.16273
      17     C     3.15240  3.15240  0.00000 -0.30479
      18     H     0.42332  0.42332  0.00000  0.15336
      19     H     0.42204  0.42204  0.00000  0.15593
      20     C     3.24174  3.24174  0.00000 -0.48347
      21     H     0.42045  0.42045  0.00000  0.15911
      22     H     0.42252  0.42252  0.00000  0.15497
      23     H     0.42257  0.42257  0.00000  0.15486
      24     H     0.41935  0.41935  0.00000  0.16130
      25     H     0.41834  0.41834  0.00000  0.16333

   Total alpha = 36.00000, Total beta = 36.00000, Total charge =  0.00000
