  ==> Input File <==

--------------------------------------------------------------------------
set {
	reference rhf
	basis 6-31G*
}

set_num_threads( 4 )
memory 2 gb

molecule MOL {
0 1

H	 -4.143015	 -2.286689	 0.212079
C	 -3.399452	 -1.533277	 0.385702
C	 -2.163751	 -1.729525	 -0.012458
H	 -3.691565	 -0.629406	 0.886299
O	 -1.180634	 -0.819263	 0.215062
H	 -1.852478	 -2.624466	 -0.521755
C	 0.051604	 -1.018856	 -0.387932
C	 1.043764	 0.054862	 -0.001873
H	 -0.017620	 -1.041351	 -1.469781
H	 0.437898	 -1.966374	 -0.042284
F	 2.212596	 -0.199467	 -0.571921
F	 0.652529	 1.252447	 -0.405055
F	 1.230877	 0.110694	 1.300533

	symmetry c1
}
set optking {
	frozen_dihedral = ("
		3 5 7 9
	")
}

ee = optimize('scf')
oeprop('DIPOLE', 'QUADRUPOLE', 'MULLIKEN_CHARGES')
f=open( 'psi4out.xyz', 'w' )
f.write( "13  " )
f.write( str(ee) + "\n" )
f.write( MOL.save_string_xyz() )
f.close()
--------------------------------------------------------------------------

    Molecular point group: c1
  Charge       = 0
  Multiplicity = 1
  Basis Set: 6-31G*
  Basis Set:
  @DF-RHF Final Energy:  -527.53313633572452
    Total Energy =                       -527.5331363357244072
    Molecular point group: c1
  Basis Set: 6-31G*
  Basis Set:
  Basis Set: 6-31G*
  Basis Set:
  @DF-RHF Final Energy:  -527.53447241186791
    Total Energy =                       -527.5344724118675686
  Basis Set: 6-31G*
  Basis Set:
  Basis Set: 6-31G*
  Basis Set:
  @DF-RHF Final Energy:  -527.53475801913578
    Total Energy =                       -527.5347580191361203
  Basis Set: 6-31G*
  Basis Set:
  Basis Set: 6-31G*
  Basis Set:
  @DF-RHF Final Energy:  -527.53477387059331
    Total Energy =                       -527.5347738705931988
  Basis Set: 6-31G*
  Basis Set:
  @DF-RHF Final Energy:  -527.53478962578401
    Total Energy =                       -527.5347896257836737
  @DF-RHF Final Energy:  -527.53484913985221
    Total Energy =                       -527.5348491398524402
  Basis Set: 6-31G*
  Basis Set:
  @DF-RHF Final Energy:  -527.53487437219928
    Total Energy =                       -527.5348743721995106
  Basis Set: 6-31G*
  Basis Set:
  Basis Set: 6-31G*
  Basis Set:
  @DF-RHF Final Energy:  -527.53490164067603
    Total Energy =                       -527.5349016406756846
  Basis Set: 6-31G*
  Basis Set:
  Basis Set: 6-31G*
  Basis Set:
  @DF-RHF Final Energy:  -527.53490406950755
    Total Energy =                       -527.5349040695077747
  Basis Set: 6-31G*
  Basis Set:
  Charge       = 0
  Multiplicity = 1
  Basis Set: 6-31G*
  Basis Set:

    Orbital Energies (a.u.)
    -----------------------

    Doubly Occupied:

       1A    -26.341919     2A    -26.338088     3A    -26.337974
       4A    -20.605960     5A    -11.503416     6A    -11.317315
       7A    -11.301387     8A    -11.222692     9A     -1.739080
      10A     -1.636743    11A     -1.635083    12A     -1.437995
      13A     -1.086558    14A     -1.015832    15A     -0.921874
      16A     -0.837185    17A     -0.828797    18A     -0.806079
      19A     -0.794619    20A     -0.722380    21A     -0.712615
      22A     -0.697419    23A     -0.678626    24A     -0.656494
      25A     -0.650668    26A     -0.641435    27A     -0.639393
      28A     -0.583496    29A     -0.559719    30A     -0.527915
      31A     -0.502740    32A     -0.359685

  @DF-RHF Final Energy:  -527.53490406981200

   => Energetics <=

    Nuclear Repulsion Energy =            407.0388015496231446
    One-Electron Energy =               -1537.8650534804623931
    Two-Electron Energy =                 603.2913478610277025
    DFT Exchange-Correlation Energy =       0.0000000000000000
    Empirical Dispersion Energy =           0.0000000000000000
    PCM Polarization Energy =               0.0000000000000000
    EFP Energy =                            0.0000000000000000
    Total Energy =                       -527.5349040698114322
    Molecular point group: c1
  Basis Set: 6-31G*
  Basis Set:

  -Total Gradient:
     Atom            X                  Y                   Z
    ------   -----------------  -----------------  -----------------
       1       -0.000004841483     0.000003057967    -0.000004950345
       2       -0.000001912355    -0.000003372526    -0.000006425079
       3       -0.000211664123     0.000277461204    -0.000378768856
       4        0.000002719872    -0.000004238348     0.000014333841
       5        0.000303798666    -0.000544999046     0.000484436845
       6       -0.000000200670     0.000004299277     0.000002590449
       7        0.000011798077     0.000891499355    -0.000076969989
       8        0.000030211418    -0.000027769434     0.000029522673
       9       -0.000111595064    -0.000620042687    -0.000036381786
      10        0.000039054967    -0.000016067568    -0.000019839409
      11       -0.000051724174    -0.000011034297     0.000009220430
      12       -0.000020210065     0.000068470419    -0.000039025156
      13        0.000014564939    -0.000017264314     0.000022256382

  **** Optimization is complete! (in 10 steps) ****
    Final optimized geometry and variables:
    Molecular point group: c1

    Geometry (in Angstrom), charge = 0, multiplicity = 1:

    H           -4.092768252147    -1.804465160177     0.036717093544
    C           -3.336995992626    -1.058846652603     0.191975506258
    C           -2.069910417787    -1.362480849750     0.028396145022
    H           -3.641401392016    -0.075485184519     0.497757204871
    O           -1.074235029613    -0.473168794122     0.273463872716
    H           -1.741458811640    -2.342672216047    -0.275740469275
    C            0.078598411258    -0.629256634539    -0.484644279957
    C            1.046023496531     0.457050408359    -0.086933803858
    H           -0.119786247268    -0.535486486525    -1.546358880073
    H            0.555352005841    -1.586183169530    -0.298118256445
    F            2.160486343232     0.324692820840    -0.792603035406
    F            0.561552982675     1.659988100745    -0.321100271059
    F            1.366752356917     0.388394077418     1.189425338335

  Mulliken Charges: (a.u.)
   Center  Symbol    Alpha    Beta     Spin     Total
       1     H     0.40660  0.40660  0.00000  0.18679
       2     C     3.22842  3.22842  0.00000 -0.45684
       3     C     2.89969  2.89969  0.00000  0.20063
       4     H     0.39979  0.39979  0.00000  0.20041
       5     O     4.30489  4.30489  0.00000 -0.60978
       6     H     0.40957  0.40957  0.00000  0.18087
       7     C     3.05217  3.05217  0.00000 -0.10434
       8     C     2.44967  2.44967  0.00000  1.10065
       9     H     0.40426  0.40426  0.00000  0.19148
      10     H     0.40704  0.40704  0.00000  0.18592
      11     F     4.68560  4.68560  0.00000 -0.37120
      12     F     4.67621  4.67621  0.00000 -0.35243
      13     F     4.67609  4.67609  0.00000 -0.35218

   Total alpha = 32.00000, Total beta = 32.00000, Total charge = -0.00000
