  ==> Input File <==

--------------------------------------------------------------------------
set {
	reference rhf
	basis 6-31G*
}

set_num_threads( 4 )
memory 2 gb

molecule MOL {
0 1

O	 -1.276010	 1.052711	 -0.768302
C	 -1.204840	 0.067374	 -0.106123
C	 -2.388195	 -0.672128	 0.458071
O	 -0.067104	 -0.527208	 0.221609
H	 -2.388023	 -1.694060	 0.097175
H	 -3.300579	 -0.174919	 0.164318
H	 -2.315377	 -0.706351	 1.539059
C	 1.170111	 0.034140	 -0.238951
C	 2.111505	 -1.140155	 -0.439942
C	 1.685214	 1.043672	 0.775031
H	 0.980459	 0.526897	 -1.181146
H	 1.700412	 -1.842181	 -1.156468
H	 3.069385	 -0.791848	 -0.812072
H	 2.276636	 -1.663729	 0.495608
H	 2.633102	 1.455320	 0.443264
H	 0.985039	 1.860881	 0.892929
H	 1.837410	 0.568849	 1.739078

	symmetry c1
}
set optking {
	frozen_dihedral = ("
		11 8 4 2
	")
}

ee = optimize('scf')
oeprop('DIPOLE', 'QUADRUPOLE', 'MULLIKEN_CHARGES')
f=open( 'psi4out.xyz', 'w' )
f.write( "17  " )
f.write( str(ee) + "\n" )
f.write( MOL.save_string_xyz() )
f.close()
--------------------------------------------------------------------------

    Molecular point group: c1
  Charge       = 0
  Multiplicity = 1
  Basis Set: 6-31G*
  Basis Set:
  @DF-RHF Final Energy:  -344.91451397613184
    Total Energy =                       -344.9145139761319001
    Molecular point group: c1
  Basis Set: 6-31G*
  Basis Set:
  Basis Set: 6-31G*
  Basis Set:
  @DF-RHF Final Energy:  -344.91432996584246
    Total Energy =                       -344.9143299658422279
  Basis Set: 6-31G*
  Basis Set:
  Basis Set: 6-31G*
  Basis Set:
  @DF-RHF Final Energy:  -344.91448258248869
    Total Energy =                       -344.9144825824891996
  Basis Set: 6-31G*
  Basis Set:
  Basis Set: 6-31G*
  Basis Set:
  @DF-RHF Final Energy:  -344.91456075068112
    Total Energy =                       -344.9145607506810620
  Basis Set: 6-31G*
  Basis Set:
  Charge       = 0
  Multiplicity = 1
  Basis Set: 6-31G*
  Basis Set:

    Orbital Energies (a.u.)
    -----------------------

    Doubly Occupied:

       1A    -20.598765     2A    -20.543011     3A    -11.374865
       4A    -11.289516     5A    -11.232388     6A    -11.219632
       7A    -11.216325     8A     -1.465270     9A     -1.361609
      10A     -1.078533    11A     -1.005021    12A     -0.948206
      13A     -0.848056    14A     -0.766537    15A     -0.691986
      16A     -0.668646    17A     -0.659087    18A     -0.612665
      19A     -0.586281    20A     -0.578484    21A     -0.563724
      22A     -0.550954    23A     -0.536794    24A     -0.520441
      25A     -0.501974    26A     -0.482514    27A     -0.446076
      28A     -0.436116

  @DF-RHF Final Energy:  -344.91456125960946

   => Energetics <=

    Nuclear Repulsion Energy =            322.7691462469702515
    One-Electron Energy =               -1109.8004623811323199
    Two-Electron Energy =                 442.1167548745526119
    DFT Exchange-Correlation Energy =       0.0000000000000000
    Empirical Dispersion Energy =           0.0000000000000000
    PCM Polarization Energy =               0.0000000000000000
    EFP Energy =                            0.0000000000000000
    Total Energy =                       -344.9145612596095134
    Molecular point group: c1
  Basis Set: 6-31G*
  Basis Set:

  -Total Gradient:
     Atom            X                  Y                   Z
    ------   -----------------  -----------------  -----------------
       1       -0.000034126061    -0.000013160595     0.000002747893
       2       -0.000022334663    -0.000428487937    -0.000678885124
       3        0.000007705745    -0.000011921864    -0.000005533343
       4        0.000040230180     0.000840174065     0.001060960217
       5        0.000002601577     0.000000648382     0.000003849351
       6        0.000000925504     0.000003921485    -0.000002115978
       7        0.000002110806     0.000007079702     0.000000363437
       8        0.000150852393    -0.001150799921    -0.000828754722
       9        0.000020488938    -0.000018787035    -0.000003355454
      10        0.000041562681    -0.000027146234     0.000003923822
      11       -0.000178174246     0.000769855116     0.000444792708
      12        0.000000470714    -0.000001467122    -0.000001171964
      13       -0.000005564326     0.000003212297     0.000000375648
      14       -0.000005537813     0.000005052876     0.000000457359
      15       -0.000002352006     0.000005694650    -0.000000969314
      16       -0.000008329930     0.000013718415     0.000008038582
      17       -0.000010529492     0.000002413721    -0.000004723117

  **** Optimization is complete! (in 5 steps) ****
    Final optimized geometry and variables:
    Molecular point group: c1

    Geometry (in Angstrom), charge = 0, multiplicity = 1:

    O           -1.280374012220     1.089200603496    -0.734904733962
    C           -1.209489435629     0.091666577475    -0.091547024725
    C           -2.392748687712    -0.654056073100     0.464875609687
    O           -0.071944749460    -0.507376769522     0.229897397792
    H           -2.396017636074    -1.670199680799     0.087974025758
    H           -3.304852244494    -0.150130161462     0.181942814441
    H           -2.316497377819    -0.705101628548     1.544951411007
    C            1.166401086479     0.045964808263    -0.236540777854
    C            2.110045126737    -1.127634154868    -0.430049644718
    C            1.673675153277     1.061637830698     0.775328303244
    H            0.977118145972     0.539259279248    -1.177783099167
    H            1.703339528689    -1.831641992729    -1.147128841721
    H            3.069540378604    -0.779449716398    -0.798125683585
    H            2.270733392225    -1.649087116033     0.507469708091
    H            2.619875815750     1.479129045767     0.446096132930
    H            0.966493598113     1.874722159304     0.886782340181
    H            1.823531638613     0.593320553405     1.742771271432

  Mulliken Charges: (a.u.)
   Center  Symbol    Alpha    Beta     Spin     Total
       1     O     4.28530  4.28530  0.00000 -0.57061
       2     C     2.61790  2.61790  0.00000  0.76420
       3     C     3.28168  3.28168  0.00000 -0.56337
       4     O     4.31348  4.31348  0.00000 -0.62696
       5     H     0.40091  0.40091  0.00000  0.19818
       6     H     0.39733  0.39733  0.00000  0.20534
       7     H     0.40073  0.40073  0.00000  0.19854
       8     C     2.93026  2.93026  0.00000  0.13947
       9     C     3.24117  3.24117  0.00000 -0.48235
      10     C     3.24841  3.24841  0.00000 -0.49682
      11     H     0.39909  0.39909  0.00000  0.20181
      12     H     0.41241  0.41241  0.00000  0.17518
      13     H     0.41763  0.41763  0.00000  0.16474
      14     H     0.41408  0.41408  0.00000  0.17185
      15     H     0.41832  0.41832  0.00000  0.16335
      16     H     0.40469  0.40469  0.00000  0.19062
      17     H     0.41658  0.41658  0.00000  0.16684

   Total alpha = 28.00000, Total beta = 28.00000, Total charge =  0.00000
