                              Psi4 1.0.54 Driver

  ==> Input File <==

--------------------------------------------------------------------------
set {
	reference rhf
	basis cc-pvtz
}

set_num_threads( 4 )
memory 2 gb

molecule MOL {
0 1

H	 -3.258660	 -0.290394	 1.471450
C	 -3.307964	 -0.275695	 0.374072
C	 -2.653809	 0.914422	 -0.273689
O	 -3.855140	 -1.148880	 -0.205112
C	 -1.125616	 0.814423	 -0.291045
H	 -3.057598	 1.028847	 -1.271284
H	 -2.948305	 1.785136	 0.308062
C	 -0.594370	 -0.294947	 -1.196174
H	 -0.723314	 1.767940	 -0.615542
H	 -0.763337	 0.663544	 0.722949
C	 0.929804	 -0.375177	 -1.211598
H	 -0.958246	 -0.132524	 -2.207273
H	 -1.000424	 -1.252833	 -0.881526
C	 1.458520	 -1.477773	 -2.127016
H	 1.329422	 0.586386	 -1.518268
H	 1.290189	 -0.547527	 -0.199810
C	 2.978353	 -1.650419	 -2.112806
H	 1.130123	 -1.286186	 -3.145953
H	 1.002443	 -2.419557	 -1.834882
C	 3.760584	 -0.469956	 -2.683513
H	 3.226702	 -2.539903	 -2.683361
H	 3.307759	 -1.842873	 -1.095084
H	 3.447441	 -0.249977	 -3.699164
H	 3.626817	 0.429207	 -2.094193
H	 4.822159	 -0.687894	 -2.706450

	symmetry c1
}
set optking {
	frozen_dihedral = ("
		6 3 2 4
	")
}

ee,wfn = optimize('scf', return_wfn=True)
oeprop( wfn, 'DIPOLE', 'QUADRUPOLE', 'MULLIKEN_CHARGES')
f=open( 'psi4out.xyz', 'w' )
f.write( "25  " )
f.write( str(ee) + "\n" )
f.write( MOL.save_string_xyz() )
f.close()
--------------------------------------------------------------------------

    Molecular point group: c1
  Charge       = 0
  Multiplicity = 1
  Basis Set: CC-PVTZ
  Basis Set:
  @DF-RHF Final Energy:  -387.25948953950268
    Total Energy =                       -387.2594895395022832
    Molecular point group: c1
  Basis Set: CC-PVTZ
  Basis Set:
  Basis Set: CC-PVTZ
  Basis Set:
  @DF-RHF Final Energy:  -387.25767338782691
    Total Energy =                       -387.2576733878265713
  Basis Set: CC-PVTZ
  Basis Set:
  Basis Set: CC-PVTZ
  Basis Set:
  @DF-RHF Final Energy:  -387.25960774857839
    Total Energy =                       -387.2596077485791284
  Basis Set: CC-PVTZ
  Basis Set:
  Basis Set: CC-PVTZ
  Basis Set:
  @DF-RHF Final Energy:  -387.25965055290334
    Total Energy =                       -387.2596505529029400
  Basis Set: CC-PVTZ
  Basis Set:
  Basis Set: CC-PVTZ
  Basis Set:
  @DF-RHF Final Energy:  -387.25965267813388
    Total Energy =                       -387.2596526781337616
  Basis Set: CC-PVTZ
  Basis Set:
  Charge       = 0
  Multiplicity = 1
  Basis Set: CC-PVTZ
  Basis Set:

    Orbital Energies (a.u.)
    -----------------------

    Doubly Occupied:

       1A    -20.552016     2A    -11.321060     3A    -11.233868
       4A    -11.233279     5A    -11.217672     6A    -11.215292
       7A    -11.214559     8A    -11.212859     9A    -11.207504
      10A     -1.406796    11A     -1.102861    12A     -1.069140
      13A     -1.013162    14A     -0.942718    15A     -0.875182
      16A     -0.818072    17A     -0.787058    18A     -0.779126
      19A     -0.673676    20A     -0.663515    21A     -0.633995
      22A     -0.621938    23A     -0.598579    24A     -0.589740
      25A     -0.581063    26A     -0.551191    27A     -0.537108
      28A     -0.522598    29A     -0.509736    30A     -0.496456
      31A     -0.489810    32A     -0.477571    33A     -0.462998
      34A     -0.457411    35A     -0.441053    36A     -0.411441

  @DF-RHF Final Energy:  -387.25965305723764

   => Energetics <=

    Nuclear Repulsion Energy =            441.5932553377739396
    One-Electron Energy =               -1399.8616028267638285
    Two-Electron Energy =                 571.0086944317515645
    DFT Exchange-Correlation Energy =       0.0000000000000000
    Empirical Dispersion Energy =           0.0000000000000000
    PCM Polarization Energy =               0.0000000000000000
    EFP Energy =                            0.0000000000000000
    Total Energy =                       -387.2596530572383244
    Molecular point group: c1
  Basis Set: CC-PVTZ
  Basis Set:

  -Total Gradient:
     Atom            X                  Y                   Z
    ------   -----------------  -----------------  -----------------
       1       -0.000019149191     0.000010989752    -0.000085175042
       2       -0.002619353934     0.001503399636     0.000209930682
       3        0.002299819719    -0.001635776611    -0.000725428277
       4        0.001561060146    -0.000947680740    -0.000031821308
       5        0.000030965017     0.000046685480     0.000013745904
       6       -0.001303705031     0.000989191838     0.000614969572
       7        0.000057873676     0.000024050322     0.000011333840
       8        0.000020694880     0.000018171404    -0.000034816136
       9        0.000014420818    -0.000017259677    -0.000010755676
      10       -0.000004056826     0.000012606200     0.000021954469
      11       -0.000004186219     0.000026610063     0.000014115783
      12       -0.000005832689     0.000005765482    -0.000018529454
      13        0.000001871879    -0.000018868209     0.000009123718
      14       -0.000007715545    -0.000029982933     0.000019424072
      15        0.000016757485     0.000021773215    -0.000005488744
      16       -0.000005075707    -0.000001399835    -0.000009690782
      17       -0.000001013961    -0.000017812388    -0.000022815266
      18       -0.000000856548    -0.000005387920     0.000002399258
      19       -0.000002207591    -0.000005558947     0.000009810788
      20       -0.000015182551     0.000007538771     0.000013635215
      21       -0.000001818712     0.000002743982    -0.000009240367
      22        0.000002929817    -0.000009211652    -0.000004433656
      23        0.000004165244    -0.000008100845     0.000002714296
      24       -0.000020021282     0.000024201245     0.000008155348
      25       -0.000000382893     0.000003312367     0.000006881764

  **** Optimization is complete! (in 6 steps) ****
    Final optimized geometry and variables:
    Molecular point group: c1

    Geometry (in Angstrom), charge = 0, multiplicity = 1:

    H           -2.950702225595     0.201165434165     2.578390348874
    C           -3.040808266055     0.164323115223     1.484701185745
    C           -2.431874275065     1.331103114607     0.755234766101
    O           -3.557066945592    -0.764629777423     0.966108577546
    C           -0.898026264645     1.256215409594     0.734930764330
    H           -2.839694804591     1.366816237694    -0.246790011980
    H           -2.732901287791     2.237233231342     1.273395389084
    C           -0.341343086607     0.136690100266    -0.141450120607
    H           -0.519415129144     2.210081572362     0.383957411533
    H           -0.530988593571     1.142643071580     1.752351810883
    C            1.184468383699     0.089789666179    -0.143187145554
    H           -0.699920940226     0.272262192808    -1.158309832370
    H           -0.731701639935    -0.820308440894     0.189582091278
    C            1.743017020306    -1.020009037625    -1.031845773566
    H            1.567567526112     1.052932669755    -0.466062669650
    H            1.540278319593    -0.055303899471     0.874564805333
    C            3.265625561521    -1.162749701061    -1.000437828460
    H            1.420790863519    -0.854590988390    -2.057335191395
    H            1.302095911483    -1.964380190487    -0.725494446731
    C            4.030364750516     0.024086588417    -1.581587387021
    H            3.536961472622    -2.055807487777    -1.554789188686
    H            3.588602910672    -1.333127822391     0.023272497976
    H            3.723345197378     0.222151881355    -2.603618058162
    H            3.872729762633     0.929393994480    -1.007728547486
    H            5.096264478989    -0.172973911697    -1.590589051463

  Mulliken Charges: (a.u.)
   Center  Symbol    Alpha    Beta     Spin     Total
       1     H     0.46289  0.46289  0.00000  0.07423
       2     C     2.90597  2.90597  0.00000  0.18807
       3     C     3.08936  3.08936  0.00000 -0.17872
       4     O     4.16758  4.16758  0.00000 -0.33515
       5     C     3.11328  3.11328  0.00000 -0.22656
       6     H     0.44363  0.44363  0.00000  0.11274
       7     H     0.44193  0.44193  0.00000  0.11615
       8     C     3.08766  3.08766  0.00000 -0.17532
       9     H     0.44367  0.44367  0.00000  0.11265
      10     H     0.45065  0.45065  0.00000  0.09870
      11     C     3.09296  3.09296  0.00000 -0.18593
      12     H     0.45155  0.45155  0.00000  0.09690
      13     H     0.44439  0.44439  0.00000  0.11123
      14     C     3.09557  3.09557  0.00000 -0.19114
      15     H     0.45241  0.45241  0.00000  0.09518
      16     H     0.45468  0.45468  0.00000  0.09064
      17     C     3.09062  3.09062  0.00000 -0.18124
      18     H     0.45322  0.45322  0.00000  0.09355
      19     H     0.44741  0.44741  0.00000  0.10517
      20     C     3.15273  3.15273  0.00000 -0.30545
      21     H     0.44783  0.44783  0.00000  0.10434
      22     H     0.45481  0.45481  0.00000  0.09038
      23     H     0.45467  0.45467  0.00000  0.09066
      24     H     0.45446  0.45446  0.00000  0.09109
      25     H     0.44608  0.44608  0.00000  0.10784

   Total alpha = 36.00000, Total beta = 36.00000, Total charge =  0.00000

*** Psi4 exiting successfully. Buy a developer a beer!
