  ==> Input File <==

--------------------------------------------------------------------------
set {
	reference rhf
	basis cc-pvtz
}

set_num_threads( 4 )
memory 2 gb

molecule MOL {
0 1

H	 -2.331020	 -0.807594	 0.863919
O	 -2.346257	 -0.289210	 0.080372
C	 -1.183935	 0.486039	 -0.009831
C	 0.062853	 -0.375310	 0.027457
H	 -1.178881	 1.094526	 -0.908634
H	 -1.184406	 1.155156	 0.838676
O	 1.172093	 0.457955	 -0.054438
H	 0.052476	 -1.081302	 -0.804627
H	 0.076323	 -0.955658	 0.947560
C	 2.395478	 -0.199028	 -0.000366
H	 2.505946	 -0.901710	 -0.823354
H	 3.174616	 0.545641	 -0.071768
H	 2.513730	 -0.742241	 0.934223

	symmetry c1
}
set optking {
	frozen_dihedral = ("
		1 2 3 5
	")
}

ee = optimize('scf')
oeprop('DIPOLE', 'QUADRUPOLE', 'MULLIKEN_CHARGES')
f=open( 'psi4out.xyz', 'w' )
f.write( "13  " )
f.write( str(ee) + "\n" )
f.write( MOL.save_string_xyz() )
f.close()
--------------------------------------------------------------------------

    Molecular point group: c1
  Charge       = 0
  Multiplicity = 1
  Basis Set: CC-PVTZ
  Basis Set:
  @DF-RHF Final Energy:  -268.06031971602772
    Total Energy =                       -268.0603197160277205
    Molecular point group: c1
  Basis Set: CC-PVTZ
  Basis Set:
  Basis Set: CC-PVTZ
  Basis Set:
  @DF-RHF Final Energy:  -268.06176734674932
    Total Energy =                       -268.0617673467493773
  Basis Set: CC-PVTZ
  Basis Set:
  Basis Set: CC-PVTZ
  Basis Set:
  @DF-RHF Final Energy:  -268.06208954422385
    Total Energy =                       -268.0620895442237384
  Basis Set: CC-PVTZ
  Basis Set:
  Basis Set: CC-PVTZ
  Basis Set:
  @DF-RHF Final Energy:  -268.06209534274359
    Total Energy =                       -268.0620953427435893
  Basis Set: CC-PVTZ
  Basis Set:
  Charge       = 0
  Multiplicity = 1
  Basis Set: CC-PVTZ
  Basis Set:

    Orbital Energies (a.u.)
    -----------------------

    Doubly Occupied:

       1A    -20.557366     2A    -20.552919     3A    -11.271363
       4A    -11.268799     5A    -11.267455     6A     -1.393392
       7A     -1.369438     8A     -1.020379     9A     -0.914667
      10A     -0.845360    11A     -0.709796    12A     -0.677515
      13A     -0.666386    14A     -0.637479    15A     -0.597954
      16A     -0.575902    17A     -0.546451    18A     -0.494292
      19A     -0.480858    20A     -0.442370    21A     -0.426126

  @DF-RHF Final Energy:  -268.06209586914656

   => Energetics <=

    Nuclear Repulsion Energy =            190.5720211810790943
    One-Electron Energy =                -743.8357009342463471
    Two-Electron Energy =                 285.2015838840208062
    DFT Exchange-Correlation Energy =       0.0000000000000000
    Empirical Dispersion Energy =           0.0000000000000000
    PCM Polarization Energy =               0.0000000000000000
    EFP Energy =                            0.0000000000000000
    Total Energy =                       -268.0620958691464466
    Molecular point group: c1
  Basis Set: CC-PVTZ
  Basis Set:

  -Total Gradient:
     Atom            X                  Y                   Z
    ------   -----------------  -----------------  -----------------
       1        0.000557766197    -0.000848212526    -0.000527690216
       2       -0.000600175127     0.000878098659     0.000557935612
       3       -0.000468072143     0.000693059457     0.000438529967
       4       -0.000045322916     0.000035197592     0.000001191591
       5        0.000502265426    -0.000742963933    -0.000442691982
       6       -0.000000144491    -0.000020774796    -0.000002676399
       7        0.000037396630    -0.000011072329    -0.000007003805
       8        0.000005822043    -0.000008742151    -0.000001530119
       9       -0.000009026459     0.000017937906    -0.000021353544
      10        0.000011440371     0.000011936107     0.000011708856
      11       -0.000000786399     0.000002050824    -0.000001616158
      12        0.000005393726    -0.000003407132    -0.000004581170
      13        0.000003443139    -0.000003107676    -0.000000222633

  **** Optimization is complete! (in 5 steps) ****
    Final optimized geometry and variables:
    Molecular point group: c1

    Geometry (in Angstrom), charge = 0, multiplicity = 1:

    H           -2.377727761735    -0.788486472284     0.822307816009
    O           -2.349767041829    -0.292689305873     0.024091101399
    C           -1.186366814508     0.483895152725    -0.022706498161
    C            0.062921495033    -0.374135565816     0.019330666687
    H           -1.211174619826     1.026869269593    -0.956434068284
    H           -1.157199156348     1.207830791716     0.785563961907
    O            1.170425682765     0.462515352790    -0.037007351528
    H            0.055513553976    -1.070317610907    -0.816858579975
    H            0.078162708200    -0.965154396927     0.937322420333
    C            2.394738270819    -0.195323771982    -0.035356258250
    H            2.491318552577    -0.856868729250    -0.892969711027
    H            3.172258416591     0.552830973014    -0.082785309339
    H            2.528784123398    -0.783168336122     0.870020089915

  Mulliken Charges: (a.u.)
   Center  Symbol    Alpha    Beta     Spin     Total
       1     H     0.39458  0.39458  0.00000  0.21083
       2     O     4.20151  4.20151  0.00000 -0.40302
       3     C     2.96905  2.96905  0.00000  0.06190
       4     C     2.96848  2.96848  0.00000  0.06303
       5     H     0.45350  0.45350  0.00000  0.09299
       6     H     0.46746  0.46746  0.00000  0.06508
       7     O     4.17471  4.17471  0.00000 -0.34942
       8     H     0.46899  0.46899  0.00000  0.06201
       9     H     0.48306  0.48306  0.00000  0.03388
      10     C     3.03205  3.03205  0.00000 -0.06409
      11     H     0.46980  0.46980  0.00000  0.06040
      12     H     0.44563  0.44563  0.00000  0.10874
      13     H     0.47117  0.47117  0.00000  0.05765

   Total alpha = 21.00000, Total beta = 21.00000, Total charge =  0.00000
