                              Psi4 1.0.54 Driver

  ==> Input File <==

--------------------------------------------------------------------------
set {
	reference rhf
	basis cc-pvtz
}

set_num_threads( 4 )
memory 2 gb

molecule MOL {
0 1

O	 -2.374409	 1.338660	 -0.336961
C	 -2.104891	 0.204655	 -0.107126
C	 -0.881910	 -0.448129	 -0.720509
C	 -2.949910	 -0.638219	 0.818225
C	 -0.884830	 -1.962336	 -0.475536
H	 -0.008195	 -0.006986	 -0.257771
H	 -0.842345	 -0.246886	 -1.785779
C	 0.343902	 -2.648050	 -1.069269
H	 -0.935877	 -2.133458	 0.592331
H	 -1.781330	 -2.401604	 -0.906384
C	 0.364996	 -4.168762	 -0.905260
H	 1.239582	 -2.226355	 -0.619926
H	 0.396250	 -2.413984	 -2.129022
C	 0.489383	 -4.652592	 0.537417
H	 1.199658	 -4.561455	 -1.477482
H	 -0.531913	 -4.590148	 -1.351715
H	 1.375272	 -4.241623	 1.010591
H	 0.567684	 -5.733022	 0.573641
H	 -0.366922	 -4.368793	 1.136983
H	 -3.440322	 -1.417144	 0.243099
H	 -3.694377	 -0.025850	 1.303346
H	 -2.331085	 -1.129829	 1.560495

	symmetry c1
}
set optking {
	frozen_dihedral = ("
		6 3 2 1
	")
}

ee,wfn = optimize('scf', return_wfn=True)
oeprop( wfn, 'DIPOLE', 'QUADRUPOLE', 'MULLIKEN_CHARGES')
f=open( 'psi4out.xyz', 'w' )
f.write( "22  " )
f.write( str(ee) + "\n" )
f.write( MOL.save_string_xyz() )
f.close()
--------------------------------------------------------------------------

    Molecular point group: c1
  Charge       = 0
  Multiplicity = 1
  Basis Set: CC-PVTZ
  Basis Set:
  @DF-RHF Final Energy:  -348.21552554188645
    Total Energy =                       -348.2155255418867910
    Molecular point group: c1
  Basis Set: CC-PVTZ
  Basis Set:
  Basis Set: CC-PVTZ
  Basis Set:
  @DF-RHF Final Energy:  -348.12876827926306
    Total Energy =                       -348.1287682792634541
  Basis Set: CC-PVTZ
  Basis Set:
  Basis Set: CC-PVTZ
  Basis Set:
  @DF-RHF Final Energy:  -348.20906967412213
    Total Energy =                       -348.2090696741222473
  Basis Set: CC-PVTZ
  Basis Set:
  Basis Set: CC-PVTZ
  Basis Set:
  @DF-RHF Final Energy:  -348.22022071374721
    Total Energy =                       -348.2202207137471532
  Basis Set: CC-PVTZ
  Basis Set:
  @DF-RHF Final Energy:  -348.22097163386638
    Total Energy =                       -348.2209716338662133
  @DF-RHF Final Energy:  -348.22089525923263
    Total Energy =                       -348.2208952592333162
  @DF-RHF Final Energy:  -348.22096622600975
    Total Energy =                       -348.2209662260096934
  @DF-RHF Final Energy:  -348.22102902878106
    Total Energy =                       -348.2210290287810039
  Basis Set: CC-PVTZ
  Basis Set:
  @DF-RHF Final Energy:  -348.22097583149889
    Total Energy =                       -348.2209758314985493
  Basis Set: CC-PVTZ
  Basis Set:
  Basis Set: CC-PVTZ
  Basis Set:
  @DF-RHF Final Energy:  -348.22103255080276
    Total Energy =                       -348.2210325508034430
  Basis Set: CC-PVTZ
  Basis Set:
  Basis Set: CC-PVTZ
  Basis Set:
  @DF-RHF Final Energy:  -348.22103450974498
    Total Energy =                       -348.2210345097449249
  Basis Set: CC-PVTZ
  Basis Set:
  Charge       = 0
  Multiplicity = 1
  Basis Set: CC-PVTZ
  Basis Set:

    Orbital Energies (a.u.)
    -----------------------

    Doubly Occupied:

       1A    -20.534561     2A    -11.320579     3A    -11.228965
       4A    -11.227896     5A    -11.226409     6A    -11.222537
       7A    -11.221350     8A    -11.213536     9A     -1.396079
      10A     -1.099934    11A     -1.046271    12A     -0.997779
      13A     -0.942429    14A     -0.864838    15A     -0.789882
      16A     -0.732593    17A     -0.661572    18A     -0.650729
      19A     -0.633678    20A     -0.618728    21A     -0.604740
      22A     -0.585333    23A     -0.557320    24A     -0.545816
      25A     -0.539340    26A     -0.515585    27A     -0.512948
      28A     -0.480728    29A     -0.475684    30A     -0.467997
      31A     -0.465932    32A     -0.398306

  @DF-RHF Final Energy:  -348.22103473386363

   => Energetics <=

    Nuclear Repulsion Energy =            373.1486250928626873
    One-Electron Energy =               -1211.1791704160507379
    Two-Electron Energy =                 489.8095105893245318
    DFT Exchange-Correlation Energy =       0.0000000000000000
    Empirical Dispersion Energy =           0.0000000000000000
    PCM Polarization Energy =               0.0000000000000000
    EFP Energy =                            0.0000000000000000
    Total Energy =                       -348.2210347338635756
    Molecular point group: c1
  Basis Set: CC-PVTZ
  Basis Set:

  -Total Gradient:
     Atom            X                  Y                   Z
    ------   -----------------  -----------------  -----------------
       1        0.000999231677     0.000690190306     0.000687738658
       2       -0.001439228133    -0.000865092701    -0.001186372172
       3        0.000632009773    -0.000363787199     0.001766079390
       4        0.000032674048     0.000005476765     0.000013874828
       5       -0.000009574995     0.000004765545     0.000000754628
       6       -0.000203797757     0.000523840538    -0.001258407006
       7        0.000002227326    -0.000004634571     0.000011458619
       8       -0.000002284301    -0.000006242906    -0.000007086891
       9        0.000000267557    -0.000006072174    -0.000006339179
      10        0.000005411906     0.000012210844    -0.000000420174
      11        0.000019820435     0.000000445999    -0.000005224212
      12       -0.000009001520    -0.000009869318    -0.000006452343
      13        0.000000027861    -0.000002631229     0.000009984653
      14       -0.000005777492     0.000012728064    -0.000000759463
      15       -0.000007779278     0.000004231863     0.000009696989
      16        0.000013756231     0.000009646931    -0.000001587212
      17       -0.000013687012    -0.000006540410    -0.000003224772
      18       -0.000003790004     0.000001910284     0.000000060054
      19        0.000006058640     0.000003323905    -0.000005833958
      20        0.000001248399     0.000001078635    -0.000009281693
      21       -0.000000746810    -0.000003568106     0.000002498125
      22       -0.000017066550    -0.000001411062    -0.000011156871

  **** Optimization is complete! (in 12 steps) ****
    Final optimized geometry and variables:
    Molecular point group: c1

    Geometry (in Angstrom), charge = 0, multiplicity = 1:

    O           -1.426361930921     2.849291522803    -0.728167099675
    C           -1.125281638669     1.874067399653    -0.119894491677
    C           -0.061377039714     0.940608578725    -0.680573391692
    C           -1.747840889260     1.577319172275     1.224052544359
    C            0.078193583720    -0.448139236578    -0.063482379102
    H            0.875949011581     1.485188500836    -0.600401069327
    H           -0.260938707524     0.864986699691    -1.743001707131
    C            1.180569791495    -1.261651963864    -0.740410853468
    H            0.285265318359    -0.362481698926     0.996594228246
    H           -0.861951342989    -0.985887989926    -0.153199887779
    C            1.321536526064    -2.696399915255    -0.229779600358
    H            2.130151205953    -0.744716586657    -0.623396079621
    H            0.982965749298    -1.293081068991    -1.807957488122
    C            1.785419176877    -2.816171422806     1.219837938940
    H            2.031171825322    -3.215910803132    -0.865762244332
    H            0.373632671843    -3.214265783758    -0.349506296213
    H            2.727981710875    -2.299930053992     1.371146817180
    H            1.932260409335    -3.855229200418     1.490733480693
    H            1.064920251014    -2.399740042914     1.913622316127
    H           -2.251972871069     0.618346606080     1.210163431226
    H           -2.452659639506     2.356664410524     1.468463375819
    H           -0.980662183864     1.526432463837     1.988855397304

  Mulliken Charges: (a.u.)
   Center  Symbol    Alpha    Beta     Spin     Total
       1     O     4.17601  4.17601  0.00000 -0.35201
       2     C     2.86091  2.86091  0.00000  0.27817
       3     C     3.09894  3.09894  0.00000 -0.19788
       4     C     3.16492  3.16492  0.00000 -0.32984
       5     C     3.10535  3.10535  0.00000 -0.21069
       6     H     0.43973  0.43973  0.00000  0.12054
       7     H     0.43653  0.43653  0.00000  0.12694
       8     C     3.09718  3.09718  0.00000 -0.19435
       9     H     0.44836  0.44836  0.00000  0.10328
      10     H     0.44963  0.44963  0.00000  0.10075
      11     C     3.09019  3.09019  0.00000 -0.18038
      12     H     0.45202  0.45202  0.00000  0.09597
      13     H     0.44627  0.44627  0.00000  0.10747
      14     C     3.15309  3.15309  0.00000 -0.30619
      15     H     0.44662  0.44662  0.00000  0.10676
      16     H     0.45382  0.45382  0.00000  0.09235
      17     H     0.45387  0.45387  0.00000  0.09227
      18     H     0.44469  0.44469  0.00000  0.11062
      19     H     0.45491  0.45491  0.00000  0.09017
      20     H     0.44776  0.44776  0.00000  0.10449
      21     H     0.43152  0.43152  0.00000  0.13696
      22     H     0.44770  0.44770  0.00000  0.10460

   Total alpha = 32.00000, Total beta = 32.00000, Total charge =  0.00000

*** Psi4 exiting successfully. Buy a developer a beer!
