                              Psi4 1.0.54 Driver

  ==> Input File <==

--------------------------------------------------------------------------
set {
	reference rhf
	basis cc-pvtz
}

set_num_threads( 4 )
memory 2 gb

molecule MOL {
0 1

O	 -2.785123	 0.438466	 0.674045
C	 -1.922978	 0.063265	 -0.045005
C	 -2.143928	 -0.571957	 -1.388927
O	 -0.637375	 0.157174	 0.243149
H	 -1.711089	 -1.564073	 -1.397566
H	 -3.200755	 -0.626573	 -1.593308
H	 -1.645584	 0.010619	 -2.153013
C	 0.162530	 -1.009518	 0.097799
C	 1.587210	 -0.664190	 0.477086
H	 0.096803	 -1.356267	 -0.924704
H	 -0.233803	 -1.785900	 0.736810
C	 2.256770	 0.342732	 -0.454344
H	 2.154716	 -1.590834	 0.479041
H	 1.598751	 -0.289614	 1.496104
C	 3.698146	 0.643205	 -0.057145
H	 2.235038	 -0.042575	 -1.470299
H	 1.683491	 1.262594	 -0.461300
H	 4.150202	 1.356548	 -0.736242
H	 4.305463	 -0.255904	 -0.069842
H	 3.749130	 1.061068	 0.942759

	symmetry c1
}
set optking {
	frozen_dihedral = ("
		1 2 4 8
	")
}

ee,wfn = optimize('scf', return_wfn=True)
oeprop( wfn, 'DIPOLE', 'QUADRUPOLE', 'MULLIKEN_CHARGES')
f=open( 'psi4out.xyz', 'w' )
f.write( "20  " )
f.write( str(ee) + "\n" )
f.write( MOL.save_string_xyz() )
f.close()
--------------------------------------------------------------------------

    Molecular point group: c1
  Charge       = 0
  Multiplicity = 1
  Basis Set: CC-PVTZ
  Basis Set:
  @DF-RHF Final Energy:  -384.06463929870989
    Total Energy =                       -384.0646392987097215
    Molecular point group: c1
  Basis Set: CC-PVTZ
  Basis Set:
  Basis Set: CC-PVTZ
  Basis Set:
  @DF-RHF Final Energy:  -384.03741818024429
    Total Energy =                       -384.0374181802444582
  Basis Set: CC-PVTZ
  Basis Set:
  Basis Set: CC-PVTZ
  Basis Set:
  @DF-RHF Final Energy:  -384.06737066481293
    Total Energy =                       -384.0673706648127563
  Basis Set: CC-PVTZ
  Basis Set:
  Basis Set: CC-PVTZ
  Basis Set:
  @DF-RHF Final Energy:  -384.06556515312417
    Total Energy =                       -384.0655651531242256
  Basis Set: CC-PVTZ
  Basis Set:
  @DF-RHF Final Energy:  -384.06994032773190
    Total Energy =                       -384.0699403277319561
  @DF-RHF Final Energy:  -384.07005079105693
    Total Energy =                       -384.0700507910568149
  @DF-RHF Final Energy:  -384.07019892009623
    Total Energy =                       -384.0701989200963453
  Basis Set: CC-PVTZ
  Basis Set:
  @DF-RHF Final Energy:  -384.07022749646171
    Total Energy =                       -384.0702274964619392
  Basis Set: CC-PVTZ
  Basis Set:
  Basis Set: CC-PVTZ
  Basis Set:
  @DF-RHF Final Energy:  -384.07023835959819
    Total Energy =                       -384.0702383595981928
  Basis Set: CC-PVTZ
  Basis Set:
  Basis Set: CC-PVTZ
  Basis Set:
  @DF-RHF Final Energy:  -384.07024237840119
    Total Energy =                       -384.0702423784017583
  Basis Set: CC-PVTZ
  Basis Set:
  Charge       = 0
  Multiplicity = 1
  Basis Set: CC-PVTZ
  Basis Set:

    Orbital Energies (a.u.)
    -----------------------

    Doubly Occupied:

       1A    -20.583288     2A    -20.537154     3A    -11.369101
       4A    -11.294035     5A    -11.238416     6A    -11.227391
       7A    -11.220566     8A    -11.212410     9A     -1.462406
      10A     -1.369513    11A     -1.087209    12A     -1.020215
      13A     -0.997419    14A     -0.887418    15A     -0.814658
      16A     -0.779588    17A     -0.697661    18A     -0.689679
      19A     -0.662685    20A     -0.633928    21A     -0.616014
      22A     -0.592977    23A     -0.581954    24A     -0.555190
      25A     -0.553092    26A     -0.537361    27A     -0.501062
      28A     -0.489816    29A     -0.479255    30A     -0.476446
      31A     -0.451191    32A     -0.437608

  @DF-RHF Final Energy:  -384.07024306696843

   => Energetics <=

    Nuclear Repulsion Energy =            384.9821534835010084
    One-Electron Energy =               -1285.9913816277489786
    Two-Electron Energy =                 516.9389850772793125
    DFT Exchange-Correlation Energy =       0.0000000000000000
    Empirical Dispersion Energy =           0.0000000000000000
    PCM Polarization Energy =               0.0000000000000000
    EFP Energy =                            0.0000000000000000
    Total Energy =                       -384.0702430669687146
    Molecular point group: c1
  Basis Set: CC-PVTZ
  Basis Set:

  -Total Gradient:
     Atom            X                  Y                   Z
    ------   -----------------  -----------------  -----------------
       1       -0.001042076239    -0.003428726748     0.001713201062
       2        0.000879420024     0.004758819889    -0.000903944940
       3       -0.000120538126    -0.000021046885     0.000028018173
       4        0.001116659857    -0.000809945933    -0.003897072847
       5        0.000016921199     0.000012449062    -0.000004274932
       6        0.000100615267    -0.000048911714     0.000023090611
       7        0.000021200106     0.000014496500    -0.000059519140
       8       -0.000944280388    -0.000463638655     0.003172995357
       9       -0.000036222094    -0.000001223244    -0.000062702857
      10        0.000013992831    -0.000000880604    -0.000008430357
      11        0.000019815506     0.000004062336    -0.000012642101
      12        0.000027849872    -0.000029608704     0.000056482986
      13        0.000005262357     0.000005844097    -0.000007547673
      14       -0.000012490176     0.000003849203     0.000009046331
      15       -0.000022672299     0.000005225732    -0.000051556983
      16        0.000011050244    -0.000006576408    -0.000019742437
      17       -0.000000709946    -0.000007125336     0.000002315982
      18       -0.000016450880    -0.000013876396     0.000016066913
      19       -0.000011203439     0.000020033633    -0.000009904191
      20       -0.000006143673     0.000006780175     0.000016121041

  **** Optimization is complete! (in 11 steps) ****
    Final optimized geometry and variables:
    Molecular point group: c1

    Geometry (in Angstrom), charge = 0, multiplicity = 1:

    O           -2.543011294486     1.225827242600     0.476931382530
    C           -1.842173328186     0.604572270083    -0.235669672384
    C           -2.288080746746     0.071598767020    -1.574140309444
    O           -0.574027907753     0.353159551848     0.111942278496
    H           -2.420831807999    -1.002409292764    -1.522942434636
    H           -3.229464762537     0.526835090297    -1.833936509494
    H           -1.546759019390     0.281068197070    -2.334342088380
    C           -0.064692912524    -0.966367088986     0.047240031168
    C            1.312018326079    -0.981423496647     0.678563251022
    H           -0.010208424325    -1.298324545466    -0.984116362778
    H           -0.729925139667    -1.631536515105     0.586403082753
    C            2.345428273235    -0.144273089735    -0.069671807539
    H            1.640271070320    -2.016569424763     0.721123357985
    H            1.225123713163    -0.634261136321     1.702500273996
    C            3.720342465483    -0.186054929552     0.588135853520
    H            2.424015504113    -0.503334137308    -1.092898691603
    H            2.000923209138     0.881169931996    -0.126416040080
    H            4.434703729267     0.413851220882     0.036909843634
    H            4.104913679198    -1.199685862679     0.633849551017
    H            3.679357025687     0.197645454038     1.601833172429

  Mulliken Charges: (a.u.)
   Center  Symbol    Alpha    Beta     Spin     Total
       1     O     4.17264  4.17264  0.00000 -0.34528
       2     C     2.81459  2.81459  0.00000  0.37082
       3     C     3.16430  3.16430  0.00000 -0.32861
       4     O     4.14828  4.14828  0.00000 -0.29655
       5     H     0.44716  0.44716  0.00000  0.10569
       6     H     0.42906  0.42906  0.00000  0.14188
       7     H     0.44290  0.44290  0.00000  0.11420
       8     C     2.99648  2.99648  0.00000  0.00704
       9     C     3.08322  3.08322  0.00000 -0.16644
      10     H     0.45914  0.45914  0.00000  0.08171
      11     H     0.44856  0.44856  0.00000  0.10289
      12     C     3.08676  3.08676  0.00000 -0.17353
      13     H     0.45356  0.45356  0.00000  0.09288
      14     H     0.44673  0.44673  0.00000  0.10653
      15     C     3.15028  3.15028  0.00000 -0.30057
      16     H     0.45786  0.45786  0.00000  0.08428
      17     H     0.44259  0.44259  0.00000  0.11482
      18     H     0.44704  0.44704  0.00000  0.10592
      19     H     0.45638  0.45638  0.00000  0.08724
      20     H     0.45246  0.45246  0.00000  0.09508

   Total alpha = 32.00000, Total beta = 32.00000, Total charge = -0.00000

*** Psi4 exiting successfully. Buy a developer a beer!
