  ==> Input File <==

--------------------------------------------------------------------------
set {
	reference rhf
	basis 6-31G*
}

set_num_threads( 4 )
memory 2 gb

molecule MOL {
0 1

H	 -1.369502	 1.308720	 4.559471
C	 -0.839658	 1.111505	 3.644509
C	 -0.954190	 1.988689	 2.576529
C	 -0.044637	 -0.018673	 3.536944
H	 -1.571096	 2.864823	 2.661271
C	 -0.272613	 1.734437	 1.400396
H	 0.042932	 -0.697508	 4.365871
C	 0.638551	 -0.275213	 2.360587
H	 -0.349455	 2.402142	 0.563774
C	 0.525845	 0.601986	 1.288401
H	 1.254888	 -1.148579	 2.272947
C	 1.239129	 0.373821	 0.000060
O	 1.970282	 -0.730723	 0.000018
O	 1.166433	 1.102864	 -0.939126
C	 3.377318	 -0.566646	 -0.000065
H	 3.695437	 -0.028981	 -0.881264
H	 3.789299	 -1.563704	 0.000236
H	 3.695516	 -0.028316	 0.880770

	symmetry c1
}
set optking {
	frozen_dihedral = ("
		10 12 13 15
	")
}

ee = optimize('scf')
oeprop('DIPOLE', 'QUADRUPOLE', 'MULLIKEN_CHARGES')
f=open( 'psi4out.xyz', 'w' )
f.write( "18  " )
f.write( str(ee) + "\n" )
f.write( MOL.save_string_xyz() )
f.close()
--------------------------------------------------------------------------

    Molecular point group: c1
  Charge       = 0
  Multiplicity = 1
  Basis Set: 6-31G*
  Basis Set:
  @DF-RHF Final Energy:  -457.33372455905607
    Total Energy =                       -457.3337245590563498
    Molecular point group: c1
  Basis Set: 6-31G*
  Basis Set:
  Basis Set: 6-31G*
  Basis Set:
  @DF-RHF Final Energy:  -457.33327597211684
    Total Energy =                       -457.3332759721162120
  Basis Set: 6-31G*
  Basis Set:
  Basis Set: 6-31G*
  Basis Set:
  @DF-RHF Final Energy:  -457.33428674926506
    Total Energy =                       -457.3342867492650612
  Basis Set: 6-31G*
  Basis Set:
  Basis Set: 6-31G*
  Basis Set:
  @DF-RHF Final Energy:  -457.33460258380410
    Total Energy =                       -457.3346025838043261
  Basis Set: 6-31G*
  Basis Set:
  @DF-RHF Final Energy:  -457.33460741685235
    Total Energy =                       -457.3346074168525774
  @DF-RHF Final Energy:  -457.30804685314087
    Total Energy =                       -457.3080468531412635
  Basis Set: 6-31G*
  Basis Set:
  @DF-RHF Final Energy:  -457.33059187204384
    Total Energy =                       -457.3305918720438967
  Basis Set: 6-31G*
  Basis Set:
  Basis Set: 6-31G*
  Basis Set:
  @DF-RHF Final Energy:  -457.33450972803200
    Total Energy =                       -457.3345097280323444
  Basis Set: 6-31G*
  Basis Set:
  Basis Set: 6-31G*
  Basis Set:
  @DF-RHF Final Energy:  -457.33460794537365
    Total Energy =                       -457.3346079453739321
  Basis Set: 6-31G*
  Basis Set:
  Charge       = 0
  Multiplicity = 1
  Basis Set: 6-31G*
  Basis Set:

    Orbital Energies (a.u.)
    -----------------------

    Doubly Occupied:

       1A    -20.589513     2A    -20.553675     3A    -11.379480
       4A    -11.288835     5A    -11.248930     6A    -11.248528
       7A    -11.247226     8A    -11.244990     9A    -11.240656
      10A    -11.239840    11A     -1.461960    12A     -1.366004
      13A     -1.167963    14A     -1.046283    15A     -1.027998
      16A     -0.973970    17A     -0.868165    18A     -0.837919
      19A     -0.777772    20A     -0.737808    21A     -0.684319
      22A     -0.674858    23A     -0.662636    24A     -0.637141
      25A     -0.626692    26A     -0.606199    27A     -0.597084
      28A     -0.558050    29A     -0.527072    30A     -0.520128
      31A     -0.503156    32A     -0.496433    33A     -0.459126
      34A     -0.442763    35A     -0.348052    36A     -0.344197

  @DF-RHF Final Energy:  -457.33460800903327

   => Energetics <=

    Nuclear Repulsion Energy =            494.6803860837557636
    One-Electron Energy =               -1603.5591479020786210
    Two-Electron Energy =                 651.5441538092898099
    DFT Exchange-Correlation Energy =       0.0000000000000000
    Empirical Dispersion Energy =           0.0000000000000000
    PCM Polarization Energy =               0.0000000000000000
    EFP Energy =                            0.0000000000000000
    Total Energy =                       -457.3346080090329906
    Molecular point group: c1
  Basis Set: 6-31G*
  Basis Set:

  -Total Gradient:
     Atom            X                  Y                   Z
    ------   -----------------  -----------------  -----------------
       1        0.000003200667     0.000000091304     0.000002396371
       2       -0.000011464603     0.000000095635    -0.000007244415
       3        0.000008635793    -0.000000352869     0.000014966746
       4        0.000001428731    -0.000009971015    -0.000005939464
       5        0.000001404529    -0.000000614719    -0.000001452079
       6       -0.000000400235    -0.000015411373    -0.000016387749
       7        0.000001587140     0.000002467242     0.000003229554
       8       -0.000008260156     0.000005590768     0.000021465162
       9        0.000002465974     0.000000888415     0.000002080345
      10        0.003730632237     0.002644229988     0.001577556017
      11        0.000001025335     0.000000035416    -0.000000566790
      12       -0.005384134533    -0.003847702915     0.000074816907
      13        0.001576591630     0.001159000914    -0.006795988743
      14        0.000010885799    -0.000000630063    -0.000020043742
      15        0.000069991728     0.000061669325     0.005158532497
      16       -0.000002913055     0.000006709561     0.000001866736
      17       -0.000002063152    -0.000005506452     0.000001232382
      18        0.000001386166    -0.000000589165    -0.000010519729

  **** Optimization is complete! (in 10 steps) ****
    Final optimized geometry and variables:
    Molecular point group: c1

    Geometry (in Angstrom), charge = 0, multiplicity = 1:

    H           -2.108830494983     0.854324518641     3.264597981076
    C           -1.591279893987     0.639630340796     2.346615664826
    C           -1.694827500643     1.514578386258     1.273998299656
    C           -0.825868249658    -0.509713862018     2.238769907511
    H           -2.290944596663     2.404883750892     1.359853205474
    C           -1.031012348892     1.238487471529     0.094114835700
    H           -0.750619605960    -1.188116202201     3.069186781113
    C           -0.158021201521    -0.787141085077     1.057330724621
    H           -1.100947231991     1.903174951750    -0.745548531217
    C           -0.255096903247     0.088144734485    -0.017571715451
    H            0.429842775082    -1.679466682674     0.964916558302
    C            0.463123446564    -0.161667194206    -1.298838653448
    O            1.241443905290    -1.261279297380    -1.296173459512
    O            0.402016630257     0.560823957018    -2.237159699830
    C            2.637871140545    -1.031803155377    -1.316884275384
    H            2.914567380352    -0.442504291821    -2.180060955204
    H            3.105897677205    -2.002341817320    -1.369350339627
    H            2.950714926812    -0.527119658822    -0.409590162479

  Mulliken Charges: (a.u.)
   Center  Symbol    Alpha    Beta     Spin     Total
       1     H     0.39458  0.39458  0.00000  0.21084
       2     C     3.08966  3.08966  0.00000 -0.17931
       3     C     3.10688  3.10688  0.00000 -0.21376
       4     C     3.10647  3.10647  0.00000 -0.21294
       5     H     0.39459  0.39459  0.00000  0.21082
       6     C     3.08537  3.08537  0.00000 -0.17074
       7     H     0.39560  0.39560  0.00000  0.20881
       8     C     3.09068  3.09068  0.00000 -0.18136
       9     H     0.37593  0.37593  0.00000  0.24815
      10     C     3.07776  3.07776  0.00000 -0.15551
      11     H     0.38197  0.38197  0.00000  0.23606
      12     C     2.58917  2.58917  0.00000  0.82166
      13     O     4.32338  4.32338  0.00000 -0.64676
      14     O     4.26632  4.26632  0.00000 -0.53264
      15     C     3.09460  3.09460  0.00000 -0.18920
      16     H     0.40387  0.40387  0.00000  0.19226
      17     H     0.40473  0.40473  0.00000  0.19054
      18     H     0.41847  0.41847  0.00000  0.16307

   Total alpha = 36.00000, Total beta = 36.00000, Total charge = -0.00000
