  ==> Input File <==

--------------------------------------------------------------------------
set {
	reference rhf
	basis 6-31G*
}

set_num_threads( 1 )
memory 2 gb

molecule MOL {
0 1

O	 3.225979	 0.970355	 -0.599647
C	 2.701189	 0.057885	 -0.047330
C	 1.245376	 -0.013843	 0.345420
O	 3.347903	 -1.046386	 0.304773
C	 0.455112	 1.231400	 -0.050772
H	 0.838542	 -0.913825	 -0.103701
H	 1.208210	 -0.175333	 1.419774
C	 -0.998893	 1.219485	 0.433193
H	 0.482531	 1.345121	 -1.130325
H	 0.957290	 2.103070	 0.354729
C	 -1.862161	 0.094262	 -0.144521
H	 -1.449520	 2.173427	 0.169273
H	 -1.018575	 1.167583	 1.520818
C	 -3.328443	 0.190619	 0.281777
H	 -1.801451	 0.118978	 -1.231499
H	 -1.470501	 -0.873203	 0.161398
C	 -4.199567	 -0.931696	 -0.285395
H	 -3.732126	 1.151536	 -0.032731
H	 -3.389044	 0.176766	 1.368899
C	 -5.663101	 -0.825998	 0.141918
H	 -4.139369	 -0.919928	 -1.371617
H	 -3.800171	 -1.892864	 0.031495
H	 -6.254627	 -1.634931	 -0.275613
H	 -6.101982	 0.110411	 -0.190825
H	 -5.760003	 -0.869411	 1.223120
C	 4.728119	 -1.109107	 -0.004993
H	 4.882018	 -1.033965	 -1.071845
H	 5.068212	 -2.067527	 0.355250
H	 5.265056	 -0.311663	 0.488280

	symmetry c1
}
set optking {
	frozen_dihedral = ("
		21 17 14 11,
		17 14 11 15,
		15 11 8 5,
		6 3 5 9,
		2 4 26 27,
		1 2 4 26,
		6 3 2 1
	")
}

ee = energy('scf')
oeprop('DIPOLE', 'QUADRUPOLE', 'MULLIKEN_CHARGES')
f=open( 'psi4out.xyz', 'w' )
f.write( "29  " )
f.write( str(ee) + "\n" )
f.write( MOL.save_string_xyz() )
f.close()
--------------------------------------------------------------------------

    Molecular point group: c1

    Geometry (in Angstrom), charge = 0, multiplicity = 1:

       Center              X                  Y                   Z               Mass
    ------------   -----------------  -----------------  -----------------  -----------------
           O          3.215186936771     0.999597516319    -0.631349537372    15.994914619560
           C          2.690396936771     0.087127516319    -0.079032537372    12.000000000000
           C          1.234583936771     0.015399516319     0.313717462628    12.000000000000
           O          3.337110936771    -1.017143483681     0.273070462628    15.994914619560
           C          0.444319936771     1.260642516319    -0.082474537372    12.000000000000
           H          0.827749936771    -0.884582483681    -0.135403537372     1.007825032070
           H          1.197417936771    -0.146090483681     1.388071462628     1.007825032070
           C         -1.009685063229     1.248727516319     0.401490462628    12.000000000000
           H          0.471738936771     1.374363516319    -1.162027537372     1.007825032070
           H          0.946497936771     2.132312516319     0.323026462628     1.007825032070
           C         -1.872953063229     0.123504516319    -0.176223537372    12.000000000000
           H         -1.460312063229     2.202669516319     0.137570462628     1.007825032070
           H         -1.029367063229     1.196825516319     1.489115462628     1.007825032070
           C         -3.339235063229     0.219861516319     0.250074462628    12.000000000000
           H         -1.812243063229     0.148220516319    -1.263201537372     1.007825032070
           H         -1.481293063229    -0.843960483681     0.129695462628     1.007825032070
           C         -4.210359063229    -0.902453483681    -0.317097537372    12.000000000000
           H         -3.742918063229     1.180778516319    -0.064433537372     1.007825032070
           H         -3.399836063229     0.206008516319     1.337196462628     1.007825032070
           C         -5.673893063229    -0.796755483681     0.110215462628    12.000000000000
           H         -4.150161063229    -0.890685483681    -1.403319537372     1.007825032070
           H         -3.810963063229    -1.863621483681    -0.000207537372     1.007825032070
           H         -6.265419063229    -1.605688483681    -0.307315537372     1.007825032070
           H         -6.112774063229     0.139653516319    -0.222527537372     1.007825032070
           H         -5.770795063229    -0.840168483681     1.191417462628     1.007825032070
           C          4.717326936771    -1.079864483681    -0.036695537372    12.000000000000
           H          4.871225936771    -1.004722483681    -1.103547537372     1.007825032070
           H          5.057419936771    -2.038284483681     0.323547462628     1.007825032070
           H          5.254263936771    -0.282420483681     0.456577462628     1.007825032070

  Charge       = 0
  Multiplicity = 1
  Basis Set: 6-31G*
  Basis Set:

    Orbital Energies (a.u.)
    -----------------------

    Doubly Occupied:

       1A    -20.603335     2A    -20.545169     3A    -11.371968
       4A    -11.280649     5A    -11.234674     6A    -11.219132
       7A    -11.217667     8A    -11.216064     9A    -11.215920
      10A    -11.214531    11A    -11.209105    12A     -1.469039
      13A     -1.362483    14A     -1.098225    15A     -1.066778
      16A     -1.019425    17A     -0.977190    18A     -0.928639
      19A     -0.861933    20A     -0.799219    21A     -0.790591
      22A     -0.763403    23A     -0.700741    24A     -0.682332
      25A     -0.672085    26A     -0.651244    27A     -0.628918
      28A     -0.604607    29A     -0.594755    30A     -0.580813
      31A     -0.567169    32A     -0.549559    33A     -0.531524
      34A     -0.530393    35A     -0.516314    36A     -0.512275
      37A     -0.496117    38A     -0.477962    39A     -0.469979
      40A     -0.462343    41A     -0.458858    42A     -0.455716
      43A     -0.441018    44A     -0.435617

  @DF-RHF Final Energy:  -501.04406131788073

   => Energetics <=

    Nuclear Repulsion Energy =            610.6762414321487995
    One-Electron Energy =               -1892.4697525745666553
    Two-Electron Energy =                 780.7494498245366685
    DFT Exchange-Correlation Energy =       0.0000000000000000
    Empirical Dispersion Energy =           0.0000000000000000
    PCM Polarization Energy =               0.0000000000000000
    EFP Energy =                            0.0000000000000000
    Total Energy =                       -501.0440613178811873

  Mulliken Charges: (a.u.)
   Center  Symbol    Alpha    Beta     Spin     Total
       1     O     4.28597  4.28597  0.00000 -0.57193
       2     C     2.60472  2.60472  0.00000  0.79056
       3     C     3.21018  3.21018  0.00000 -0.42036
       4     O     4.30746  4.30746  0.00000 -0.61491
       5     C     3.15356  3.15356  0.00000 -0.30712
       6     H     0.39859  0.39859  0.00000  0.20283
       7     H     0.40131  0.40131  0.00000  0.19738
       8     C     3.15635  3.15635  0.00000 -0.31270
       9     H     0.41315  0.41315  0.00000  0.17371
      10     H     0.40875  0.40875  0.00000  0.18249
      11     C     3.15562  3.15562  0.00000 -0.31124
      12     H     0.41825  0.41825  0.00000  0.16351
      13     H     0.42374  0.42374  0.00000  0.15252
      14     C     3.15021  3.15021  0.00000 -0.30042
      15     H     0.42274  0.42274  0.00000  0.15451
      16     H     0.42336  0.42336  0.00000  0.15328
      17     C     3.15146  3.15146  0.00000 -0.30293
      18     H     0.42333  0.42333  0.00000  0.15335
      19     H     0.42394  0.42394  0.00000  0.15213
      20     C     3.23935  3.23935  0.00000 -0.47870
      21     H     0.42283  0.42283  0.00000  0.15435
      22     H     0.42343  0.42343  0.00000  0.15314
      23     H     0.41923  0.41923  0.00000  0.16155
      24     H     0.42154  0.42154  0.00000  0.15693
      25     H     0.42181  0.42181  0.00000  0.15637
      26     C     3.09240  3.09240  0.00000 -0.18480
      27     H     0.40909  0.40909  0.00000  0.18183
      28     H     0.40852  0.40852  0.00000  0.18296
      29     H     0.40913  0.40913  0.00000  0.18174

   Total alpha = 44.00000, Total beta = 44.00000, Total charge =  0.00000
