                              Psi4 1.0.54 Driver

  ==> Input File <==

--------------------------------------------------------------------------
set {
	reference rhf
	basis cc-pvtz
}

set_num_threads( 4 )
memory 2 gb

molecule MOL {
0 1

H	 -1.752232	 -2.214755	 -0.011938
C	 -1.343852	 -1.221619	 -0.018179
N	 -0.058800	 -1.097635	 -0.261688
C	 -2.148159	 -0.124236	 0.219734
C	 0.449026	 0.119242	 -0.273393
H	 -3.196988	 -0.237571	 0.417076
N	 -1.655094	 1.094230	 0.209506
C	 -0.370318	 1.215445	 -0.035100
C	 1.924033	 0.265863	 -0.538106
H	 0.033214	 2.210441	 -0.046812
C	 2.335892	 1.716931	 -0.791527
H	 2.461026	 -0.115500	 0.322106
H	 2.199541	 -0.348290	 -1.387297
H	 3.406406	 1.786223	 -0.943620
H	 2.070813	 2.340978	 0.051846
H	 1.844916	 2.113709	 -1.673035

	symmetry c1
}
set optking {
	frozen_dihedral = ("
		12 9 5 3
	")
}

ee,wfn = optimize('scf', return_wfn=True)
oeprop( wfn, 'DIPOLE', 'QUADRUPOLE', 'MULLIKEN_CHARGES')
f=open( 'psi4out.xyz', 'w' )
f.write( "16  " )
f.write( str(ee) + "\n" )
f.write( MOL.save_string_xyz() )
f.close()
--------------------------------------------------------------------------

    Molecular point group: c1
  Charge       = 0
  Multiplicity = 1
  Basis Set: CC-PVTZ
  Basis Set:
  @DF-RHF Final Energy:  -340.86837580554436
    Total Energy =                       -340.8683758055444741
    Molecular point group: c1
  Basis Set: CC-PVTZ
  Basis Set:
  Basis Set: CC-PVTZ
  Basis Set:
  @DF-RHF Final Energy:  -340.86950183780272
    Total Energy =                       -340.8695018378024884
  Basis Set: CC-PVTZ
  Basis Set:
  Basis Set: CC-PVTZ
  Basis Set:
  @DF-RHF Final Energy:  -340.87015868659364
    Total Energy =                       -340.8701586865936974
  Basis Set: CC-PVTZ
  Basis Set:
  Basis Set: CC-PVTZ
  Basis Set:
  @DF-RHF Final Energy:  -340.87019495280413
    Total Energy =                       -340.8701949528041837
  Basis Set: CC-PVTZ
  Basis Set:
  Basis Set: CC-PVTZ
  Basis Set:
  @DF-RHF Final Energy:  -340.87022513504962
    Total Energy =                       -340.8702251350496795
  Basis Set: CC-PVTZ
  Basis Set:
  Basis Set: CC-PVTZ
  Basis Set:
  @DF-RHF Final Energy:  -340.87022842989177
    Total Energy =                       -340.8702284298915970
  Basis Set: CC-PVTZ
  Basis Set:
  Charge       = 0
  Multiplicity = 1
  Basis Set: CC-PVTZ
  Basis Set:

    Orbital Energies (a.u.)
    -----------------------

    Doubly Occupied:

       1A    -15.579710     2A    -15.574643     3A    -11.279040
       4A    -11.272071     5A    -11.267173     6A    -11.266702
       7A    -11.232171     8A    -11.221514     9A     -1.315188
      10A     -1.222895    11A     -1.087045    12A     -1.016340
      13A     -0.910386    14A     -0.893369    15A     -0.831469
      16A     -0.716838    17A     -0.711336    18A     -0.652929
      19A     -0.631528    20A     -0.611337    21A     -0.572099
      22A     -0.565315    23A     -0.520348    24A     -0.512950
      25A     -0.508235    26A     -0.485896    27A     -0.431129
      28A     -0.396908    29A     -0.346466

  @DF-RHF Final Energy:  -340.87022936006372

   => Energetics <=

    Nuclear Repulsion Energy =            350.0037470060386795
    One-Electron Energy =               -1154.4818900326317817
    Two-Electron Energy =                 463.6079136665293845
    DFT Exchange-Correlation Energy =       0.0000000000000000
    Empirical Dispersion Energy =           0.0000000000000000
    PCM Polarization Energy =               0.0000000000000000
    EFP Energy =                            0.0000000000000000
    Total Energy =                       -340.8702293600637176
    Molecular point group: c1
  Basis Set: CC-PVTZ
  Basis Set:

  -Total Gradient:
     Atom            X                  Y                   Z
    ------   -----------------  -----------------  -----------------
       1        0.000020494784    -0.000002558857     0.000035133452
       2       -0.000178713699     0.000059389934    -0.000058484353
       3        0.000085160836     0.000153849636    -0.000312477311
       4        0.000025890318    -0.000186086023    -0.000045504785
       5        0.000106147286    -0.000162416186     0.000480301983
       6        0.000010682580     0.000001459609     0.000030772075
       7        0.000145601778     0.000126939283    -0.000044033539
       8       -0.000140153995     0.000064471018     0.000105881870
       9        0.000014529665    -0.000374158630    -0.000352407733
      10        0.000000204260     0.000003928666    -0.000025578940
      11        0.000000633166     0.000064579981    -0.000013783484
      12       -0.000044016041     0.000317136303     0.000177092480
      13       -0.000019207495    -0.000017348589     0.000004657848
      14       -0.000108943906    -0.000011440217     0.000024144760
      15        0.000030359008    -0.000022774612    -0.000070669692
      16        0.000051331456    -0.000014971315     0.000064955369

  **** Optimization is complete! (in 7 steps) ****
    Final optimized geometry and variables:
    Molecular point group: c1

    Geometry (in Angstrom), charge = 0, multiplicity = 1:

    H           -1.485483618945    -2.611398693453     0.070877494452
    C           -1.167800533670    -1.586524159525     0.114678680915
    N            0.097606053142    -1.335818608551    -0.124116777660
    C           -2.065052589373    -0.578085542297     0.409930215999
    C            0.501240487467    -0.079480650753    -0.073341595596
    H           -3.098586657846    -0.792778179997     0.603736813938
    N           -1.679907310239     0.675783690710     0.460380406888
    C           -0.410562098263     0.925416970923     0.221030969819
    C            1.968530905445     0.162594101947    -0.336413449673
    H           -0.109036863262     1.952519288456     0.261945466932
    C            2.383722111598     1.608007221845    -0.586026444065
    H            2.522328893937    -0.230778945259     0.510411838626
    H            2.244545541228    -0.452703936806    -1.183632382261
    H            3.440774394373     1.649798403945    -0.815979010509
    H            2.216060675927     2.235231498224     0.281314153403
    H            1.846250718754     2.039838318261    -1.422445574608

  Mulliken Charges: (a.u.)
   Center  Symbol    Alpha    Beta     Spin     Total
       1     H     0.41372  0.41372  0.00000  0.17256
       2     C     3.04252  3.04252  0.00000 -0.08504
       3     N     3.59427  3.59427  0.00000 -0.18853
       4     C     3.04871  3.04871  0.00000 -0.09742
       5     C     2.95456  2.95456  0.00000  0.09087
       6     H     0.41421  0.41421  0.00000  0.17157
       7     N     3.58848  3.58848  0.00000 -0.17697
       8     C     3.07547  3.07547  0.00000 -0.15093
       9     C     3.06063  3.06063  0.00000 -0.12126
      10     H     0.41219  0.41219  0.00000  0.17562
      11     C     3.16365  3.16365  0.00000 -0.32731
      12     H     0.44533  0.44533  0.00000  0.10934
      13     H     0.44320  0.44320  0.00000  0.11360
      14     H     0.44251  0.44251  0.00000  0.11499
      15     H     0.45255  0.45255  0.00000  0.09491
      16     H     0.44800  0.44800  0.00000  0.10399

   Total alpha = 29.00000, Total beta = 29.00000, Total charge = -0.00000

*** Psi4 exiting successfully. Buy a developer a beer!
