                              Psi4 1.0.54 Driver

  ==> Input File <==

--------------------------------------------------------------------------
set {
	reference rhf
	basis cc-pvtz
}

set_num_threads( 4 )
memory 2 gb

molecule MOL {
0 1

H	 -3.190329	 1.837307	 0.197325
C	 -3.235898	 0.960539	 -0.463043
C	 -2.224646	 0.953184	 -1.577138
O	 -4.045061	 0.119661	 -0.274662
C	 -0.794329	 1.184840	 -1.080950
H	 -2.313492	 0.019256	 -2.116785
H	 -2.502817	 1.758107	 -2.253913
C	 -0.247837	 0.040196	 -0.230469
H	 -0.152186	 1.332086	 -1.942524
H	 -0.755807	 2.111866	 -0.514087
C	 1.181757	 0.280428	 0.247371
H	 -0.286554	 -0.880084	 -0.807265
H	 -0.891637	 -0.118334	 0.630819
C	 2.151032	 -0.811012	 -0.202643
H	 1.515939	 1.247397	 -0.115449
H	 1.191514	 0.341223	 1.333422
C	 3.580021	 -0.656538	 0.320835
H	 2.170545	 -0.847575	 -1.289412
H	 1.766632	 -1.772905	 0.124928
C	 4.327657	 0.562694	 -0.213579
H	 4.138806	 -1.549270	 0.057813
H	 3.561991	 -0.620783	 1.406976
H	 4.355973	 0.557257	 -1.298551
H	 3.867136	 1.491650	 0.100501
H	 5.351524	 0.571613	 0.142204

	symmetry c1
}
set optking {
	frozen_dihedral = ("
		12 8 11 14
	")
}

ee,wfn = optimize('scf', return_wfn=True)
oeprop( wfn, 'DIPOLE', 'QUADRUPOLE', 'MULLIKEN_CHARGES')
f=open( 'psi4out.xyz', 'w' )
f.write( "25  " )
f.write( str(ee) + "\n" )
f.write( MOL.save_string_xyz() )
f.close()
--------------------------------------------------------------------------

    Molecular point group: c1
  Charge       = 0
  Multiplicity = 1
  Basis Set: CC-PVTZ
  Basis Set:
  @DF-RHF Final Energy:  -387.25475615574442
    Total Energy =                       -387.2547561557445306
    Molecular point group: c1
  Basis Set: CC-PVTZ
  Basis Set:
  Basis Set: CC-PVTZ
  Basis Set:
  @DF-RHF Final Energy:  -387.25497687065450
    Total Energy =                       -387.2549768706546729
  Basis Set: CC-PVTZ
  Basis Set:
  Basis Set: CC-PVTZ
  Basis Set:
  @DF-RHF Final Energy:  -387.25501717830986
    Total Energy =                       -387.2550171783097994
  Basis Set: CC-PVTZ
  Basis Set:
  Basis Set: CC-PVTZ
  Basis Set:
  @DF-RHF Final Energy:  -387.25476023725867
    Total Energy =                       -387.2547602372587789
  Basis Set: CC-PVTZ
  Basis Set:
  Basis Set: CC-PVTZ
  Basis Set:
  @DF-RHF Final Energy:  -387.25503971313384
    Total Energy =                       -387.2550397131338968
  Basis Set: CC-PVTZ
  Basis Set:
  Basis Set: CC-PVTZ
  Basis Set:
  @DF-RHF Final Energy:  -387.25502721612435
    Total Energy =                       -387.2550272161246312
  Basis Set: CC-PVTZ
  Basis Set:
  Basis Set: CC-PVTZ
  Basis Set:
  @DF-RHF Final Energy:  -387.25504398924164
    Total Energy =                       -387.2550439892415852
  Basis Set: CC-PVTZ
  Basis Set:
  Charge       = 0
  Multiplicity = 1
  Basis Set: CC-PVTZ
  Basis Set:

    Orbital Energies (a.u.)
    -----------------------

    Doubly Occupied:

       1A    -20.551320     2A    -11.320988     3A    -11.233748
       4A    -11.233142     5A    -11.221497     6A    -11.217533
       7A    -11.216644     8A    -11.216022     9A    -11.209488
      10A     -1.406373    11A     -1.104062    12A     -1.071089
      13A     -1.013060    14A     -0.943609    15A     -0.876972
      16A     -0.822760    17A     -0.788692    18A     -0.782762
      19A     -0.669101    20A     -0.653873    21A     -0.636905
      22A     -0.625309    23A     -0.609393    24A     -0.598750
      25A     -0.565693    26A     -0.563982    27A     -0.528228
      28A     -0.525757    29A     -0.519288    30A     -0.501687
      31A     -0.487400    32A     -0.479053    33A     -0.460379
      34A     -0.458240    35A     -0.443220    36A     -0.411844

  @DF-RHF Final Energy:  -387.25504381506420

   => Energetics <=

    Nuclear Repulsion Energy =            440.2993429054845933
    One-Electron Energy =               -1397.1730449738668085
    Two-Electron Energy =                 569.6186582533180172
    DFT Exchange-Correlation Energy =       0.0000000000000000
    Empirical Dispersion Energy =           0.0000000000000000
    PCM Polarization Energy =               0.0000000000000000
    EFP Energy =                            0.0000000000000000
    Total Energy =                       -387.2550438150642549
    Molecular point group: c1
  Basis Set: CC-PVTZ
  Basis Set:

  -Total Gradient:
     Atom            X                  Y                   Z
    ------   -----------------  -----------------  -----------------
       1       -0.000002569506    -0.000021771273    -0.000025665425
       2       -0.000019478930    -0.000028068489     0.000033823800
       3       -0.000035241099     0.000016855504     0.000021542579
       4        0.000037004711     0.000031859112    -0.000009491469
       5        0.000024212374    -0.000028732748    -0.000025927053
       6        0.000006995562     0.000010082438    -0.000003265614
       7       -0.000003665586     0.000007815694     0.000010494183
       8        0.000154157733     0.000469880947    -0.000795881969
       9       -0.000002231700    -0.000016913850     0.000001035672
      10        0.000014119461     0.000006598595    -0.000008997005
      11       -0.000129842111    -0.000368390909     0.000674678979
      12       -0.000110233079    -0.000307852201     0.000501463225
      13       -0.000007136313     0.000004220218    -0.000004016215
      14        0.000080798191     0.000226096389    -0.000364767739
      15        0.000004230687     0.000002188593     0.000003004584
      16        0.000003151609    -0.000007137518    -0.000006371185
      17        0.000000489613    -0.000000256447    -0.000006292909
      18       -0.000002667233    -0.000000952221     0.000003668133
      19        0.000002324832     0.000004108684     0.000004819764
      20       -0.000007386496     0.000002029312     0.000001637451
      21        0.000000198380     0.000000480702    -0.000003000691
      22       -0.000003071155    -0.000002833644    -0.000002935678
      23        0.000001667443    -0.000000373904    -0.000000170682
      24       -0.000004349789     0.000001504043    -0.000001603271
      25       -0.000001477596    -0.000000437025     0.000002218537

  **** Optimization is complete! (in 8 steps) ****
    Final optimized geometry and variables:
    Molecular point group: c1

    Geometry (in Angstrom), charge = 0, multiplicity = 1:

    H           -3.286870188423     1.515517069598     0.591465196817
    C           -3.325884353760     0.647913229885    -0.081243846485
    C           -2.310586612364     0.660846325893    -1.191719535819
    O           -4.132016658089    -0.199070370610     0.091944673167
    C           -0.884314702773     0.898031907150    -0.688151583943
    H           -2.390375923210    -0.267613265493    -1.742201080978
    H           -2.592888197067     1.471154989535    -1.860371931382
    C           -0.333152937046    -0.249567938584     0.156630862624
    H           -0.237909710292     1.055285087834    -1.545097679144
    H           -0.853275832886     1.820776507094    -0.113936586488
    C            1.110831413551    -0.012599913538     0.644739740389
    H           -0.378796049234    -1.164577599706    -0.425625590140
    H           -0.985323327206    -0.415560535059     1.008047146298
    C            2.085060207428    -1.101100570349     0.194320462461
    H            1.455386291157     0.951200817052     0.286566373687
    H            1.128309830433     0.048276664909     1.728255748081
    C            3.516967938410    -0.934452031431     0.704488756380
    H            2.094126797489    -1.144476673522    -0.892850969429
    H            1.708333064215    -2.062749466971     0.531371220317
    C            4.254909768790     0.283050279843     0.152604979854
    H            4.078094649177    -1.827019191178     0.445703973590
    H            3.506940119504    -0.888378808137     1.790309946752
    H            4.273387351115     0.268199539211    -0.932557600839
    H            3.794291647248     1.213169387755     0.462902433290
    H            5.281994729079     0.298631447407     0.498659424246

  Mulliken Charges: (a.u.)
   Center  Symbol    Alpha    Beta     Spin     Total
       1     H     0.46420  0.46420  0.00000  0.07159
       2     C     2.90474  2.90474  0.00000  0.19053
       3     C     3.08888  3.08888  0.00000 -0.17777
       4     O     4.16637  4.16637  0.00000 -0.33274
       5     C     3.11707  3.11707  0.00000 -0.23414
       6     H     0.44271  0.44271  0.00000  0.11458
       7     H     0.44062  0.44062  0.00000  0.11876
       8     C     3.09832  3.09832  0.00000 -0.19665
       9     H     0.44237  0.44237  0.00000  0.11527
      10     H     0.44833  0.44833  0.00000  0.10334
      11     C     3.09936  3.09936  0.00000 -0.19873
      12     H     0.44937  0.44937  0.00000  0.10126
      13     H     0.44192  0.44192  0.00000  0.11615
      14     C     3.09401  3.09401  0.00000 -0.18801
      15     H     0.45250  0.45250  0.00000  0.09499
      16     H     0.44785  0.44785  0.00000  0.10429
      17     C     3.09103  3.09103  0.00000 -0.18206
      18     H     0.45387  0.45387  0.00000  0.09225
      19     H     0.44674  0.44674  0.00000  0.10652
      20     C     3.15316  3.15316  0.00000 -0.30633
      21     H     0.44782  0.44782  0.00000  0.10436
      22     H     0.45418  0.45418  0.00000  0.09165
      23     H     0.45483  0.45483  0.00000  0.09035
      24     H     0.45418  0.45418  0.00000  0.09163
      25     H     0.44555  0.44555  0.00000  0.10890

   Total alpha = 36.00000, Total beta = 36.00000, Total charge = -0.00000

*** Psi4 exiting successfully. Buy a developer a beer!
