  ==> Input File <==

--------------------------------------------------------------------------
set {
	reference rhf
	basis cc-pvtz
}

set_num_threads( 4 )
memory 2 gb

molecule MOL {
0 1

H	 0.919047	 -1.769489	 0.848041
C	 0.243151	 -0.937284	 1.053097
N	 -0.537714	 -0.645117	 0.000000
O	 0.234270	 -0.381650	 2.105670
C	 -1.522613	 0.412524	 0.000000
H	 -0.423081	 -1.192133	 -0.817078
H	 -2.150256	 0.356137	 -0.880771
H	 -1.005621	 1.357208	 0.000000
H	 -2.150256	 0.356137	 0.880771

	symmetry c1
}
set optking {
	frozen_dihedral = ("
		6 3 5 7
	")
}

ee = optimize('scf')
oeprop('DIPOLE', 'QUADRUPOLE', 'MULLIKEN_CHARGES')
f=open( 'psi4out.xyz', 'w' )
f.write( "9  " )
f.write( str(ee) + "\n" )
f.write( MOL.save_string_xyz() )
f.close()
--------------------------------------------------------------------------

    Molecular point group: c1
  Charge       = 0
  Multiplicity = 1
  Basis Set: CC-PVTZ
  Basis Set:
  @DF-RHF Final Energy:  -208.04296024706440
    Total Energy =                       -208.0429602470643715
    Molecular point group: c1
  Basis Set: CC-PVTZ
  Basis Set:
  Basis Set: CC-PVTZ
  Basis Set:
  @DF-RHF Final Energy:  -208.04355383367002
    Total Energy =                       -208.0435538336698471
  Basis Set: CC-PVTZ
  Basis Set:
  Basis Set: CC-PVTZ
  Basis Set:
  @DF-RHF Final Energy:  -208.04364961753816
    Total Energy =                       -208.0436496175380512
  Basis Set: CC-PVTZ
  Basis Set:
  Basis Set: CC-PVTZ
  Basis Set:
  @DF-RHF Final Energy:  -208.04356685390053
    Total Energy =                       -208.0435668539004439
  Basis Set: CC-PVTZ
  Basis Set:
  Basis Set: CC-PVTZ
  Basis Set:
  @DF-RHF Final Energy:  -208.04366226934167
    Total Energy =                       -208.0436622693416098
  Basis Set: CC-PVTZ
  Basis Set:
  Basis Set: CC-PVTZ
  Basis Set:
  @DF-RHF Final Energy:  -208.04366609270309
    Total Energy =                       -208.0436660927029493
  Basis Set: CC-PVTZ
  Basis Set:
  Charge       = 0
  Multiplicity = 1
  Basis Set: CC-PVTZ
  Basis Set:

    Orbital Energies (a.u.)
    -----------------------

    Doubly Occupied:

       1A    -20.516617     2A    -15.584386     3A    -11.335965
       4A    -11.260527     5A     -1.393926     6A     -1.239334
       7A     -0.969778     8A     -0.809291     9A     -0.749161
      10A     -0.645797    11A     -0.629959    12A     -0.596121
      13A     -0.559587    14A     -0.536922    15A     -0.428239
      16A     -0.396759

  @DF-RHF Final Energy:  -208.04366941521198

   => Energetics <=

    Nuclear Repulsion Energy =            122.9402356099624143
    One-Electron Energy =                -526.6630737688767567
    Two-Electron Energy =                 195.6791687437022915
    DFT Exchange-Correlation Energy =       0.0000000000000000
    Empirical Dispersion Energy =           0.0000000000000000
    PCM Polarization Energy =               0.0000000000000000
    EFP Energy =                            0.0000000000000000
    Total Energy =                       -208.0436694152120367
    Molecular point group: c1
  Basis Set: CC-PVTZ
  Basis Set:

  -Total Gradient:
     Atom            X                  Y                   Z
    ------   -----------------  -----------------  -----------------
       1       -0.000014634432     0.000016992031     0.000016272865
       2       -0.000040274077    -0.000015423584    -0.000130626640
       3        0.000116079449    -0.000038485751    -0.000062920549
       4        0.000007066477     0.000043708880     0.000099760338
       5       -0.000091221513     0.000019905377     0.000076212298
       6       -0.000030686718    -0.000021944599     0.000014340974
       7        0.000044413118     0.000006134018    -0.000011776284
       8        0.000010081107    -0.000018716787    -0.000003000627
       9       -0.000000823412     0.000007830413     0.000001737624

  **** Optimization is complete! (in 7 steps) ****
    Final optimized geometry and variables:
    Molecular point group: c1

    Geometry (in Angstrom), charge = 0, multiplicity = 1:

    H            1.324302528574    -1.401806381710     0.084901574240
    C            0.650221499576    -0.562568124681     0.266132368046
    N           -0.148443553374    -0.299404321934    -0.779019756534
    O            0.644527199837     0.034080764877     1.296300969488
    C           -1.103323905205     0.786588475561    -0.764738593851
    H           -0.034223877289    -0.836475070601    -1.601630785424
    H           -1.701396336936     0.734667306105    -1.662933684224
    H           -0.607290688430     1.747842965030    -0.727756689283
    H           -1.752966563550     0.707541291981     0.094974771000

  Mulliken Charges: (a.u.)
   Center  Symbol    Alpha    Beta     Spin     Total
       1     H     0.46440  0.46440  0.00000  0.07120
       2     C     2.87950  2.87950  0.00000  0.24099
       3     N     3.60564  3.60564  0.00000 -0.21128
       4     O     4.21441  4.21441  0.00000 -0.42882
       5     C     3.07506  3.07506  0.00000 -0.15013
       6     H     0.41001  0.41001  0.00000  0.17997
       7     H     0.45456  0.45456  0.00000  0.09087
       8     H     0.45103  0.45103  0.00000  0.09795
       9     H     0.44538  0.44538  0.00000  0.10924

   Total alpha = 16.00000, Total beta = 16.00000, Total charge =  0.00000
