  ==> Input File <==

--------------------------------------------------------------------------
set {
	reference rhf
	basis cc-pvtz
}

set_num_threads( 4 )
memory 2 gb

molecule MOL {
0 1

H	 -1.406000	 -0.000000	 -1.169000
C	 -1.364000	 -0.000000	 -0.087000
C	 0.073000	 -0.000000	 0.353000
H	 -1.867000	 -0.883000	 0.288000
H	 -1.867000	 0.883000	 0.288000
F	 0.705000	 -1.083000	 -0.135000
F	 0.705000	 1.083000	 -0.135000
H	 0.200000	 0.000000	 1.425000

	symmetry c1
}
ee = optimize('scf')
oeprop('DIPOLE', 'QUADRUPOLE', 'MULLIKEN_CHARGES')
f=open( 'psi4out.xyz', 'w' )
f.write( "8  " )
f.write( str(ee) + "\n" )
f.write( MOL.save_string_xyz() )
f.close()
--------------------------------------------------------------------------

    Molecular point group: c1
  Charge       = 0
  Multiplicity = 1
  Basis Set: CC-PVTZ
  Basis Set:
  @DF-RHF Final Energy:  -277.05575929297004
    Total Energy =                       -277.0557592929701514
    Molecular point group: c1
  Basis Set: CC-PVTZ
  Basis Set:
  Basis Set: CC-PVTZ
  Basis Set:
  @DF-RHF Final Energy:  -277.05583330103389
    Total Energy =                       -277.0558333010340561
  Basis Set: CC-PVTZ
  Basis Set:
  Basis Set: CC-PVTZ
  Basis Set:
  @DF-RHF Final Energy:  -277.05584403274827
    Total Energy =                       -277.0558440327482685
  Basis Set: CC-PVTZ
  Basis Set:
  Charge       = 0
  Multiplicity = 1
  Basis Set: CC-PVTZ
  Basis Set:

    Orbital Energies (a.u.)
    -----------------------

    Doubly Occupied:

       1A    -26.300336     2A    -26.300318     3A    -11.394918
       4A    -11.234070     5A     -1.664383     6A     -1.596920
       7A     -1.049941     8A     -0.895772     9A     -0.781495
      10A     -0.759963    11A     -0.730247    12A     -0.663240
      13A     -0.625073    14A     -0.615714    15A     -0.570094
      16A     -0.562867    17A     -0.509012

  @DF-RHF Final Energy:  -277.05584470605373

   => Energetics <=

    Nuclear Repulsion Energy =            134.0459987908347443
    One-Electron Energy =                -649.6949654596712662
    Two-Electron Energy =                 238.5931219627827602
    DFT Exchange-Correlation Energy =       0.0000000000000000
    Empirical Dispersion Energy =           0.0000000000000000
    PCM Polarization Energy =               0.0000000000000000
    EFP Energy =                            0.0000000000000000
    Total Energy =                       -277.0558447060536764
    Molecular point group: c1
  Basis Set: CC-PVTZ
  Basis Set:

  -Total Gradient:
     Atom            X                  Y                   Z
    ------   -----------------  -----------------  -----------------
       1       -0.000000770523    -0.000010021325     0.000000000008
       2       -0.000013971344     0.000026160901     0.000000000003
       3        0.000055370544     0.000046185026     0.000000000066
       4       -0.000005064152     0.000009939798     0.000019014645
       5       -0.000005064166     0.000009939814    -0.000019014667
       6       -0.000037757555    -0.000027001579     0.000017072871
       7       -0.000037757529    -0.000027001615    -0.000017072929
       8        0.000045014727    -0.000028201019     0.000000000006

  **** Optimization is complete! (in 4 steps) ****
    Final optimized geometry and variables:
    Molecular point group: c1

    Geometry (in Angstrom), charge = 0, multiplicity = 1:

    H           -1.153456223734    -1.506249270920     0.000000000454
    C           -0.072602554477    -1.459785584866     0.000000000104
    C            0.366881083819    -0.024628050887     0.000000000118
    H            0.306582548714    -1.958995234340    -0.881562417898
    H            0.306582549177    -1.958995234408     0.881562417612
    F           -0.116812232259     0.610057070876    -1.076200569311
    F           -0.116812232738     0.610057070989     1.076200569143
    H            1.440397203822     0.098655787454     0.000000000358

  Mulliken Charges: (a.u.)
   Center  Symbol    Alpha    Beta     Spin     Total
       1     H     0.44673  0.44673  0.00000  0.10654
       2     C     3.13853  3.13853  0.00000 -0.27706
       3     C     2.77110  2.77110  0.00000  0.45779
       4     H     0.45186  0.45186  0.00000  0.09627
       5     H     0.45186  0.45186  0.00000  0.09627
       6     F     4.63208  4.63208  0.00000 -0.26416
       7     F     4.63208  4.63208  0.00000 -0.26416
       8     H     0.47575  0.47575  0.00000  0.04850

   Total alpha = 17.00000, Total beta = 17.00000, Total charge = -0.00000
