  ==> Input File <==

--------------------------------------------------------------------------
set {
	reference rhf
	basis 6-31G*
}

set_num_threads( 4 )
memory 2 gb

molecule MOL {
0 1

H	 3.250784	 1.133207	 1.388720
N	 2.412655	 0.584927	 1.366947
C	 1.865559	 0.531981	 0.018834
H	 1.763541	 1.023627	 1.992266
C	 0.645745	 -0.382037	 -0.029944
H	 2.636870	 0.135677	 -0.634527
H	 1.597310	 1.515755	 -0.374397
C	 -0.679275	 0.379305	 0.025956
H	 0.698998	 -0.976915	 -0.937203
H	 0.693479	 -1.083846	 0.802235
C	 -1.903357	 -0.536963	 -0.023547
H	 -0.726309	 1.082987	 -0.803784
H	 -0.717680	 0.977832	 0.934877
C	 -3.225172	 0.228290	 0.028445
H	 -1.867824	 -1.134999	 -0.931459
H	 -1.860449	 -1.239604	 0.805977
H	 -3.313397	 0.915643	 -0.808262
H	 -4.073500	 -0.448134	 -0.008893
H	 -3.306061	 0.809945	 0.942516

	symmetry c1
}
set optking {
	frozen_dihedral = ("
		6 3 5 9
	")
}

ee = optimize('scf')
oeprop('DIPOLE', 'QUADRUPOLE', 'MULLIKEN_CHARGES')
f=open( 'psi4out.xyz', 'w' )
f.write( "19  " )
f.write( str(ee) + "\n" )
f.write( MOL.save_string_xyz() )
f.close()
--------------------------------------------------------------------------

    Molecular point group: c1
  Charge       = 0
  Multiplicity = 1
  Basis Set: 6-31G*
  Basis Set:
  @DF-RHF Final Energy:  -251.34691204865209
    Total Energy =                       -251.3469120486522570
    Molecular point group: c1
  Basis Set: 6-31G*
  Basis Set:
  Basis Set: 6-31G*
  Basis Set:
  @DF-RHF Final Energy:  -251.34733758920751
    Total Energy =                       -251.3473375892075978
  Basis Set: 6-31G*
  Basis Set:
  Basis Set: 6-31G*
  Basis Set:
  @DF-RHF Final Energy:  -251.34745192381021
    Total Energy =                       -251.3474519238101834
  Basis Set: 6-31G*
  Basis Set:
  Charge       = 0
  Multiplicity = 1
  Basis Set: 6-31G*
  Basis Set:

    Orbital Energies (a.u.)
    -----------------------

    Doubly Occupied:

       1A    -15.532842     2A    -11.239725     3A    -11.214830
       4A    -11.214232     5A    -11.209180     6A    -11.208448
       7A     -1.176218     8A     -1.072661     9A     -0.997167
      10A     -0.903571    11A     -0.814764    12A     -0.786953
      13A     -0.666205    14A     -0.641086    15A     -0.616552
      16A     -0.586566    17A     -0.561768    18A     -0.549436
      19A     -0.532986    20A     -0.501035    21A     -0.485801
      22A     -0.465732    23A     -0.461533    24A     -0.444157
      25A     -0.380071

  @DF-RHF Final Energy:  -251.34745104128334

   => Energetics <=

    Nuclear Repulsion Energy =            247.5133390220562717
    One-Electron Energy =                -829.1945384071017315
    Two-Electron Energy =                 330.3337483437620676
    DFT Exchange-Correlation Energy =       0.0000000000000000
    Empirical Dispersion Energy =           0.0000000000000000
    PCM Polarization Energy =               0.0000000000000000
    EFP Energy =                            0.0000000000000000
    Total Energy =                       -251.3474510412834206
    Molecular point group: c1
  Basis Set: 6-31G*
  Basis Set:

  -Total Gradient:
     Atom            X                  Y                   Z
    ------   -----------------  -----------------  -----------------
       1        0.000030806394     0.000009156065    -0.000027073273
       2       -0.000003244701    -0.000063524134     0.000063751877
       3        0.002127004677    -0.003445696797     0.004402098851
       4       -0.000004133182     0.000008159832    -0.000042065280
       5       -0.002794509336     0.004151521300    -0.003151269844
       6       -0.001396559046     0.002251418410    -0.003074221146
       7        0.000011844189     0.000018280091    -0.000048148799
       8       -0.000005714223     0.000049639391    -0.000085322501
       9        0.001940818723    -0.002888103151     0.002019071179
      10        0.000031809357    -0.000051093560    -0.000010441609
      11        0.000053520013    -0.000020176595    -0.000025826224
      12        0.000037726605    -0.000036918546    -0.000044087145
      13       -0.000011766751     0.000027872248    -0.000035530762
      14       -0.000003057726     0.000000500927     0.000102085393
      15       -0.000019247335     0.000034355230    -0.000028119363
      16        0.000010443741    -0.000042097209    -0.000042918824
      17        0.000015377406    -0.000033036334     0.000001472982
      18       -0.000008554156     0.000000574576     0.000028282546
      19       -0.000012564651     0.000029168258    -0.000001738058

  **** Optimization is complete! (in 4 steps) ****
    Final optimized geometry and variables:
    Molecular point group: c1

    Geometry (in Angstrom), charge = 0, multiplicity = 1:

    H            3.333465915369     1.011048298737     1.190777963145
    N            2.516740496563     0.432062058541     1.145558009929
    C            2.017043335242     0.361286418309    -0.221252660005
    H            1.833938301975     0.854267432732     1.746238129774
    C            0.772980298069    -0.533903059894    -0.319441964415
    H            2.805576852538    -0.032526693055    -0.852998196999
    H            1.779329915019     1.345400556674    -0.634116604533
    C           -0.552439961354     0.227435614494    -0.256909572189
    H            0.819362385007    -1.129190491823    -1.228016162700
    H            0.821565862699    -1.251060876159     0.495751351024
    C           -1.775900922583    -0.690086281822    -0.269728128203
    H           -0.612306997094     0.918396500735    -1.096072233108
    H           -0.578132910655     0.841796627838     0.642892801014
    C           -3.097815868376     0.073339209893    -0.196022213704
    H           -1.759288375872    -1.296878119440    -1.172672405977
    H           -1.712748097849    -1.384747460953     0.564877135132
    H           -3.207655839296     0.749849013394    -1.038970557027
    H           -3.945309862921    -0.605103394842    -0.204298290405
    H           -3.158285707293     0.666308634713     0.712368884889

  Mulliken Charges: (a.u.)
   Center  Symbol    Alpha    Beta     Spin     Total
       1     H     0.33308  0.33308  0.00000  0.33384
       2     N     3.92016  3.92016  0.00000 -0.84031
       3     C     3.06422  3.06422  0.00000 -0.12844
       4     H     0.33494  0.33494  0.00000  0.33011
       5     C     3.16142  3.16142  0.00000 -0.32284
       6     H     0.41823  0.41823  0.00000  0.16353
       7     H     0.43406  0.43406  0.00000  0.13188
       8     C     3.15267  3.15267  0.00000 -0.30534
       9     H     0.42064  0.42064  0.00000  0.15871
      10     H     0.41033  0.41033  0.00000  0.17934
      11     C     3.15162  3.15162  0.00000 -0.30324
      12     H     0.42363  0.42363  0.00000  0.15275
      13     H     0.42806  0.42806  0.00000  0.14389
      14     C     3.23928  3.23928  0.00000 -0.47855
      15     H     0.42261  0.42261  0.00000  0.15479
      16     H     0.42165  0.42165  0.00000  0.15669
      17     H     0.42203  0.42203  0.00000  0.15594
      18     H     0.41910  0.41910  0.00000  0.16180
      19     H     0.42228  0.42228  0.00000  0.15545

   Total alpha = 25.00000, Total beta = 25.00000, Total charge =  0.00000
