                              Psi4 1.0.54 Driver

  ==> Input File <==

--------------------------------------------------------------------------
set {
	reference rhf
	basis cc-pvtz
}

set_num_threads( 4 )
memory 2 gb

molecule MOL {
0 1

H	 -0.741158	 4.142776	 -1.070430
O	 0.074691	 3.665373	 -1.084427
C	 -0.138708	 2.452197	 -0.582830
C	 1.118618	 1.625792	 -0.568118
O	 -1.203751	 2.107221	 -0.202508
C	 0.926581	 0.227233	 0.000178
H	 1.859989	 2.182678	 -0.004226
H	 1.489039	 1.590258	 -1.587550
C	 2.220156	 -0.582071	 -0.000088
H	 0.539530	 0.301524	 1.010182
H	 0.168118	 -0.291638	 -0.575085
C	 3.466689	 0.296012	 -0.000457
H	 2.239073	 -1.234095	 -0.869382
H	 2.239505	 -1.233985	 0.869270
H	 3.493549	 0.935857	 -0.875887
H	 4.368821	 -0.304526	 -0.001199
H	 3.494559	 0.935166	 0.875458

	symmetry c1
}
set optking {
	frozen_dihedral = ("
		10 6 9 13
	")
}

ee,wfn = optimize('scf', return_wfn=True)
oeprop( wfn, 'DIPOLE', 'QUADRUPOLE', 'MULLIKEN_CHARGES')
f=open( 'psi4out.xyz', 'w' )
f.write( "17  " )
f.write( str(ee) + "\n" )
f.write( MOL.save_string_xyz() )
f.close()
--------------------------------------------------------------------------

    Molecular point group: c1
  Charge       = 0
  Multiplicity = 1
  Basis Set: CC-PVTZ
  Basis Set:
  @DF-RHF Final Energy:  -345.03826768437960
    Total Energy =                       -345.0382676843793774
    Molecular point group: c1
  Basis Set: CC-PVTZ
  Basis Set:
  Basis Set: CC-PVTZ
  Basis Set:
  @DF-RHF Final Energy:  -345.03761746586474
    Total Energy =                       -345.0376174658645141
  Basis Set: CC-PVTZ
  Basis Set:
  Basis Set: CC-PVTZ
  Basis Set:
  @DF-RHF Final Energy:  -345.04197558184120
    Total Energy =                       -345.0419755818407452
  Basis Set: CC-PVTZ
  Basis Set:
  Basis Set: CC-PVTZ
  Basis Set:
  @DF-RHF Final Energy:  -345.04220609613213
    Total Energy =                       -345.0422060961322472
  Basis Set: CC-PVTZ
  Basis Set:
  Basis Set: CC-PVTZ
  Basis Set:
  @DF-RHF Final Energy:  -345.04062265118495
    Total Energy =                       -345.0406226511848899
  Basis Set: CC-PVTZ
  Basis Set:
  Basis Set: CC-PVTZ
  Basis Set:
  @DF-RHF Final Energy:  -345.04225844123766
    Total Energy =                       -345.0422584412376068
  Basis Set: CC-PVTZ
  Basis Set:
  Basis Set: CC-PVTZ
  Basis Set:
  @DF-RHF Final Energy:  -345.04227715412213
    Total Energy =                       -345.0422771541221891
  Basis Set: CC-PVTZ
  Basis Set:
  Charge       = 0
  Multiplicity = 1
  Basis Set: CC-PVTZ
  Basis Set:

    Orbital Energies (a.u.)
    -----------------------

    Doubly Occupied:

       1A    -20.603824     2A    -20.540556     3A    -11.373489
       4A    -11.239115     5A    -11.221183     6A    -11.220609
       7A    -11.213869     8A     -1.477551     9A     -1.369053
      10A     -1.090550    11A     -1.016513    12A     -0.922122
      13A     -0.834903    14A     -0.774460    15A     -0.703719
      16A     -0.693679    17A     -0.669013    18A     -0.626393
      19A     -0.606429    20A     -0.577182    21A     -0.563610
      22A     -0.552505    23A     -0.523544    24A     -0.484534
      25A     -0.477645    26A     -0.476924    27A     -0.460623
      28A     -0.447288

  @DF-RHF Final Energy:  -345.04227778101438

   => Energetics <=

    Nuclear Repulsion Energy =            308.4152610719513632
    One-Electron Energy =               -1081.3932993382941277
    Two-Electron Energy =                 427.9357604853285011
    DFT Exchange-Correlation Energy =       0.0000000000000000
    Empirical Dispersion Energy =           0.0000000000000000
    PCM Polarization Energy =               0.0000000000000000
    EFP Energy =                            0.0000000000000000
    Total Energy =                       -345.0422777810142634
    Molecular point group: c1
  Basis Set: CC-PVTZ
  Basis Set:

  -Total Gradient:
     Atom            X                  Y                   Z
    ------   -----------------  -----------------  -----------------
       1        0.000047531732    -0.000014046067    -0.000005517151
       2       -0.000123544319    -0.000031602871     0.000023244930
       3       -0.000062063504    -0.000050554604     0.000088837982
       4       -0.000048123857     0.000020973385     0.000024469400
       5        0.000171816685     0.000106765104    -0.000102405673
       6        0.003819587062     0.005178173344     0.002012023465
       7       -0.000024946459     0.000005816448    -0.000001955216
       8        0.000010561849    -0.000004952744     0.000000159015
       9        0.002858909794     0.004215827313    -0.004198762403
      10       -0.003629018889    -0.004985032998    -0.001002455946
      11        0.000014154827    -0.000021462512    -0.000003668719
      12       -0.000011450441    -0.000020621703    -0.000031817873
      13       -0.003021953057    -0.004390060085     0.003181095803
      14        0.000013196584    -0.000002190849     0.000001720214
      15        0.000018651321    -0.000027392639     0.000001570962
      16       -0.000016883626     0.000001635436     0.000012473399
      17       -0.000016425699     0.000018726044     0.000000987812

  **** Optimization is complete! (in 8 steps) ****
    Final optimized geometry and variables:
    Molecular point group: c1

    Geometry (in Angstrom), charge = 0, multiplicity = 1:

    H           -1.711480434682     2.708235118810    -0.751955114928
    O           -0.885662752608     2.248538458314    -0.769846669569
    C           -1.064285143999     1.042380544721    -0.237980109708
    C            0.212282375357     0.244975900309    -0.229384065318
    O           -2.115739722402     0.683905982600     0.166394730917
    C            0.046831211517    -1.143440144954     0.370736140846
    H            0.947029346653     0.836927632459     0.302999526553
    H            0.559747485298     0.195182574524    -1.256285973750
    C            1.298118170534    -2.041923810277     0.327471030590
    H           -0.326683013963    -1.074460542205     1.385161874987
    H           -0.748361374613    -1.647687573985    -0.165745180015
    C            2.650382601477    -1.345870855426     0.444444570838
    H            1.265947093033    -2.664743989695    -0.560843093345
    H            1.211944193805    -2.747802778240     1.147822196967
    H            2.851115253112    -0.693925406294    -0.397415654970
    H            3.447432012172    -2.078782187076     0.484421588652
    H            2.710662323610    -0.748660177829     1.348526635067

  Mulliken Charges: (a.u.)
   Center  Symbol    Alpha    Beta     Spin     Total
       1     H     0.38242  0.38242  0.00000  0.23515
       2     O     4.15968  4.15968  0.00000 -0.31936
       3     C     2.80778  2.80778  0.00000  0.38445
       4     C     3.11229  3.11229  0.00000 -0.22457
       5     O     4.19054  4.19054  0.00000 -0.38108
       6     C     3.09096  3.09096  0.00000 -0.18192
       7     H     0.43518  0.43518  0.00000  0.12964
       8     H     0.43653  0.43653  0.00000  0.12694
       9     C     3.09061  3.09061  0.00000 -0.18122
      10     H     0.44368  0.44368  0.00000  0.11264
      11     H     0.44369  0.44369  0.00000  0.11263
      12     C     3.15802  3.15802  0.00000 -0.31603
      13     H     0.45044  0.45044  0.00000  0.09911
      14     H     0.44936  0.44936  0.00000  0.10128
      15     H     0.45309  0.45309  0.00000  0.09382
      16     H     0.44323  0.44323  0.00000  0.11354
      17     H     0.45251  0.45251  0.00000  0.09498

   Total alpha = 28.00000, Total beta = 28.00000, Total charge = -0.00000

*** Psi4 exiting successfully. Buy a developer a beer!
