  ==> Input File <==

--------------------------------------------------------------------------
set {
	reference rhf
	basis cc-pvtz
}

set_num_threads( 4 )
memory 2 gb

molecule MOL {
0 1

H	 -2.442530	 -1.267411	 -0.514316
C	 -2.821951	 -0.375025	 -1.030621
C	 -2.653809	 0.914422	 -0.273689
O	 -3.325454	 -0.476974	 -2.095233
C	 -1.216901	 1.136108	 0.207794
H	 -2.994880	 1.728485	 -0.900033
H	 -3.314590	 0.856475	 0.588468
C	 -0.247837	 0.040196	 -0.230469
H	 -0.872882	 2.093195	 -0.169002
H	 -1.209325	 1.218376	 1.291938
C	 1.181757	 0.280428	 0.247371
H	 -0.259600	 -0.030819	 -1.314870
H	 -0.591284	 -0.923375	 0.136958
C	 2.151032	 -0.811012	 -0.202643
H	 1.515939	 1.247397	 -0.115449
H	 1.191514	 0.341223	 1.333422
C	 3.580021	 -0.656538	 0.320835
H	 2.170545	 -0.847575	 -1.289412
H	 1.766632	 -1.772905	 0.124928
C	 4.327657	 0.562694	 -0.213579
H	 4.138806	 -1.549270	 0.057813
H	 3.561991	 -0.620783	 1.406976
H	 4.355973	 0.557257	 -1.298551
H	 3.867136	 1.491650	 0.100501
H	 5.351524	 0.571613	 0.142204

	symmetry c1
}
set optking {
	frozen_dihedral = ("
		6 3 5 8
	")
}

ee = optimize('scf')
oeprop('DIPOLE', 'QUADRUPOLE', 'MULLIKEN_CHARGES')
f=open( 'psi4out.xyz', 'w' )
f.write( "25  " )
f.write( str(ee) + "\n" )
f.write( MOL.save_string_xyz() )
f.close()
--------------------------------------------------------------------------

    Molecular point group: c1
  Charge       = 0
  Multiplicity = 1
  Basis Set: CC-PVTZ
  Basis Set:
  @DF-RHF Final Energy:  -387.24881826198862
    Total Energy =                       -387.2488182619886175
    Molecular point group: c1
  Basis Set: CC-PVTZ
  Basis Set:
  Basis Set: CC-PVTZ
  Basis Set:
  @DF-RHF Final Energy:  -387.24930777954478
    Total Energy =                       -387.2493077795448926
  Basis Set: CC-PVTZ
  Basis Set:
  Basis Set: CC-PVTZ
  Basis Set:
  @DF-RHF Final Energy:  -387.25150734492087
    Total Energy =                       -387.2515073449209240
  Basis Set: CC-PVTZ
  Basis Set:
  Basis Set: CC-PVTZ
  Basis Set:
  @DF-RHF Final Energy:  -387.25131614462521
    Total Energy =                       -387.2513161446249796
  Basis Set: CC-PVTZ
  Basis Set:
  @DF-RHF Final Energy:  -387.25092160208339
    Total Energy =                       -387.2509216020836220
  @DF-RHF Final Energy:  -387.25199868796329
    Total Energy =                       -387.2519986879633507
  Basis Set: CC-PVTZ
  Basis Set:
  @DF-RHF Final Energy:  -387.25200431517976
    Total Energy =                       -387.2520043151795335
  Basis Set: CC-PVTZ
  Basis Set:
  Basis Set: CC-PVTZ
  Basis Set:
  @DF-RHF Final Energy:  -387.25203012018545
    Total Energy =                       -387.2520301201849406
  Basis Set: CC-PVTZ
  Basis Set:
  Basis Set: CC-PVTZ
  Basis Set:
  @DF-RHF Final Energy:  -387.25203227280190
    Total Energy =                       -387.2520322728020119
  Basis Set: CC-PVTZ
  Basis Set:
  Charge       = 0
  Multiplicity = 1
  Basis Set: CC-PVTZ
  Basis Set:

    Orbital Energies (a.u.)
    -----------------------

    Doubly Occupied:

       1A    -20.549853     2A    -11.319793     3A    -11.233352
       4A    -11.232799     5A    -11.224300     6A    -11.218708
       7A    -11.216950     8A    -11.216031     9A    -11.208982
      10A     -1.404752    11A     -1.103764    12A     -1.068229
      13A     -1.013748    14A     -0.944202    15A     -0.878167
      16A     -0.831544    17A     -0.783475    18A     -0.773655
      19A     -0.678409    20A     -0.655287    21A     -0.631503
      22A     -0.626138    23A     -0.611119    24A     -0.589836
      25A     -0.575709    26A     -0.555573    27A     -0.537811
      28A     -0.525023    29A     -0.507562    30A     -0.499005
      31A     -0.493032    32A     -0.472765    33A     -0.465881
      34A     -0.460661    35A     -0.444397    36A     -0.409593

  @DF-RHF Final Energy:  -387.25203316081581

   => Energetics <=

    Nuclear Repulsion Energy =            440.9303404972139333
    One-Electron Energy =               -1398.4415332895002848
    Two-Electron Energy =                 570.2591596314707658
    DFT Exchange-Correlation Energy =       0.0000000000000000
    Empirical Dispersion Energy =           0.0000000000000000
    PCM Polarization Energy =               0.0000000000000000
    EFP Energy =                            0.0000000000000000
    Total Energy =                       -387.2520331608155857
    Molecular point group: c1
  Basis Set: CC-PVTZ
  Basis Set:

  -Total Gradient:
     Atom            X                  Y                   Z
    ------   -----------------  -----------------  -----------------
       1        0.000011021867    -0.000004126678     0.000005576746
       2        0.000038461868     0.000005916968    -0.000001711935
       3        0.000111825298    -0.000302133877    -0.000280781943
       4       -0.000009629147     0.000010081538     0.000025163810
       5        0.000059142280     0.000264925859    -0.000290896772
       6       -0.000127242807     0.000184225747     0.000327924820
       7       -0.000015428524    -0.000014747317    -0.000021600975
       8       -0.000073885558    -0.000125042351     0.000238302088
       9        0.000037834773    -0.000001191167     0.000003391844
      10       -0.000017382831    -0.000001418147     0.000000904666
      11       -0.000019315782    -0.000014226755     0.000015967495
      12       -0.000020388840     0.000000496142    -0.000022142014
      13        0.000010061282     0.000008229548     0.000004510213
      14        0.000016702658     0.000008663570    -0.000014552248
      15       -0.000019963542    -0.000024490673    -0.000003447438
      16       -0.000002026621     0.000012537799     0.000009621898
      17       -0.000007202634     0.000007411561     0.000014751594
      18        0.000001969420     0.000000046911    -0.000001979179
      19        0.000006314707    -0.000002261260    -0.000002918086
      20        0.000007465989    -0.000004398000    -0.000004378906
      21        0.000002546568     0.000000215484     0.000002208284
      22       -0.000003931078     0.000001928435     0.000001169663
      23       -0.000002148689     0.000003899489    -0.000004744600
      24        0.000013779343    -0.000010496011     0.000003340170
      25        0.000001419996    -0.000004046816    -0.000003679197

  **** Optimization is complete! (in 10 steps) ****
    Final optimized geometry and variables:
    Molecular point group: c1

    Geometry (in Angstrom), charge = 0, multiplicity = 1:

    H           -2.942097919412    -1.357363387296    -0.191583912763
    C           -3.072745012317    -0.398269404197    -0.704454770848
    C           -2.784649602975     0.831044924762     0.115936202047
    O           -3.444630913437    -0.378070902369    -1.827269288096
    C           -1.321126451581     0.974642635510     0.618720350403
    H           -3.071035115214     1.686745181827    -0.478784861577
    H           -3.457204302747     0.789981955271     0.968229129537
    C           -0.338670105377    -0.114195412385     0.182246920070
    H           -0.944572036916     1.930216774602     0.274089083473
    H           -1.320377329155     1.026540099508     1.701209592708
    C            1.088432139479     0.175228826921     0.640595661370
    H           -0.352704159986    -0.209543566628    -0.900252323546
    H           -0.646449115659    -1.076811580521     0.580044567520
    C            2.079305725664    -0.909327150664     0.221941758953
    H            1.397005217293     1.135633174763     0.240539483496
    H            1.103885651203     0.275156315762     1.723646901176
    C            3.508495363761    -0.701894579034     0.726281572728
    H            2.090672641999    -0.985681099758    -0.862780897504
    H            1.721180166207    -1.867414952656     0.588649843049
    C            4.223105357004     0.512496836219     0.138374002616
    H            4.085657281898    -1.591112192435     0.492651448584
    H            3.498420331737    -0.624591888508     1.810375960423
    H            4.240745484791     0.466625643780    -0.945805536965
    H            3.745070837558     1.442286191237     0.422231743331
    H            5.249944832309     0.557320706517     0.482647999803

  Mulliken Charges: (a.u.)
   Center  Symbol    Alpha    Beta     Spin     Total
       1     H     0.46155  0.46155  0.00000  0.07690
       2     C     2.90562  2.90562  0.00000  0.18877
       3     C     3.08357  3.08357  0.00000 -0.16715
       4     O     4.16854  4.16854  0.00000 -0.33708
       5     C     3.10463  3.10463  0.00000 -0.20926
       6     H     0.44156  0.44156  0.00000  0.11687
       7     H     0.44799  0.44799  0.00000  0.10401
       8     C     3.10421  3.10421  0.00000 -0.20842
       9     H     0.44543  0.44543  0.00000  0.10914
      10     H     0.44723  0.44723  0.00000  0.10555
      11     C     3.09325  3.09325  0.00000 -0.18650
      12     H     0.44344  0.44344  0.00000  0.11313
      13     H     0.45102  0.45102  0.00000  0.09795
      14     C     3.09526  3.09526  0.00000 -0.19053
      15     H     0.45077  0.45077  0.00000  0.09845
      16     H     0.45406  0.45406  0.00000  0.09189
      17     C     3.09096  3.09096  0.00000 -0.18193
      18     H     0.45199  0.45199  0.00000  0.09602
      19     H     0.44952  0.44952  0.00000  0.10096
      20     C     3.15267  3.15267  0.00000 -0.30535
      21     H     0.44777  0.44777  0.00000  0.10446
      22     H     0.45484  0.45484  0.00000  0.09032
      23     H     0.45400  0.45400  0.00000  0.09201
      24     H     0.45416  0.45416  0.00000  0.09168
      25     H     0.44594  0.44594  0.00000  0.10811

   Total alpha = 36.00000, Total beta = 36.00000, Total charge = -0.00000
