  ==> Input File <==

--------------------------------------------------------------------------
set {
	reference rhf
	basis 6-31G*
}

set_num_threads( 1 )
memory 2 gb

molecule MOL {
0 1

H	 -1.340386	 1.226751	 0.504731
C	 -0.790252	 0.431209	 0.000000
N	 0.538815	 0.649616	 0.000000
O	 -1.343635	 -0.511007	 -0.484981
C	 1.521968	 -0.411503	 0.000000
H	 0.852804	 1.592852	 0.000000
H	 2.150599	 -0.357004	 -0.881901
H	 0.999455	 -1.354525	 0.000000
H	 2.150599	 -0.357004	 0.881901

	symmetry c1
}
set optking {
	frozen_dihedral = ("
		6 3 5 7
	")
}

ee = energy('scf')
oeprop('DIPOLE', 'QUADRUPOLE', 'MULLIKEN_CHARGES')
f=open( 'psi4out.xyz', 'w' )
f.write( "9  " )
f.write( str(ee) + "\n" )
f.write( MOL.save_string_xyz() )
f.close()
--------------------------------------------------------------------------

    Molecular point group: c1

    Geometry (in Angstrom), charge = 0, multiplicity = 1:

       Center              X                  Y                   Z               Mass
    ------------   -----------------  -----------------  -----------------  -----------------
           H         -1.335051468383     1.194287916836     0.627510531149     1.007825032070
           C         -0.784917468383     0.398745916836     0.122779531149    12.000000000000
           N          0.544149531617     0.617152916836     0.122779531149    14.003074004780
           O         -1.338300468383    -0.543470083164    -0.362201468851    15.994914619560
           C          1.527302531617    -0.443966083164     0.122779531149    12.000000000000
           H          0.858138531617     1.560388916836     0.122779531149     1.007825032070
           H          2.155933531617    -0.389467083164    -0.759121468851     1.007825032070
           H          1.004789531617    -1.386988083164     0.122779531149     1.007825032070
           H          2.155933531617    -0.389467083164     1.004680531149     1.007825032070

  Charge       = 0
  Multiplicity = 1
  Basis Set: 6-31G*
  Basis Set:

    Orbital Energies (a.u.)
    -----------------------

    Doubly Occupied:

       1A    -20.532001     2A    -15.583446     3A    -11.345077
       4A    -11.261599     5A     -1.391608     6A     -1.234555
       7A     -0.967089     8A     -0.808952     9A     -0.742836
      10A     -0.641800    11A     -0.632902    12A     -0.595183
      13A     -0.556326    14A     -0.529331    15A     -0.426836
      16A     -0.387338

  @DF-RHF Final Energy:  -207.95098829707717

   => Energetics <=

    Nuclear Repulsion Energy =            122.2112588176662058
    One-Electron Energy =                -525.0507784268201021
    Two-Electron Energy =                 194.8885313120766227
    DFT Exchange-Correlation Energy =       0.0000000000000000
    Empirical Dispersion Energy =           0.0000000000000000
    PCM Polarization Energy =               0.0000000000000000
    EFP Energy =                            0.0000000000000000
    Total Energy =                       -207.9509882970772878

  Mulliken Charges: (a.u.)
   Center  Symbol    Alpha    Beta     Spin     Total
       1     H     0.42833  0.42833  0.00000  0.14334
       2     C     2.74949  2.74949  0.00000  0.50102
       3     N     3.87815  3.87815  0.00000 -0.75631
       4     O     4.27300  4.27300  0.00000 -0.54599
       5     C     3.14102  3.14102  0.00000 -0.28203
       6     H     0.30955  0.30955  0.00000  0.38090
       7     H     0.41385  0.41385  0.00000  0.17230
       8     H     0.39155  0.39155  0.00000  0.21691
       9     H     0.41507  0.41507  0.00000  0.16986

   Total alpha = 16.00000, Total beta = 16.00000, Total charge = -0.00000
