  ==> Input File <==

--------------------------------------------------------------------------
set {
	reference rhf
	basis 6-31G*
}

set_num_threads( 4 )
memory 2 gb

molecule MOL {
0 1

H	 -2.181873	 0.271731	 2.562847
C	 -1.794065	 -0.672255	 2.940517
O	 -0.605228	 -1.023193	 2.308975
H	 -1.583967	 -0.567175	 3.995960
H	 -2.558656	 -1.436762	 2.808765
C	 -0.721695	 -1.201654	 0.932808
C	 0.644560	 -1.469825	 0.346602
H	 -1.377135	 -2.045882	 0.715156
H	 -1.146411	 -0.317181	 0.462353
O	 1.392611	 -0.295398	 0.366430
H	 1.135236	 -2.251079	 0.923565
H	 0.531216	 -1.828675	 -0.677152
C	 2.706965	 -0.449871	 -0.062409
H	 2.756559	 -0.644779	 -1.131878
H	 3.305899	 0.433456	 0.155466
H	 3.125548	 -1.294566	 0.467107

	symmetry c1
}
set optking {
	frozen_dihedral = ("
		7 10 13 14
	")
}

ee = optimize('scf')
oeprop('DIPOLE', 'QUADRUPOLE', 'MULLIKEN_CHARGES')
f=open( 'psi4out.xyz', 'w' )
f.write( "16  " )
f.write( str(ee) + "\n" )
f.write( MOL.save_string_xyz() )
f.close()
--------------------------------------------------------------------------

    Molecular point group: c1
  Charge       = 0
  Multiplicity = 1
  Basis Set: 6-31G*
  Basis Set:
  @DF-RHF Final Energy:  -306.97615557936041
    Total Energy =                       -306.9761555793604657
    Molecular point group: c1
  Basis Set: 6-31G*
  Basis Set:
  Basis Set: 6-31G*
  Basis Set:
  @DF-RHF Final Energy:  -306.97720346270614
    Total Energy =                       -306.9772034627062567
  Basis Set: 6-31G*
  Basis Set:
  Basis Set: 6-31G*
  Basis Set:
  @DF-RHF Final Energy:  -306.97748900119768
    Total Energy =                       -306.9774890011975685
  Basis Set: 6-31G*
  Basis Set:
  Charge       = 0
  Multiplicity = 1
  Basis Set: 6-31G*
  Basis Set:

    Orbital Energies (a.u.)
    -----------------------

    Doubly Occupied:

       1A    -20.553543     2A    -20.553377     3A    -11.269046
       4A    -11.268384     5A    -11.263527     6A    -11.263423
       7A     -1.388149     8A     -1.370495     9A     -1.030861
      10A     -0.936105    11A     -0.891903    12A     -0.823950
      13A     -0.683973    14A     -0.680433    15A     -0.656791
      16A     -0.635989    17A     -0.629686    18A     -0.596912
      19A     -0.551201    20A     -0.535308    21A     -0.508770
      22A     -0.477312    23A     -0.462536    24A     -0.419771
      25A     -0.410348

  @DF-RHF Final Energy:  -306.97749038333274

   => Energetics <=

    Nuclear Repulsion Energy =            258.8256496770808894
    One-Electron Energy =                -931.8826860902487397
    Two-Electron Energy =                 366.0795460298348303
    DFT Exchange-Correlation Energy =       0.0000000000000000
    Empirical Dispersion Energy =           0.0000000000000000
    PCM Polarization Energy =               0.0000000000000000
    EFP Energy =                            0.0000000000000000
    Total Energy =                       -306.9774903833330768
    Molecular point group: c1
  Basis Set: 6-31G*
  Basis Set:

  -Total Gradient:
     Atom            X                  Y                   Z
    ------   -----------------  -----------------  -----------------
       1        0.000002437807    -0.000000335421    -0.000002689605
       2        0.000005322322    -0.000001942481     0.000010138601
       3       -0.000010987118    -0.000013813303     0.000032960962
       4       -0.000002150561    -0.000000384749     0.000000075946
       5       -0.000002262744    -0.000000938774     0.000000443745
       6        0.000062316684     0.000130317678     0.000002067444
       7        0.000384781584    -0.000339875445     0.000991000082
       8        0.000065417185    -0.000002461385    -0.000016575281
       9       -0.000025688632     0.000009523086    -0.000019864811
      10       -0.000417486535     0.000791255955    -0.001653185286
      11        0.000035787219     0.000026986045     0.000015074521
      12       -0.000009394680    -0.000011709004     0.000001056703
      13        0.000002503443    -0.002052554425     0.000830874666
      14       -0.000015803213     0.001462510022    -0.000225777517
      15       -0.000059558761     0.000029683386     0.000016259903
      16       -0.000015234004    -0.000026261189     0.000018139926

  **** Optimization is complete! (in 4 steps) ****
    Final optimized geometry and variables:
    Molecular point group: c1

    Geometry (in Angstrom), charge = 0, multiplicity = 1:

    H           -2.447091190534     1.132186219661     1.422435820747
    C           -2.066824157114     0.183497451325     1.795981633470
    O           -0.880793700165    -0.174287269652     1.162897838512
    H           -1.856132823668     0.282204767121     2.851910698737
    H           -2.837284593572    -0.574349415867     1.660461292472
    C           -0.998608161431    -0.346011290182    -0.214092715628
    C            0.365318934749    -0.623078193380    -0.801588254749
    H           -1.660736005878    -1.184014130733    -0.435338265907
    H           -1.416428864014     0.543735247046    -0.680701409789
    O            1.123752076713     0.544504303241    -0.772963830886
    H            0.849449156403    -1.411076575768    -0.228727409467
    H            0.248392294961    -0.975970114228    -1.827145992104
    C            2.437982073528     0.385387169081    -1.201152323720
    H            2.488067483149     0.198380560569    -2.272844756223
    H            2.962137924435     1.307378338801    -0.989165648209
    H            2.934853476336    -0.428917135576    -0.678411375079

  Mulliken Charges: (a.u.)
   Center  Symbol    Alpha    Beta     Spin     Total
       1     H     0.42808  0.42808  0.00000  0.14384
       2     C     3.07949  3.07949  0.00000 -0.15898
       3     O     4.30090  4.30090  0.00000 -0.60180
       4     H     0.41129  0.41129  0.00000  0.17741
       5     H     0.43189  0.43189  0.00000  0.13623
       6     C     2.99338  2.99338  0.00000  0.01324
       7     C     2.99329  2.99329  0.00000  0.01341
       8     H     0.43229  0.43229  0.00000  0.13543
       9     H     0.42275  0.42275  0.00000  0.15449
      10     O     4.30115  4.30115  0.00000 -0.60229
      11     H     0.42251  0.42251  0.00000  0.15498
      12     H     0.43251  0.43251  0.00000  0.13499
      13     C     3.07924  3.07924  0.00000 -0.15848
      14     H     0.43086  0.43086  0.00000  0.13827
      15     H     0.41139  0.41139  0.00000  0.17722
      16     H     0.42898  0.42898  0.00000  0.14205

   Total alpha = 25.00000, Total beta = 25.00000, Total charge =  0.00000
