                              Psi4 1.0.54 Driver

  ==> Input File <==

--------------------------------------------------------------------------
set {
	reference rhf
	basis cc-pvtz
}

set_num_threads( 4 )
memory 2 gb

molecule MOL {
0 1

H	 -2.140266	 -1.147168	 0.403445
O	 -2.346257	 -0.289210	 0.080372
C	 -1.183935	 0.486039	 -0.009831
C	 0.062853	 -0.375310	 0.027457
H	 -1.178881	 1.094526	 -0.908634
H	 -1.184406	 1.155156	 0.838676
O	 1.172093	 0.457955	 -0.054438
H	 0.052476	 -1.081302	 -0.804627
H	 0.076323	 -0.955658	 0.947560
C	 2.395478	 -0.199028	 -0.000366
H	 2.505946	 -0.901710	 -0.823354
H	 3.174616	 0.545641	 -0.071768
H	 2.513730	 -0.742241	 0.934223

	symmetry c1
}
set optking {
	frozen_dihedral = ("
		1 2 3 5
	")
}

ee,wfn = optimize('scf', return_wfn=True)
oeprop( wfn, 'DIPOLE', 'QUADRUPOLE', 'MULLIKEN_CHARGES')
f=open( 'psi4out.xyz', 'w' )
f.write( "13  " )
f.write( str(ee) + "\n" )
f.write( MOL.save_string_xyz() )
f.close()
--------------------------------------------------------------------------

    Molecular point group: c1
  Charge       = 0
  Multiplicity = 1
  Basis Set: CC-PVTZ
  Basis Set:
  @DF-RHF Final Energy:  -268.05839368438399
    Total Energy =                       -268.0583936843838728
    Molecular point group: c1
  Basis Set: CC-PVTZ
  Basis Set:
  Basis Set: CC-PVTZ
  Basis Set:
  @DF-RHF Final Energy:  -268.05929636235362
    Total Energy =                       -268.0592963623538481
  Basis Set: CC-PVTZ
  Basis Set:
  Basis Set: CC-PVTZ
  Basis Set:
  @DF-RHF Final Energy:  -268.05948199585021
    Total Energy =                       -268.0594819958502057
  Basis Set: CC-PVTZ
  Basis Set:
  Basis Set: CC-PVTZ
  Basis Set:
  @DF-RHF Final Energy:  -268.05948457580405
    Total Energy =                       -268.0594845758040492
  Basis Set: CC-PVTZ
  Basis Set:
  Charge       = 0
  Multiplicity = 1
  Basis Set: CC-PVTZ
  Basis Set:

    Orbital Energies (a.u.)
    -----------------------

    Doubly Occupied:

       1A    -20.560954     2A    -20.550908     3A    -11.277432
       4A    -11.271438     5A    -11.267179     6A     -1.397072
       7A     -1.367649     8A     -1.022661     9A     -0.916378
      10A     -0.851564    11A     -0.699627    12A     -0.686981
      13A     -0.671795    14A     -0.628900    15A     -0.608352
      16A     -0.580665    17A     -0.546473    18A     -0.499689
      19A     -0.473609    20A     -0.443858    21A     -0.429609

  @DF-RHF Final Energy:  -268.05948485142005

   => Energetics <=

    Nuclear Repulsion Energy =            190.7085132172339570
    One-Electron Energy =                -744.0304144640915638
    Two-Electron Energy =                 285.2624163954375263
    DFT Exchange-Correlation Energy =       0.0000000000000000
    Empirical Dispersion Energy =           0.0000000000000000
    PCM Polarization Energy =               0.0000000000000000
    EFP Energy =                            0.0000000000000000
    Total Energy =                       -268.0594848514200521
    Molecular point group: c1
  Basis Set: CC-PVTZ
  Basis Set:

  -Total Gradient:
     Atom            X                  Y                   Z
    ------   -----------------  -----------------  -----------------
       1        0.000279359396    -0.000783795251    -0.002040546288
       2       -0.000126427109     0.000632845252     0.002319955924
       3       -0.000988347308     0.001603025048     0.000639698132
       4       -0.000006053022    -0.000014042771    -0.000008837956
       5        0.000870899036    -0.001419004842    -0.000902203739
       6       -0.000006081620    -0.000020021605    -0.000000815531
       7       -0.000012331086     0.000017070939    -0.000004582782
       8        0.000012607014    -0.000010040770    -0.000000715889
       9       -0.000007454757     0.000008564920    -0.000006134774
      10       -0.000013631887    -0.000009909442     0.000008228969
      11        0.000003759132    -0.000002531012    -0.000005649437
      12       -0.000012370598     0.000004019863    -0.000003390889
      13        0.000006072808    -0.000006180328     0.000004994259

  **** Optimization is complete! (in 5 steps) ****
    Final optimized geometry and variables:
    Molecular point group: c1

    Geometry (in Angstrom), charge = 0, multiplicity = 1:

    H           -2.123083239775    -1.177962874797     0.563311010985
    O           -2.341814653333    -0.335231140780     0.211147715329
    C           -1.196849502806     0.460457357076     0.061716154526
    C            0.072139382059    -0.367533937429     0.020864582404
    H           -1.286865781284     1.000365212924    -0.871218802390
    H           -1.128825264560     1.181045410396     0.868783842315
    O            1.151599061247     0.490725672443    -0.128807114848
    H            0.022257760768    -1.075646163040    -0.805881170264
    H            0.168262519089    -0.943893645209     0.943579787305
    C            2.389049439794    -0.139622106418    -0.196599159687
    H            2.443169141093    -0.817823058552    -1.044897470050
    H            3.142505326984     0.625155715234    -0.312842578569
    H            2.597893032304    -0.703018390912     0.709958124476

  Mulliken Charges: (a.u.)
   Center  Symbol    Alpha    Beta     Spin     Total
       1     H     0.39387  0.39387  0.00000  0.21226
       2     O     4.20346  4.20346  0.00000 -0.40692
       3     C     2.95237  2.95237  0.00000  0.09527
       4     C     2.97734  2.97734  0.00000  0.04532
       5     H     0.46234  0.46234  0.00000  0.07531
       6     H     0.46917  0.46917  0.00000  0.06165
       7     O     4.17180  4.17180  0.00000 -0.34360
       8     H     0.47040  0.47040  0.00000  0.05921
       9     H     0.48063  0.48063  0.00000  0.03875
      10     C     3.03336  3.03336  0.00000 -0.06672
      11     H     0.46994  0.46994  0.00000  0.06012
      12     H     0.44470  0.44470  0.00000  0.11059
      13     H     0.47062  0.47062  0.00000  0.05875

   Total alpha = 21.00000, Total beta = 21.00000, Total charge = -0.00000

*** Psi4 exiting successfully. Buy a developer a beer!
