  ==> Input File <==

--------------------------------------------------------------------------
set {
	reference rhf
	basis cc-pvtz
}

set_num_threads( 4 )
memory 2 gb

molecule MOL {
0 1

H	 -2.123894	 -0.667238	 -0.609809
O	 -2.041679	 -0.058866	 0.103463
C	 -0.959304	 0.780994	 -0.094939
C	 0.354905	 0.037902	 -0.006215
H	 -0.985899	 1.279578	 -1.057596
H	 -0.969809	 1.529522	 0.682889
F	 0.975590	 0.308135	 1.128472
F	 0.149051	 -1.261914	 -0.047449
F	 1.173145	 0.346527	 -0.983561

	symmetry c1
}
set optking {
	frozen_dihedral = ("
		7 4 3 5
	")
}

ee = optimize('scf')
oeprop('DIPOLE', 'QUADRUPOLE', 'MULLIKEN_CHARGES')
f=open( 'psi4out.xyz', 'w' )
f.write( "9  " )
f.write( str(ee) + "\n" )
f.write( MOL.save_string_xyz() )
f.close()
--------------------------------------------------------------------------

    Molecular point group: c1
  Charge       = 0
  Multiplicity = 1
  Basis Set: CC-PVTZ
  Basis Set:
  @DF-RHF Final Energy:  -450.83990114871381
    Total Energy =                       -450.8399011487137500
    Molecular point group: c1
  Basis Set: CC-PVTZ
  Basis Set:
  Basis Set: CC-PVTZ
  Basis Set:
  @DF-RHF Final Energy:  -450.84069354572148
    Total Energy =                       -450.8406935457214786
  Basis Set: CC-PVTZ
  Basis Set:
  Basis Set: CC-PVTZ
  Basis Set:
  @DF-RHF Final Energy:  -450.84124466539612
    Total Energy =                       -450.8412446653960046
  Basis Set: CC-PVTZ
  Basis Set:
  Basis Set: CC-PVTZ
  Basis Set:
  @DF-RHF Final Energy:  -450.84128973579391
    Total Energy =                       -450.8412897357940210
  Basis Set: CC-PVTZ
  Basis Set:
  Basis Set: CC-PVTZ
  Basis Set:
  @DF-RHF Final Energy:  -450.84129381379034
    Total Energy =                       -450.8412938137904007
  Basis Set: CC-PVTZ
  Basis Set:
  Charge       = 0
  Multiplicity = 1
  Basis Set: CC-PVTZ
  Basis Set:

    Orbital Energies (a.u.)
    -----------------------

    Doubly Occupied:

       1A    -26.341881     2A    -26.336224     3A    -26.336069
       4A    -20.583326     5A    -11.495880     6A    -11.309799
       7A     -1.748360     8A     -1.646476     9A     -1.640718
      10A     -1.406784    11A     -1.045956    12A     -0.930525
      13A     -0.836986    14A     -0.835569    15A     -0.814929
      16A     -0.729016    17A     -0.719787    18A     -0.704450
      19A     -0.672202    20A     -0.665467    21A     -0.648498
      22A     -0.631530    23A     -0.618372    24A     -0.529190
      25A     -0.484278

  @DF-RHF Final Energy:  -450.84129430721418

   => Energetics <=

    Nuclear Repulsion Energy =            276.6758955450018220
    One-Electron Energy =               -1175.6098365479242602
    Two-Electron Energy =                 448.0926466957083107
    DFT Exchange-Correlation Energy =       0.0000000000000000
    Empirical Dispersion Energy =           0.0000000000000000
    PCM Polarization Energy =               0.0000000000000000
    EFP Energy =                            0.0000000000000000
    Total Energy =                       -450.8412943072141275
    Molecular point group: c1
  Basis Set: CC-PVTZ
  Basis Set:

  -Total Gradient:
     Atom            X                  Y                   Z
    ------   -----------------  -----------------  -----------------
       1       -0.000029854206    -0.000001672407     0.000001171383
       2        0.000044873570    -0.000009266631    -0.000016419159
       3       -0.001729226671    -0.003474486364    -0.002725043409
       4       -0.002038036210    -0.003225346816     0.002532945685
       5        0.001906597230     0.003611437964     0.001854320128
       6        0.000002369322     0.000019553982    -0.000002730619
       7        0.001786098995     0.002920928153    -0.001589836665
       8       -0.000017941010     0.000110789647     0.000034562950
       9        0.000075118973     0.000048062473    -0.000088970292

  **** Optimization is complete! (in 6 steps) ****
    Final optimized geometry and variables:
    Molecular point group: c1

    Geometry (in Angstrom), charge = 0, multiplicity = 1:

    H           -2.140538897987    -0.690881825061    -0.556532542587
    O           -2.080058290764    -0.011542533644     0.091323997614
    C           -0.969643474638     0.781672233003    -0.125592122352
    C            0.357245297952     0.023858626169    -0.006041367971
    H           -0.975664483183     1.283433836688    -1.085734446704
    H           -0.969829968531     1.545459241406     0.636817622582
    F            0.969696423774     0.271917118408     1.131492615395
    F            0.198196487116    -1.276481331806    -0.105903002588
    F            1.186891280653     0.392065910652    -0.965995163409

  Mulliken Charges: (a.u.)
   Center  Symbol    Alpha    Beta     Spin     Total
       1     H     0.38682  0.38682  0.00000  0.22635
       2     O     4.18630  4.18630  0.00000 -0.37261
       3     C     3.00576  3.00576  0.00000 -0.01153
       4     C     2.67732  2.67732  0.00000  0.64536
       5     H     0.46162  0.46162  0.00000  0.07677
       6     H     0.44870  0.44870  0.00000  0.10261
       7     F     4.60939  4.60939  0.00000 -0.21877
       8     F     4.61076  4.61076  0.00000 -0.22151
       9     F     4.61334  4.61334  0.00000 -0.22668

   Total alpha = 25.00000, Total beta = 25.00000, Total charge =  0.00000
