  ==> Input File <==

--------------------------------------------------------------------------
set {
	reference rhf
	basis 6-31G*
}

set_num_threads( 1 )
memory 2 gb

molecule MOL {
0 1

H	 -2.289360	 -0.609896	 0.181051
O	 -1.422729	 -0.573567	 -0.196946
C	 -0.731407	 0.539437	 0.309156
C	 0.680193	 0.672443	 -0.251532
H	 -1.319765	 1.404033	 0.030086
H	 -0.700012	 0.506517	 1.397677
C	 1.599139	 -0.492137	 0.118598
H	 0.616402	 0.758534	 -1.332349
H	 1.107032	 1.602637	 0.117369
H	 1.239738	 -1.428634	 -0.297334
H	 2.601428	 -0.335055	 -0.265730
H	 1.674954	 -0.608418	 1.197020

	symmetry c1
}
set optking {
	frozen_dihedral = ("
		8 4 3 2
	")
}

ee = energy('scf')
oeprop('DIPOLE', 'QUADRUPOLE', 'MULLIKEN_CHARGES')
f=open( 'psi4out.xyz', 'w' )
f.write( "12  " )
f.write( str(ee) + "\n" )
f.write( MOL.save_string_xyz() )
f.close()
--------------------------------------------------------------------------

    Molecular point group: c1

    Geometry (in Angstrom), charge = 0, multiplicity = 1:

       Center              X                  Y                   Z               Mass
    ------------   -----------------  -----------------  -----------------  -----------------
           H         -2.268913245297    -0.622593343416     0.181044971861     1.007825032070
           O         -1.402282245297    -0.586264343416    -0.196952028139    15.994914619560
           C         -0.710960245297     0.526739656584     0.309149971861    12.000000000000
           C          0.700639754703     0.659745656584    -0.251538028139    12.000000000000
           H         -1.299318245297     1.391335656584     0.030079971861     1.007825032070
           H         -0.679565245297     0.493819656584     1.397670971861     1.007825032070
           C          1.619585754703    -0.504834343416     0.118591971861    12.000000000000
           H          0.636848754703     0.745836656584    -1.332355028139     1.007825032070
           H          1.127478754703     1.589939656584     0.117362971861     1.007825032070
           H          1.260184754703    -1.441331343416    -0.297340028139     1.007825032070
           H          2.621874754703    -0.347752343416    -0.265736028139     1.007825032070
           H          1.695400754703    -0.621115343416     1.197013971861     1.007825032070

  Charge       = 0
  Multiplicity = 1
  Basis Set: 6-31G*
  Basis Set:

    Orbital Energies (a.u.)
    -----------------------

    Doubly Occupied:

       1A    -20.550674     2A    -11.267804     3A    -11.218125
       4A    -11.205030     5A     -1.358448     6A     -1.046813
       7A     -0.918281     8A     -0.799704     9A     -0.701332
      10A     -0.643230    11A     -0.585553    12A     -0.583110
      13A     -0.535719    14A     -0.498590    15A     -0.484767
      16A     -0.462683    17A     -0.429836

  @DF-RHF Final Energy:  -193.10861531486336

   => Energetics <=

    Nuclear Repulsion Energy =            132.4378049387740361
    One-Electron Energy =                -524.5136566735711767
    Two-Electron Energy =                 198.9672364199335277
    DFT Exchange-Correlation Energy =       0.0000000000000000
    Empirical Dispersion Energy =           0.0000000000000000
    PCM Polarization Energy =               0.0000000000000000
    EFP Energy =                            0.0000000000000000
    Total Energy =                       -193.1086153148636129

  Mulliken Charges: (a.u.)
   Center  Symbol    Alpha    Beta     Spin     Total
       1     H     0.28010  0.28010  0.00000  0.43979
       2     O     4.37188  4.37188  0.00000 -0.74375
       3     C     2.99263  2.99263  0.00000  0.01474
       4     C     3.16084  3.16084  0.00000 -0.32168
       5     H     0.43067  0.43067  0.00000  0.13867
       6     H     0.43365  0.43365  0.00000  0.13269
       7     C     3.24182  3.24182  0.00000 -0.48363
       8     H     0.41441  0.41441  0.00000  0.17118
       9     H     0.42134  0.42134  0.00000  0.15732
      10     H     0.40802  0.40802  0.00000  0.18396
      11     H     0.42059  0.42059  0.00000  0.15882
      12     H     0.42405  0.42405  0.00000  0.15189

   Total alpha = 17.00000, Total beta = 17.00000, Total charge = -0.00000
