  ==> Input File <==

--------------------------------------------------------------------------
set {
	reference rhf
	basis cc-pvtz
}

set_num_threads( 4 )
memory 2 gb

molecule MOL {
0 1

H	 -3.162190	 0.493205	 -0.000107
C	 -2.363908	 -0.234727	 0.000005
O	 -1.158738	 0.454634	 -0.000087
H	 -2.464314	 -0.863616	 -0.882153
H	 -2.464327	 -0.863359	 0.882345
C	 -0.028611	 -0.359694	 0.000037
C	 1.212847	 0.509314	 -0.000053
H	 -0.034155	 -1.007047	 -0.877198
H	 -0.034195	 -1.006836	 0.877430
C	 1.873649	 0.580589	 -1.372136
H	 0.938485	 1.503645	 0.334546
H	 1.910532	 0.114980	 0.730486
H	 1.199918	 0.995629	 -2.114373
H	 2.756683	 1.207048	 -1.343515
H	 2.178727	 -0.402261	 -1.715651

	symmetry c1
}
set optking {
	frozen_dihedral = ("
		11 7 6 8
	")
}

ee = optimize('scf')
oeprop('DIPOLE', 'QUADRUPOLE', 'MULLIKEN_CHARGES')
f=open( 'psi4out.xyz', 'w' )
f.write( "15  " )
f.write( str(ee) + "\n" )
f.write( MOL.save_string_xyz() )
f.close()
--------------------------------------------------------------------------

    Molecular point group: c1
  Charge       = 0
  Multiplicity = 1
  Basis Set: CC-PVTZ
  Basis Set:
  @DF-RHF Final Energy:  -232.22320806908667
    Total Energy =                       -232.2232080690865814
    Molecular point group: c1
  Basis Set: CC-PVTZ
  Basis Set:
  Basis Set: CC-PVTZ
  Basis Set:
  @DF-RHF Final Energy:  -232.22370146009681
    Total Energy =                       -232.2237014600968905
  Basis Set: CC-PVTZ
  Basis Set:
  Basis Set: CC-PVTZ
  Basis Set:
  @DF-RHF Final Energy:  -232.22382507848786
    Total Energy =                       -232.2238250784877778
  Basis Set: CC-PVTZ
  Basis Set:
  Basis Set: CC-PVTZ
  Basis Set:
  @DF-RHF Final Energy:  -232.22382931479618
    Total Energy =                       -232.2238293147960349
  Basis Set: CC-PVTZ
  Basis Set:
  Charge       = 0
  Multiplicity = 1
  Basis Set: CC-PVTZ
  Basis Set:

    Orbital Energies (a.u.)
    -----------------------

    Doubly Occupied:

       1A    -20.547230     2A    -11.264813     3A    -11.261373
       4A    -11.212787     5A    -11.206561     6A     -1.380523
       7A     -1.054518     8A     -0.953336     9A     -0.880486
      10A     -0.806716    11A     -0.670927    12A     -0.661732
      13A     -0.632803    14A     -0.586615    15A     -0.579520
      16A     -0.546236    17A     -0.492001    18A     -0.486737
      19A     -0.483984    20A     -0.462093    21A     -0.414714

  @DF-RHF Final Energy:  -232.22382980466986

   => Energetics <=

    Nuclear Repulsion Energy =            191.3076729610550899
    One-Electron Energy =                -693.8915946492491003
    Two-Electron Energy =                 270.3600918835244329
    DFT Exchange-Correlation Energy =       0.0000000000000000
    Empirical Dispersion Energy =           0.0000000000000000
    PCM Polarization Energy =               0.0000000000000000
    EFP Energy =                            0.0000000000000000
    Total Energy =                       -232.2238298046695490
    Molecular point group: c1
  Basis Set: CC-PVTZ
  Basis Set:

  -Total Gradient:
     Atom            X                  Y                   Z
    ------   -----------------  -----------------  -----------------
       1        0.000004996663     0.000000121997     0.000003309826
       2       -0.000041151929    -0.000012325843    -0.000002550566
       3        0.000025626398    -0.000027391151     0.000003250022
       4       -0.000001067453     0.000002285315     0.000000530175
       5       -0.000005003350     0.000002510642    -0.000000264936
       6        0.002381327194    -0.003386373217     0.001819919493
       7        0.000523245952    -0.000518937213     0.004185554037
       8       -0.002045109664     0.002900885585    -0.002115760724
       9        0.000004310295     0.000018256215    -0.000004202107
      10       -0.000018571209    -0.000008969061    -0.000004608771
      11       -0.000811662695     0.001052853786    -0.003863738355
      12       -0.000027662240    -0.000025361361    -0.000022035903
      13        0.000002444957    -0.000014375046    -0.000001545923
      14        0.000002596966     0.000006321484     0.000001327478
      15        0.000005680114     0.000010497868     0.000000816255

  **** Optimization is complete! (in 5 steps) ****
    Final optimized geometry and variables:
    Molecular point group: c1

    Geometry (in Angstrom), charge = 0, multiplicity = 1:

    H           -3.025441073400     0.338267835353     0.225110146340
    C           -2.235886642819    -0.399073110429     0.246345178583
    O           -1.023250137481     0.275107963404     0.280282914088
    H           -2.320339155395    -1.026801498204    -0.638511787795
    H           -2.368622687018    -1.027293715920     1.125002396097
    C            0.098902428376    -0.558840556411     0.318151377045
    C            1.358287326854     0.305816030777     0.286172114718
    H            0.067877780236    -1.217276336383    -0.548673204956
    H            0.066064537250    -1.175420436128     1.213659760221
    C            1.975882773483     0.416092583675    -1.105909236580
    H            1.075696773427     1.297390967150     0.616362911978
    H            2.092748430437    -0.081593584073     0.982805850425
    H            1.254113546785     0.803644385393    -1.816370349975
    H            2.830152552060     1.083269748504    -1.102319554780
    H            2.312784285891    -0.550278658570    -1.466253715147

  Mulliken Charges: (a.u.)
   Center  Symbol    Alpha    Beta     Spin     Total
       1     H     0.44729  0.44729  0.00000  0.10542
       2     C     3.03047  3.03047  0.00000 -0.06094
       3     O     4.17469  4.17469  0.00000 -0.34938
       4     H     0.47278  0.47278  0.00000  0.05445
       5     H     0.47238  0.47238  0.00000  0.05524
       6     C     2.96501  2.96501  0.00000  0.06999
       7     C     3.08319  3.08319  0.00000 -0.16638
       8     H     0.47612  0.47612  0.00000  0.04776
       9     H     0.46858  0.46858  0.00000  0.06284
      10     C     3.15086  3.15086  0.00000 -0.30171
      11     H     0.44786  0.44786  0.00000  0.10427
      12     H     0.45277  0.45277  0.00000  0.09446
      13     H     0.45053  0.45053  0.00000  0.09893
      14     H     0.44989  0.44989  0.00000  0.10023
      15     H     0.45759  0.45759  0.00000  0.08481

   Total alpha = 21.00000, Total beta = 21.00000, Total charge = -0.00000
