  ==> Input File <==

--------------------------------------------------------------------------
set {
	reference rhf
	basis 6-31G*
}

set_num_threads( 4 )
memory 2 gb

molecule MOL {
0 1

H	 -3.650283	 0.221984	 0.000000
C	 -2.577024	 0.154109	 0.000000
C	 -1.960329	 -1.089307	 0.000000
C	 -1.811733	 1.307557	 0.000000
H	 -2.554473	 -1.985285	 0.000000
C	 -0.581547	 -1.175855	 0.000000
H	 -2.287118	 2.271701	 0.000000
C	 -0.428719	 1.219221	 0.000000
H	 -0.090826	 -2.129898	 0.000000
C	 0.198341	 -0.021559	 0.000000
H	 0.149947	 2.124040	 0.000000
C	 1.691355	 -0.173192	 0.000000
C	 2.555747	 1.048923	 -0.229789
O	 2.193361	 -1.243423	 0.178801
H	 2.343894	 1.497489	 -1.195028
H	 3.592713	 0.747251	 -0.195344
H	 2.374662	 1.800440	 0.531926

	symmetry c1
}
set optking {
	frozen_dihedral = ("
		13 12 10 8
	")
}

ee = optimize('scf')
oeprop('DIPOLE', 'QUADRUPOLE', 'MULLIKEN_CHARGES')
f=open( 'psi4out.xyz', 'w' )
f.write( "17  " )
f.write( str(ee) + "\n" )
f.write( MOL.save_string_xyz() )
f.close()
--------------------------------------------------------------------------

    Molecular point group: c1
  Charge       = 0
  Multiplicity = 1
  Basis Set: 6-31G*
  Basis Set:
  @DF-RHF Final Energy:  -382.47550161337904
    Total Energy =                       -382.4755016133790377
    Molecular point group: c1
  Basis Set: 6-31G*
  Basis Set:
  Basis Set: 6-31G*
  Basis Set:
  @DF-RHF Final Energy:  -382.47409964323549
    Total Energy =                       -382.4740996432360589
  Basis Set: 6-31G*
  Basis Set:
  Basis Set: 6-31G*
  Basis Set:
  @DF-RHF Final Energy:  -382.47557725521500
    Total Energy =                       -382.4755772552150574
  Basis Set: 6-31G*
  Basis Set:
  Basis Set: 6-31G*
  Basis Set:
  @DF-RHF Final Energy:  -382.47559913680209
    Total Energy =                       -382.4755991368020887
  Basis Set: 6-31G*
  Basis Set:
  Basis Set: 6-31G*
  Basis Set:
  @DF-RHF Final Energy:  -382.47560074870569
    Total Energy =                       -382.4756007487051193
  Basis Set: 6-31G*
  Basis Set:
  Charge       = 0
  Multiplicity = 1
  Basis Set: 6-31G*
  Basis Set:

    Orbital Energies (a.u.)
    -----------------------

    Doubly Occupied:

       1A    -20.550171     2A    -11.331686     3A    -11.248850
       4A    -11.246085     5A    -11.243026     6A    -11.240515
       7A    -11.240297     8A    -11.237923     9A    -11.229634
      10A     -1.396674    11A     -1.165603    12A     -1.049746
      13A     -1.026394    14A     -0.996194    15A     -0.861082
      16A     -0.834781    17A     -0.759630    18A     -0.709134
      19A     -0.654938    20A     -0.646593    21A     -0.625239
      22A     -0.607138    23A     -0.598341    24A     -0.596439
      25A     -0.553176    26A     -0.524657    27A     -0.517969
      28A     -0.500294    29A     -0.491193    30A     -0.410619
      31A     -0.345594    32A     -0.341367

  @DF-RHF Final Energy:  -382.47560110506998

   => Energetics <=

    Nuclear Repulsion Energy =            403.5530667248854684
    One-Electron Energy =               -1318.4953728782356848
    Two-Electron Energy =                 532.4667050482798913
    DFT Exchange-Correlation Energy =       0.0000000000000000
    Empirical Dispersion Energy =           0.0000000000000000
    PCM Polarization Energy =               0.0000000000000000
    EFP Energy =                            0.0000000000000000
    Total Energy =                       -382.4756011050703819
    Molecular point group: c1
  Basis Set: 6-31G*
  Basis Set:

  -Total Gradient:
     Atom            X                  Y                   Z
    ------   -----------------  -----------------  -----------------
       1        0.000000364642    -0.000001157095    -0.000002521279
       2        0.000003806036     0.000008566408     0.000014778597
       3        0.000006818031    -0.000002908456    -0.000001154217
       4       -0.000011876871    -0.000001197204    -0.000008740396
       5       -0.000001381687     0.000000951920     0.000000728930
       6       -0.000007939977     0.000003585504    -0.000015156133
       7       -0.000001101027    -0.000001190817    -0.000001324627
       8       -0.000007173872     0.000008520636     0.001042465747
       9        0.000001479297    -0.000000592153     0.000009574776
      10        0.000013700995    -0.000081472253    -0.001998994662
      11       -0.000007901178    -0.000006894283     0.000007311373
      12        0.000013124932     0.000217966555     0.001841286898
      13        0.000001763460    -0.000161244176    -0.000889961216
      14       -0.000006855108     0.000016434241     0.000007669729
      15        0.000002745839    -0.000006232948    -0.000001226358
      16        0.000002955735     0.000005221754    -0.000004541987
      17       -0.000002529253     0.000001642371    -0.000000195175

  **** Optimization is complete! (in 6 steps) ****
    Final optimized geometry and variables:
    Molecular point group: c1

    Geometry (in Angstrom), charge = 0, multiplicity = 1:

    H           -3.650070230843     0.222046617454     0.007528614057
    C           -2.576777784891     0.154273559939     0.005788323033
    C           -1.960065089459    -1.089050658270     0.014472440031
    C           -1.811382802122     1.307665554131    -0.003828636402
    H           -2.554276525250    -1.984933038609     0.023011552969
    C           -0.581183061546    -1.175524980606     0.015543836224
    H           -2.286712834646     2.271902772238    -0.006719698131
    C           -0.428405040942     1.219436443931    -0.009831372506
    H           -0.090700768052    -2.129700301098     0.030076914210
    C            0.198426394181    -0.021418371177    -0.002601175985
    H            0.150713941961     2.124009413258    -0.018524794845
    C            1.691435425420    -0.171712224550     0.012688100710
    C            2.555901285004     1.051884571177    -0.209295209447
    O            2.192221373791    -1.244274168904     0.180052802755
    H            2.296462625956     1.546686351874    -1.139371586365
    H            3.590200455543     0.740842962393    -0.240565579871
    H            2.425527775192     1.768877530998     0.595263011798

  Mulliken Charges: (a.u.)
   Center  Symbol    Alpha    Beta     Spin     Total
       1     H     0.39531  0.39531  0.00000  0.20939
       2     C     3.09223  3.09223  0.00000 -0.18447
       3     C     3.10399  3.10399  0.00000 -0.20799
       4     C     3.10430  3.10430  0.00000 -0.20861
       5     H     0.39519  0.39519  0.00000  0.20961
       6     C     3.08848  3.08848  0.00000 -0.17696
       7     H     0.39642  0.39642  0.00000  0.20716
       8     C     3.10298  3.10298  0.00000 -0.20596
       9     H     0.37641  0.37641  0.00000  0.24718
      10     C     3.05811  3.05811  0.00000 -0.11621
      11     H     0.39353  0.39353  0.00000  0.21295
      12     C     2.72617  2.72617  0.00000  0.54765
      13     C     3.29285  3.29285  0.00000 -0.58569
      14     O     4.26841  4.26841  0.00000 -0.53682
      15     H     0.40587  0.40587  0.00000  0.18826
      16     H     0.39330  0.39330  0.00000  0.21340
      17     H     0.40644  0.40644  0.00000  0.18712

   Total alpha = 32.00000, Total beta = 32.00000, Total charge =  0.00000
