                              Psi4 1.0.54 Driver

  ==> Input File <==

--------------------------------------------------------------------------
set {
	reference rhf
	basis cc-pvtz
}

set_num_threads( 4 )
memory 2 gb

molecule MOL {
0 1

O	 0.749630	 1.305591	 -0.000460
C	 0.576499	 0.134701	 -0.003900
C	 -0.765656	 -0.550508	 -0.002152
O	 1.564816	 -0.744612	 -0.000631
C	 -1.945526	 0.411052	 0.000603
H	 -0.794329	 -1.203792	 -0.868145
H	 -0.791555	 -1.205429	 0.862701
C	 -3.282915	 -0.321280	 0.002596
H	 -1.880300	 1.059126	 -0.864925
H	 -1.877207	 1.057892	 0.866807
H	 -3.388495	 -0.952755	 -0.873419
H	 -4.107811	 0.380864	 0.004116
H	 -3.385717	 -0.953283	 0.878571
C	 2.775781	 -0.362136	 -0.621345
H	 2.615793	 -0.144062	 -1.666764
H	 3.442741	 -1.201968	 -0.513931
H	 3.192636	 0.509427	 -0.139005

	symmetry c1
}
set optking {
	frozen_dihedral = ("
		14 4 2 1
	")
}

ee,wfn = optimize('scf', return_wfn=True)
oeprop( wfn, 'DIPOLE', 'QUADRUPOLE', 'MULLIKEN_CHARGES')
f=open( 'psi4out.xyz', 'w' )
f.write( "17  " )
f.write( str(ee) + "\n" )
f.write( MOL.save_string_xyz() )
f.close()
--------------------------------------------------------------------------

    Molecular point group: c1
  Charge       = 0
  Multiplicity = 1
  Basis Set: CC-PVTZ
  Basis Set:
  @DF-RHF Final Energy:  -345.03044289815244
    Total Energy =                       -345.0304428981525575
    Molecular point group: c1
  Basis Set: CC-PVTZ
  Basis Set:
  Basis Set: CC-PVTZ
  Basis Set:
  @DF-RHF Final Energy:  -344.84241573834424
    Total Energy =                       -344.8424157383437318
  Basis Set: CC-PVTZ
  Basis Set:
  Basis Set: CC-PVTZ
  Basis Set:
  @DF-RHF Final Energy:  -344.97047431068961
    Total Energy =                       -344.9704743106894966
  Basis Set: CC-PVTZ
  Basis Set:
  Basis Set: CC-PVTZ
  Basis Set:
  @DF-RHF Final Energy:  -345.02553719480045
    Total Energy =                       -345.0255371948003926
  Basis Set: CC-PVTZ
  Basis Set:
  @DF-RHF Final Energy:  -344.95275348087358
    Total Energy =                       -344.9527534808734117
  @DF-RHF Final Energy:  -345.02438924854397
    Total Energy =                       -345.0243892485437414
  @DF-RHF Final Energy:  -345.03047074291283
    Total Energy =                       -345.0304707429132804
  Basis Set: CC-PVTZ
  Basis Set:
  @DF-RHF Final Energy:  -345.03083936957677
    Total Energy =                       -345.0308393695765972
  Basis Set: CC-PVTZ
  Basis Set:
  Basis Set: CC-PVTZ
  Basis Set:
  @DF-RHF Final Energy:  -345.03088071999093
    Total Energy =                       -345.0308807199911598
  Basis Set: CC-PVTZ
  Basis Set:
  Basis Set: CC-PVTZ
  Basis Set:
  @DF-RHF Final Energy:  -345.03088861728008
    Total Energy =                       -345.0308886172797997
  Basis Set: CC-PVTZ
  Basis Set:
  Charge       = 0
  Multiplicity = 1
  Basis Set: CC-PVTZ
  Basis Set:

    Orbital Energies (a.u.)
    -----------------------

    Doubly Occupied:

       1A    -20.592343     2A    -20.536871     3A    -11.365790
       4A    -11.280722     5A    -11.234749     6A    -11.220370
       7A    -11.213018     8A     -1.469552     9A     -1.366989
      10A     -1.081766    11A     -1.000947    12A     -0.941846
      13A     -0.829103    14A     -0.768575    15A     -0.702123
      16A     -0.684130    17A     -0.676392    18A     -0.637248
      19A     -0.601140    20A     -0.576977    21A     -0.567998
      22A     -0.530201    23A     -0.524495    24A     -0.500129
      25A     -0.488367    26A     -0.479585    27A     -0.458974
      28A     -0.440063

  @DF-RHF Final Energy:  -345.03089019234784

   => Energetics <=

    Nuclear Repulsion Energy =            312.7459406199942009
    One-Electron Energy =               -1090.0127296820810443
    Two-Electron Energy =                 432.2358988697387758
    DFT Exchange-Correlation Energy =       0.0000000000000000
    Empirical Dispersion Energy =           0.0000000000000000
    PCM Polarization Energy =               0.0000000000000000
    EFP Energy =                            0.0000000000000000
    Total Energy =                       -345.0308901923481244
    Molecular point group: c1
  Basis Set: CC-PVTZ
  Basis Set:

  -Total Gradient:
     Atom            X                  Y                   Z
    ------   -----------------  -----------------  -----------------
       1       -0.003014050076     0.005162832682     0.006174775278
       2        0.004655287846    -0.010609938399    -0.010707829300
       3        0.000023347842     0.000079406403    -0.000073978641
       4       -0.002303745654     0.011426281934     0.007007290864
       5        0.000022995270    -0.000024432677     0.000078495124
       6       -0.000017444569     0.000041545200     0.000044002492
       7        0.000003194199     0.000009893398     0.000083610933
       8       -0.000006122889     0.000045188419    -0.000072150936
       9        0.000000387933     0.000017924103    -0.000067603293
      10        0.000028243346    -0.000010954661    -0.000014598564
      11       -0.000018958535     0.000003436159     0.000008775740
      12        0.000071953661    -0.000017150739     0.000024175251
      13       -0.000001219369    -0.000013853210     0.000040045556
      14        0.000633222326    -0.006127868327    -0.002467634868
      15       -0.000024048088    -0.000019511749    -0.000029566415
      16       -0.000045909866     0.000006760429    -0.000018675239
      17       -0.000007133373     0.000030441033    -0.000009133982

  **** Optimization is complete! (in 11 steps) ****
    Final optimized geometry and variables:
    Molecular point group: c1

    Geometry (in Angstrom), charge = 0, multiplicity = 1:

    O            0.270029018930     1.219264074485    -0.879897553455
    C            0.477805158496     0.363387540667    -0.091262162167
    C           -0.532716174687    -0.646367801172     0.385562116818
    O            1.636168985746     0.228910589167     0.546241713370
    C           -1.936757065350    -0.417449351316    -0.154785784518
    H           -0.159618500967    -1.626030743342     0.101067896836
    H           -0.517709265098    -0.630525644179     1.470207166838
    C           -2.923823955947    -1.465552970184     0.347008736497
    H           -1.908612412202    -0.423749956175    -1.237578585988
    H           -2.272076630733     0.572316618270     0.131786482930
    H           -2.627000600148    -2.464349421071     0.044029608614
    H           -3.915685013567    -1.282674023459    -0.048043197477
    H           -2.992867841061    -1.456842727998     1.429887145024
    C            2.801744882962     0.658808907156    -0.127998674029
    H            2.885303788542     0.164529924267    -1.086254876845
    H            3.632047150439     0.381835818111     0.500929784758
    H            2.791498946368     1.727566071962    -0.279557730988

  Mulliken Charges: (a.u.)
   Center  Symbol    Alpha    Beta     Spin     Total
       1     O     4.19091  4.19091  0.00000 -0.38183
       2     C     2.80455  2.80455  0.00000  0.39091
       3     C     3.09686  3.09686  0.00000 -0.19372
       4     O     4.15168  4.15168  0.00000 -0.30336
       5     C     3.07947  3.07947  0.00000 -0.15894
       6     H     0.44432  0.44432  0.00000  0.11135
       7     H     0.43885  0.43885  0.00000  0.12231
       8     C     3.15095  3.15095  0.00000 -0.30189
       9     H     0.44599  0.44599  0.00000  0.10803
      10     H     0.44722  0.44722  0.00000  0.10556
      11     H     0.45604  0.45604  0.00000  0.08792
      12     H     0.44553  0.44553  0.00000  0.10893
      13     H     0.45562  0.45562  0.00000  0.08876
      14     C     3.03706  3.03706  0.00000 -0.07413
      15     H     0.46104  0.46104  0.00000  0.07791
      16     H     0.44518  0.44518  0.00000  0.10963
      17     H     0.44871  0.44871  0.00000  0.10258

   Total alpha = 28.00000, Total beta = 28.00000, Total charge = -0.00000

*** Psi4 exiting successfully. Buy a developer a beer!
