  ==> Input File <==

--------------------------------------------------------------------------
set {
	reference rhf
	basis 6-31G*
}

set_num_threads( 1 )
memory 2 gb

molecule MOL {
0 1

O	 0.749854	 1.307668	 -0.000040
C	 0.576249	 0.131685	 -0.000108
C	 -0.766779	 -0.556801	 -0.000461
O	 1.568443	 -0.749345	 -0.000005
C	 -1.945214	 0.412366	 0.000161
H	 -0.796911	 -1.211249	 -0.867467
H	 -0.796854	 -1.212390	 0.865687
C	 -3.214258	 -0.228005	 0.560535
H	 -2.122327	 0.761263	 -1.011523
H	 -1.686077	 1.290590	 0.581664
H	 -3.512734	 -1.093206	 -0.024949
H	 -4.039517	 0.476463	 0.551825
H	 -3.072016	 -0.556974	 1.586216
C	 2.886820	 -0.232538	 0.000322
H	 3.059106	 0.369571	 -0.880203
H	 3.540187	 -1.091012	 0.000050
H	 3.059019	 0.368956	 0.881266

	symmetry c1
}
set optking {
	frozen_dihedral = ("
		1 2 3 6,
		14 4 2 1
	")
}

ee = energy('scf')
oeprop('DIPOLE', 'QUADRUPOLE', 'MULLIKEN_CHARGES')
f=open( 'psi4out.xyz', 'w' )
f.write( "17  " )
f.write( str(ee) + "\n" )
f.write( MOL.save_string_xyz() )
f.close()
--------------------------------------------------------------------------

    Molecular point group: c1

    Geometry (in Angstrom), charge = 0, multiplicity = 1:

       Center              X                  Y                   Z               Mass
    ------------   -----------------  -----------------  -----------------  -----------------
           O          0.739029618783     1.294559367958    -0.082537881787    15.994914619560
           C          0.565424618783     0.118576367958    -0.082605881787    12.000000000000
           C         -0.777603381217    -0.569909632042    -0.082958881787    12.000000000000
           O          1.557618618783    -0.762453632042    -0.082502881787    15.994914619560
           C         -1.956038381217     0.399257367958    -0.082336881787    12.000000000000
           H         -0.807735381217    -1.224357632042    -0.949964881787     1.007825032070
           H         -0.807678381217    -1.225498632042     0.783189118213     1.007825032070
           C         -3.225082381217    -0.241113632042     0.478037118213    12.000000000000
           H         -2.133151381217     0.748154367958    -1.094020881787     1.007825032070
           H         -1.696901381217     1.277481367958     0.499166118213     1.007825032070
           H         -3.523558381217    -1.106314632042    -0.107446881787     1.007825032070
           H         -4.050341381217     0.463354367958     0.469327118213     1.007825032070
           H         -3.082840381217    -0.570082632042     1.503718118213     1.007825032070
           C          2.875995618783    -0.245646632042    -0.082175881787    12.000000000000
           H          3.048281618783     0.356462367958    -0.962700881787     1.007825032070
           H          3.529362618783    -1.104120632042    -0.082447881787     1.007825032070
           H          3.048194618783     0.355847367958     0.798768118213     1.007825032070

  Charge       = 0
  Multiplicity = 1
  Basis Set: 6-31G*
  Basis Set:

    Orbital Energies (a.u.)
    -----------------------

    Doubly Occupied:

       1A    -20.604251     2A    -20.546133     3A    -11.372914
       4A    -11.281242     5A    -11.235544     6A    -11.220479
       7A    -11.214077     8A     -1.469980     9A     -1.363565
      10A     -1.080281    11A     -1.001312    12A     -0.939562
      13A     -0.827308    14A     -0.767224    15A     -0.701475
      16A     -0.683208    17A     -0.672696    18A     -0.635343
      19A     -0.596760    20A     -0.573751    21A     -0.568970
      22A     -0.528447    23A     -0.523017    24A     -0.494909
      25A     -0.487295    26A     -0.476943    27A     -0.456790
      28A     -0.439019

  @DF-RHF Final Energy:  -344.90512840231588

   => Energetics <=

    Nuclear Repulsion Energy =            312.7854448308445399
    One-Electron Energy =               -1089.8562355852761812
    Two-Electron Energy =                 432.1656623521155325
    DFT Exchange-Correlation Energy =       0.0000000000000000
    Empirical Dispersion Energy =           0.0000000000000000
    PCM Polarization Energy =               0.0000000000000000
    EFP Energy =                            0.0000000000000000
    Total Energy =                       -344.9051284023161088

  Mulliken Charges: (a.u.)
   Center  Symbol    Alpha    Beta     Spin     Total
       1     O     4.28524  4.28524  0.00000 -0.57049
       2     C     2.60843  2.60843  0.00000  0.78315
       3     C     3.20712  3.20712  0.00000 -0.41425
       4     O     4.30631  4.30631  0.00000 -0.61262
       5     C     3.15500  3.15500  0.00000 -0.31000
       6     H     0.39940  0.39940  0.00000  0.20120
       7     H     0.40050  0.40050  0.00000  0.19900
       8     C     3.24322  3.24322  0.00000 -0.48644
       9     H     0.41529  0.41529  0.00000  0.16942
      10     H     0.40232  0.40232  0.00000  0.19536
      11     H     0.42190  0.42190  0.00000  0.15620
      12     H     0.41577  0.41577  0.00000  0.16847
      13     H     0.42074  0.42074  0.00000  0.15851
      14     C     3.09242  3.09242  0.00000 -0.18484
      15     H     0.40897  0.40897  0.00000  0.18206
      16     H     0.40836  0.40836  0.00000  0.18329
      17     H     0.40902  0.40902  0.00000  0.18196

   Total alpha = 28.00000, Total beta = 28.00000, Total charge =  0.00000
