  ==> Input File <==

--------------------------------------------------------------------------
set {
	reference rhf
	basis 6-31G*
}

set_num_threads( 1 )
memory 2 gb

molecule MOL {
0 1

O	 2.927261	 0.566575	 -1.272901
C	 2.527381	 -0.175757	 -0.434988
C	 1.245376	 -0.013843	 0.345420
O	 3.176730	 -1.273685	 -0.068205
C	 0.455112	 1.231400	 -0.050772
H	 0.669960	 -0.922795	 0.204368
H	 1.509678	 0.009567	 1.399598
C	 -0.998893	 1.219485	 0.433193
H	 0.482531	 1.345121	 -1.130325
H	 0.957290	 2.103070	 0.354729
C	 -1.883438	 0.145884	 -0.207175
H	 -1.431207	 2.195402	 0.224832
H	 -1.019646	 1.105716	 1.516076
C	 -3.347647	 0.245583	 0.225435
H	 -1.822183	 0.231698	 -1.291012
H	 -1.510341	 -0.844814	 0.042401
C	 -4.239992	 -0.825570	 -0.404234
H	 -3.732888	 1.230466	 -0.033079
H	 -3.408585	 0.170602	 1.310038
C	 -5.701275	 -0.716658	 0.029921
H	 -4.179496	 -0.752714	 -1.488058
H	 -3.859041	 -1.810759	 -0.143352
H	 -6.308102	 -1.488908	 -0.432678
H	 -6.122175	 0.245478	 -0.248167
H	 -5.799072	 -0.820114	 1.106957
C	 4.401929	 -1.544913	 -0.724108
H	 4.245830	 -1.665087	 -1.786509
H	 4.769958	 -2.463380	 -0.294015
H	 5.107870	 -0.744072	 -0.557263

	symmetry c1
}
set optking {
	frozen_dihedral = ("
		21 17 14 11,
		17 14 11 15,
		15 11 8 5,
		11 8 5 9,
		2 4 26 27,
		1 2 4 26,
		6 3 2 1
	")
}

ee = energy('scf')
oeprop('DIPOLE', 'QUADRUPOLE', 'MULLIKEN_CHARGES')
f=open( 'psi4out.xyz', 'w' )
f.write( "29  " )
f.write( str(ee) + "\n" )
f.write( MOL.save_string_xyz() )
f.close()
--------------------------------------------------------------------------

    Molecular point group: c1

    Geometry (in Angstrom), charge = 0, multiplicity = 1:

       Center              X                  Y                   Z               Mass
    ------------   -----------------  -----------------  -----------------  -----------------
           O          3.018843557476     0.689390232053    -1.069564261299    15.994914619560
           C          2.618963557476    -0.052941767947    -0.231651261299    12.000000000000
           C          1.336958557476     0.108972232053     0.548756738701    12.000000000000
           O          3.268312557476    -1.150869767947     0.135131738701    15.994914619560
           C          0.546694557476     1.354215232053     0.152564738701    12.000000000000
           H          0.761542557476    -0.799979767947     0.407704738701     1.007825032070
           H          1.601260557476     0.132382232053     1.602934738701     1.007825032070
           C         -0.907310442524     1.342300232053     0.636529738701    12.000000000000
           H          0.574113557476     1.467936232053    -0.926988261299     1.007825032070
           H          1.048872557476     2.225885232053     0.558065738701     1.007825032070
           C         -1.791855442524     0.268699232053    -0.003838261299    12.000000000000
           H         -1.339624442524     2.318217232053     0.428168738701     1.007825032070
           H         -0.928063442524     1.228531232053     1.719412738701     1.007825032070
           C         -3.256064442524     0.368398232053     0.428771738701    12.000000000000
           H         -1.730600442524     0.354513232053    -1.087675261299     1.007825032070
           H         -1.418758442524    -0.721998767947     0.245737738701     1.007825032070
           C         -4.148409442524    -0.702754767947    -0.200897261299    12.000000000000
           H         -3.641305442524     1.353281232053     0.170257738701     1.007825032070
           H         -3.317002442524     0.293417232053     1.513374738701     1.007825032070
           C         -5.609692442524    -0.593842767947     0.233257738701    12.000000000000
           H         -4.087913442524    -0.629898767947    -1.284721261299     1.007825032070
           H         -3.767458442524    -1.687943767947     0.059984738701     1.007825032070
           H         -6.216519442524    -1.366092767947    -0.229341261299     1.007825032070
           H         -6.030592442524     0.368293232053    -0.044830261299     1.007825032070
           H         -5.707489442524    -0.697298767947     1.310293738701     1.007825032070
           C          4.493511557476    -1.422097767947    -0.520771261299    12.000000000000
           H          4.337412557476    -1.542271767947    -1.583172261299     1.007825032070
           H          4.861540557476    -2.340564767947    -0.090678261299     1.007825032070
           H          5.199452557476    -0.621256767947    -0.353926261299     1.007825032070

  Charge       = 0
  Multiplicity = 1
  Basis Set: 6-31G*
  Basis Set:

    Orbital Energies (a.u.)
    -----------------------

    Doubly Occupied:

       1A    -20.603356     2A    -20.545173     3A    -11.371969
       4A    -11.280625     5A    -11.234219     6A    -11.218415
       7A    -11.217400     8A    -11.215811     9A    -11.215654
      10A    -11.214337    11A    -11.208902    12A     -1.469048
      13A     -1.362541    14A     -1.097960    15A     -1.066567
      16A     -1.019245    17A     -0.977141    18A     -0.928425
      19A     -0.861744    20A     -0.799034    21A     -0.790131
      22A     -0.763537    23A     -0.701278    24A     -0.682132
      25A     -0.672278    26A     -0.649814    27A     -0.629169
      28A     -0.605880    29A     -0.594757    30A     -0.580433
      31A     -0.566670    32A     -0.548350    33A     -0.534173
      34A     -0.530092    35A     -0.516911    36A     -0.509086
      37A     -0.494925    38A     -0.477890    39A     -0.469404
      40A     -0.461738    41A     -0.458941    42A     -0.455975
      43A     -0.441554    44A     -0.435183

  @DF-RHF Final Energy:  -501.04285914957472

   => Energetics <=

    Nuclear Repulsion Energy =            612.4950885024588842
    One-Electron Energy =               -1896.1202187273859181
    Two-Electron Energy =                 782.5822710753507181
    DFT Exchange-Correlation Energy =       0.0000000000000000
    Empirical Dispersion Energy =           0.0000000000000000
    PCM Polarization Energy =               0.0000000000000000
    EFP Energy =                            0.0000000000000000
    Total Energy =                       -501.0428591495763158

  Mulliken Charges: (a.u.)
   Center  Symbol    Alpha    Beta     Spin     Total
       1     O     4.28569  4.28569  0.00000 -0.57138
       2     C     2.60609  2.60609  0.00000  0.78782
       3     C     3.21023  3.21023  0.00000 -0.42046
       4     O     4.30717  4.30717  0.00000 -0.61433
       5     C     3.15551  3.15551  0.00000 -0.31102
       6     H     0.39862  0.39862  0.00000  0.20276
       7     H     0.40009  0.40009  0.00000  0.19981
       8     C     3.15661  3.15661  0.00000 -0.31322
       9     H     0.40641  0.40641  0.00000  0.18718
      10     H     0.41358  0.41358  0.00000  0.17284
      11     C     3.15503  3.15503  0.00000 -0.31005
      12     H     0.41833  0.41833  0.00000  0.16333
      13     H     0.42446  0.42446  0.00000  0.15108
      14     C     3.15013  3.15013  0.00000 -0.30026
      15     H     0.42177  0.42177  0.00000  0.15646
      16     H     0.42430  0.42430  0.00000  0.15141
      17     C     3.15152  3.15152  0.00000 -0.30304
      18     H     0.42327  0.42327  0.00000  0.15346
      19     H     0.42402  0.42402  0.00000  0.15196
      20     C     3.23936  3.23936  0.00000 -0.47871
      21     H     0.42259  0.42259  0.00000  0.15481
      22     H     0.42346  0.42346  0.00000  0.15309
      23     H     0.41922  0.41922  0.00000  0.16157
      24     H     0.42154  0.42154  0.00000  0.15692
      25     H     0.42189  0.42189  0.00000  0.15623
      26     C     3.09235  3.09235  0.00000 -0.18470
      27     H     0.40911  0.40911  0.00000  0.18177
      28     H     0.40854  0.40854  0.00000  0.18291
      29     H     0.40911  0.40911  0.00000  0.18177

   Total alpha = 44.00000, Total beta = 44.00000, Total charge =  0.00000
