  ==> Input File <==

--------------------------------------------------------------------------
set {
	reference rhf
	basis cc-pvtz
}

set_num_threads( 4 )
memory 2 gb

molecule MOL {
0 1

H	 -2.171709	 0.882708	 0.500286
C	 -2.016894	 0.001719	 -0.114152
O	 -0.775228	 0.000056	 -0.739966
H	 -2.760846	 0.003757	 -0.898169
H	 -2.174774	 -0.879864	 0.498643
C	 0.222021	 0.915098	 -0.330732
C	 1.405624	 0.599272	 -1.238597
C	 -0.231204	 2.359707	 -0.550582
C	 0.612674	 0.688655	 1.131017
H	 1.126615	 0.733797	 -2.275979
H	 1.715318	 -0.429337	 -1.103848
H	 2.246761	 1.246063	 -1.019236
H	 -0.568374	 2.496793	 -1.570971
H	 0.591926	 3.040483	 -0.369225
H	 -1.036804	 2.640015	 0.116500
H	 0.869660	 -0.350959	 1.294880
H	 1.472675	 1.296500	 1.385572
H	 -0.185809	 0.955167	 1.812166

	symmetry c1
}
set optking {
	frozen_dihedral = ("
		6 3 2 5
	")
}

ee = optimize('scf')
oeprop('DIPOLE', 'QUADRUPOLE', 'MULLIKEN_CHARGES')
f=open( 'psi4out.xyz', 'w' )
f.write( "18  " )
f.write( str(ee) + "\n" )
f.write( MOL.save_string_xyz() )
f.close()
--------------------------------------------------------------------------

    Molecular point group: c1
  Charge       = 0
  Multiplicity = 1
  Basis Set: CC-PVTZ
  Basis Set:
  @DF-RHF Final Energy:  -271.27412283414856
    Total Energy =                       -271.2741228341486703
    Molecular point group: c1
  Basis Set: CC-PVTZ
  Basis Set:
  Basis Set: CC-PVTZ
  Basis Set:
  @DF-RHF Final Energy:  -271.27374822481255
    Total Energy =                       -271.2737482248130618
  Basis Set: CC-PVTZ
  Basis Set:
  Basis Set: CC-PVTZ
  Basis Set:
  @DF-RHF Final Energy:  -271.27435474585531
    Total Energy =                       -271.2743547458550211
  Basis Set: CC-PVTZ
  Basis Set:
  Basis Set: CC-PVTZ
  Basis Set:
  @DF-RHF Final Energy:  -271.27464193291252
    Total Energy =                       -271.2746419329127434
  Basis Set: CC-PVTZ
  Basis Set:
  Basis Set: CC-PVTZ
  Basis Set:
  @DF-RHF Final Energy:  -271.27462842057759
    Total Energy =                       -271.2746284205777556
  Basis Set: CC-PVTZ
  Basis Set:
  Basis Set: CC-PVTZ
  Basis Set:
  @DF-RHF Final Energy:  -271.27464769493486
    Total Energy =                       -271.2746476949348562
  Basis Set: CC-PVTZ
  Basis Set:
  Charge       = 0
  Multiplicity = 1
  Basis Set: CC-PVTZ
  Basis Set:

    Orbital Energies (a.u.)
    -----------------------

    Doubly Occupied:

       1A    -20.538282     2A    -11.280766     3A    -11.258441
       4A    -11.207298     5A    -11.206826     6A    -11.201789
       7A     -1.371322     8A     -1.074152     9A     -0.946520
      10A     -0.940948    11A     -0.913520    12A     -0.753796
      13A     -0.656453    14A     -0.645543    15A     -0.640539
      16A     -0.590739    17A     -0.572256    18A     -0.552582
      19A     -0.538755    20A     -0.524817    21A     -0.515374
      22A     -0.491531    23A     -0.488191    24A     -0.439721
      25A     -0.404167

  @DF-RHF Final Energy:  -271.27464780522541

   => Energetics <=

    Nuclear Repulsion Energy =            272.4945994620591136
    One-Electron Energy =                -908.0298357796465325
    Two-Electron Energy =                 364.2605885123620055
    DFT Exchange-Correlation Energy =       0.0000000000000000
    Empirical Dispersion Energy =           0.0000000000000000
    PCM Polarization Energy =               0.0000000000000000
    EFP Energy =                            0.0000000000000000
    Total Energy =                       -271.2746478052254133
    Molecular point group: c1
  Basis Set: CC-PVTZ
  Basis Set:

  -Total Gradient:
     Atom            X                  Y                   Z
    ------   -----------------  -----------------  -----------------
       1       -0.000021802472    -0.000029272025    -0.000011428240
       2        0.000471943131     0.001052494923     0.000919953237
       3        0.000399304612    -0.001256858709     0.000716220413
       4       -0.000002092477     0.000002818757     0.000003106014
       5       -0.000522018224    -0.000553239874    -0.000978915817
       6       -0.000399947374     0.000714528601    -0.000663737516
       7       -0.000010509181     0.000007481493     0.000020685794
       8        0.000029506839     0.000034672778     0.000005297567
       9        0.000035960361     0.000009918049    -0.000004056974
      10       -0.000006048360     0.000009364301     0.000006312980
      11       -0.000000533367    -0.000001823429    -0.000004810321
      12        0.000004661171    -0.000004327620     0.000006309695
      13        0.000003805813    -0.000001228220    -0.000002117756
      14       -0.000007205359     0.000008604379    -0.000002065103
      15        0.000015311479     0.000010502485    -0.000011683025
      16       -0.000006792323    -0.000001385558     0.000005814996
      17        0.000008380931    -0.000007192504     0.000007710599
      18        0.000008074799     0.000004942169    -0.000012596544

  **** Optimization is complete! (in 7 steps) ****
    Final optimized geometry and variables:
    Molecular point group: c1

    Geometry (in Angstrom), charge = 0, multiplicity = 1:

    H           -2.016173268051     0.070976766972     0.879085364479
    C           -1.865717501336    -0.764655713228     0.208891094293
    O           -0.634091745792    -0.735381224619    -0.444697509703
    H           -2.653157003950    -0.741536751862    -0.534734867624
    H           -1.967454638254    -1.682758778809     0.778041528165
    C            0.374647335083     0.164369760349    -0.031241559907
    C            1.559743610924    -0.167501381823    -0.931231658401
    C           -0.058856654510     1.613537836430    -0.261290103084
    C            0.752183825979    -0.070460003995     1.432517027710
    H            1.288984076164    -0.031328512021    -1.970493711762
    H            1.857001406365    -1.199164113495    -0.792779471587
    H            2.406718913802     0.470335531643    -0.707531792610
    H           -0.354268177251     1.754218306802    -1.293809510372
    H            0.759463740706     2.290093500866    -0.044642301104
    H           -0.890541577942     1.897309797142     0.371383487731
    H            1.031036998325    -1.106031387498     1.585407522294
    H            1.593145354626     0.553767635201     1.710408085247
    H           -0.064270463034     0.163900556160     2.104512763649

  Mulliken Charges: (a.u.)
   Center  Symbol    Alpha    Beta     Spin     Total
       1     H     0.46820  0.46820  0.00000  0.06360
       2     C     3.04319  3.04319  0.00000 -0.08638
       3     O     4.19355  4.19355  0.00000 -0.38709
       4     H     0.45048  0.45048  0.00000  0.09903
       5     H     0.45705  0.45705  0.00000  0.08589
       6     C     2.87911  2.87911  0.00000  0.24179
       7     C     3.14290  3.14290  0.00000 -0.28580
       8     C     3.16068  3.16068  0.00000 -0.32135
       9     C     3.16063  3.16063  0.00000 -0.32125
      10     H     0.44883  0.44883  0.00000  0.10234
      11     H     0.44918  0.44918  0.00000  0.10163
      12     H     0.45923  0.45923  0.00000  0.08154
      13     H     0.44648  0.44648  0.00000  0.10704
      14     H     0.44897  0.44897  0.00000  0.10205
      15     H     0.44817  0.44817  0.00000  0.10366
      16     H     0.44656  0.44656  0.00000  0.10689
      17     H     0.44818  0.44818  0.00000  0.10363
      18     H     0.44861  0.44861  0.00000  0.10278

   Total alpha = 25.00000, Total beta = 25.00000, Total charge =  0.00000
