  ==> Input File <==

--------------------------------------------------------------------------
set {
	reference rhf
	basis cc-pvtz
}

set_num_threads( 4 )
memory 2 gb

molecule MOL {
0 1

O	 0.749630	 1.305591	 -0.000460
C	 0.576499	 0.134701	 -0.003900
C	 -0.765656	 -0.550508	 -0.002152
O	 1.564816	 -0.744612	 -0.000631
C	 -1.945526	 0.411052	 0.000603
H	 -0.794329	 -1.203792	 -0.868145
H	 -0.791555	 -1.205429	 0.862701
C	 -3.277183	 -0.313777	 -0.161374
H	 -1.819008	 1.134136	 -0.795975
H	 -1.942923	 0.977092	 0.924167
H	 -3.316275	 -0.863500	 -1.096032
H	 -4.102142	 0.388283	 -0.157163
H	 -3.441991	 -1.021662	 0.644271
C	 2.884339	 -0.237801	 0.002883
H	 3.064150	 0.362814	 -0.876312
H	 3.533055	 -1.098529	 0.004958
H	 3.059365	 0.363432	 0.882614

	symmetry c1
}
set optking {
	frozen_dihedral = ("
		9 5 3 6
	")
}

ee = optimize('scf')
oeprop('DIPOLE', 'QUADRUPOLE', 'MULLIKEN_CHARGES')
f=open( 'psi4out.xyz', 'w' )
f.write( "17  " )
f.write( str(ee) + "\n" )
f.write( MOL.save_string_xyz() )
f.close()
--------------------------------------------------------------------------

    Molecular point group: c1
  Charge       = 0
  Multiplicity = 1
  Basis Set: CC-PVTZ
  Basis Set:
  @DF-RHF Final Energy:  -345.03525501807997
    Total Energy =                       -345.0352550180800790
    Molecular point group: c1
  Basis Set: CC-PVTZ
  Basis Set:
  Basis Set: CC-PVTZ
  Basis Set:
  @DF-RHF Final Energy:  -345.03501727040191
    Total Energy =                       -345.0350172704015108
  Basis Set: CC-PVTZ
  Basis Set:
  Basis Set: CC-PVTZ
  Basis Set:
  @DF-RHF Final Energy:  -345.03526467499182
    Total Energy =                       -345.0352646749922769
  Basis Set: CC-PVTZ
  Basis Set:
  Basis Set: CC-PVTZ
  Basis Set:
  @DF-RHF Final Energy:  -345.03528310270065
    Total Energy =                       -345.0352831026999638
  Basis Set: CC-PVTZ
  Basis Set:
  Charge       = 0
  Multiplicity = 1
  Basis Set: CC-PVTZ
  Basis Set:

    Orbital Energies (a.u.)
    -----------------------

    Doubly Occupied:

       1A    -20.596732     2A    -20.534598     3A    -11.365102
       4A    -11.278798     5A    -11.234310     6A    -11.220029
       7A    -11.212836     8A     -1.472689     9A     -1.366284
      10A     -1.081685    11A     -1.002634    12A     -0.940425
      13A     -0.828023    14A     -0.769453    15A     -0.703059
      16A     -0.686601    17A     -0.676379    18A     -0.637209
      19A     -0.597105    20A     -0.575607    21A     -0.569659
      22A     -0.528922    23A     -0.523184    24A     -0.500774
      25A     -0.487847    26A     -0.479017    27A     -0.460107
      28A     -0.441792

  @DF-RHF Final Energy:  -345.03528320258732

   => Energetics <=

    Nuclear Repulsion Energy =            313.0044332605992281
    One-Electron Energy =               -1090.5377174160967115
    Two-Electron Energy =                 432.4980009529100471
    DFT Exchange-Correlation Energy =       0.0000000000000000
    Empirical Dispersion Energy =           0.0000000000000000
    PCM Polarization Energy =               0.0000000000000000
    EFP Energy =                            0.0000000000000000
    Total Energy =                       -345.0352832025874932
    Molecular point group: c1
  Basis Set: CC-PVTZ
  Basis Set:

  -Total Gradient:
     Atom            X                  Y                   Z
    ------   -----------------  -----------------  -----------------
       1        0.000009634317    -0.000029149241    -0.000003887820
       2       -0.000012505653     0.000015797624    -0.000017717671
       3        0.000931650638     0.001158282999    -0.000566812520
       4       -0.000004417091     0.000011138604     0.000012754496
       5       -0.000876802653    -0.001089090512    -0.000764544435
       6       -0.000639915846    -0.000774724139     0.000614758620
       7        0.000001567532    -0.000008451109    -0.000001560886
       8       -0.000006536745    -0.000002153414    -0.000004145972
       9        0.000577539293     0.000716744534     0.000732175883
      10        0.000001205171    -0.000006639150     0.000004647558
      11       -0.000000529343     0.000003578476     0.000000717353
      12        0.000000503423     0.000000861071     0.000001496642
      13        0.000006737329     0.000002030898    -0.000002556826
      14        0.000012477637     0.000000571664    -0.000006705488
      15       -0.000000086331    -0.000000175221     0.000000310337
      16        0.000002424159     0.000002194113     0.000000512727
      17       -0.000002945844    -0.000000817193     0.000000558002

  **** Optimization is complete! (in 5 steps) ****
    Final optimized geometry and variables:
    Molecular point group: c1

    Geometry (in Angstrom), charge = 0, multiplicity = 1:

    O            0.750646232885     1.304731547971     0.028345152083
    C            0.576387019690     0.134009161320     0.021426057985
    C           -0.766062921448    -0.550049287003     0.011302003325
    O            1.564383983696    -0.745664989734     0.023096611383
    C           -1.947764531931     0.409711122255     0.013241600231
    H           -0.793575915249    -1.206069352016    -0.852758994870
    H           -0.796955586953    -1.207840455750     0.874096478890
    C           -3.280542456090    -0.316144745380    -0.129204230989
    H           -1.824734168437     1.131564751769    -0.784613401466
    H           -1.937637314965     0.982642885725     0.933311950698
    H           -3.333067320232    -0.864093756078    -1.064228059919
    H           -4.106221210316     0.384877759068    -0.110773065002
    H           -3.432162403355    -1.025882462519     0.677530305852
    C            2.883885722755    -0.239468541926     0.033178923587
    H            3.066825538381     0.365754317161    -0.842295298812
    H            3.532830098940    -1.100117276211     0.032823424641
    H            3.056549604605     0.357322190908     0.916492543320

  Mulliken Charges: (a.u.)
   Center  Symbol    Alpha    Beta     Spin     Total
       1     O     4.19660  4.19660  0.00000 -0.39320
       2     C     2.80630  2.80630  0.00000  0.38741
       3     C     3.09603  3.09603  0.00000 -0.19206
       4     O     4.14689  4.14689  0.00000 -0.29378
       5     C     3.07888  3.07888  0.00000 -0.15775
       6     H     0.44148  0.44148  0.00000  0.11703
       7     H     0.44058  0.44058  0.00000  0.11885
       8     C     3.15116  3.15116  0.00000 -0.30233
       9     H     0.44525  0.44525  0.00000  0.10950
      10     H     0.44835  0.44835  0.00000  0.10330
      11     H     0.45562  0.45562  0.00000  0.08876
      12     H     0.44560  0.44560  0.00000  0.10881
      13     H     0.45595  0.45595  0.00000  0.08810
      14     C     3.03739  3.03739  0.00000 -0.07478
      15     H     0.45431  0.45431  0.00000  0.09139
      16     H     0.44528  0.44528  0.00000  0.10943
      17     H     0.45434  0.45434  0.00000  0.09132

   Total alpha = 28.00000, Total beta = 28.00000, Total charge = -0.00000
