  ==> Input File <==

--------------------------------------------------------------------------
set {
	reference rhf
	basis cc-pvtz
}

set_num_threads( 4 )
memory 2 gb

molecule MOL {
0 1

H	 0.582065	 -0.729865	 1.905378
O	 1.084970	 -0.518351	 1.139349
C	 0.611453	 0.666438	 0.577492
C	 -0.793473	 0.591216	 0.050087
H	 1.284923	 0.910944	 -0.235500
H	 0.675801	 1.486508	 1.290265
C	 -1.534243	 -0.493009	 -0.013340
H	 -1.192677	 1.529237	 -0.299200
H	 -1.101195	 -1.466332	 -0.144046
H	 -2.604242	 -0.437780	 0.050785

	symmetry c1
}
set optking {
	frozen_dihedral = ("
		3 4 7 9
	")
}

ee = optimize('scf')
oeprop('DIPOLE', 'QUADRUPOLE', 'MULLIKEN_CHARGES')
f=open( 'psi4out.xyz', 'w' )
f.write( "10  " )
f.write( str(ee) + "\n" )
f.write( MOL.save_string_xyz() )
f.close()
--------------------------------------------------------------------------

    Molecular point group: c1
  Charge       = 0
  Multiplicity = 1
  Basis Set: CC-PVTZ
  Basis Set:
  @DF-RHF Final Energy:  -191.97905478383996
    Total Energy =                       -191.9790547838400130
    Molecular point group: c1
  Basis Set: CC-PVTZ
  Basis Set:
  Basis Set: CC-PVTZ
  Basis Set:
  @DF-RHF Final Energy:  -191.98953115647546
    Total Energy =                       -191.9895311564753513
  Basis Set: CC-PVTZ
  Basis Set:
  Basis Set: CC-PVTZ
  Basis Set:
  @DF-RHF Final Energy:  -191.99170710348528
    Total Energy =                       -191.9917071034852825
  Basis Set: CC-PVTZ
  Basis Set:
  Basis Set: CC-PVTZ
  Basis Set:
  @DF-RHF Final Energy:  -191.99183474548602
    Total Energy =                       -191.9918347454861305
  Basis Set: CC-PVTZ
  Basis Set:
  Basis Set: CC-PVTZ
  Basis Set:
  @DF-RHF Final Energy:  -191.99187681331023
    Total Energy =                       -191.9918768133102844
  Basis Set: CC-PVTZ
  Basis Set:
  Charge       = 0
  Multiplicity = 1
  Basis Set: CC-PVTZ
  Basis Set:

    Orbital Energies (a.u.)
    -----------------------

    Doubly Occupied:

       1A    -20.553972     2A    -11.279448     3A    -11.234863
       4A    -11.218660     5A     -1.374977     6A     -1.063857
       7A     -0.934165     8A     -0.773266     9A     -0.691689
      10A     -0.664533    11A     -0.624004    12A     -0.572703
      13A     -0.539168    14A     -0.500683    15A     -0.451449
      16A     -0.368505

  @DF-RHF Final Energy:  -191.99187777538822

   => Energetics <=

    Nuclear Repulsion Energy =            119.4550860364147979
    One-Electron Energy =                -497.2020461142858494
    Two-Electron Energy =                 185.7550823024828333
    DFT Exchange-Correlation Energy =       0.0000000000000000
    Empirical Dispersion Energy =           0.0000000000000000
    PCM Polarization Energy =               0.0000000000000000
    EFP Energy =                            0.0000000000000000
    Total Energy =                       -191.9918777753882182
    Molecular point group: c1
  Basis Set: CC-PVTZ
  Basis Set:

  -Total Gradient:
     Atom            X                  Y                   Z
    ------   -----------------  -----------------  -----------------
       1       -0.000006197507     0.000018545762    -0.000014520057
       2        0.000080267663    -0.000029986841     0.000032913807
       3       -0.004520051250     0.004398966842     0.010173214253
       4        0.007381073877    -0.007849499938    -0.023938748215
       5       -0.000011022126    -0.000016817200     0.000002775791
       6       -0.000011312086    -0.000005234031    -0.000016214106
       7       -0.002426570847     0.004762690573     0.029674209593
       8       -0.000038769331    -0.000002252445     0.000017447396
       9       -0.000446695467    -0.001258289541    -0.015911799876
      10       -0.000000722924    -0.000018123183    -0.000019278585

  **** Optimization is complete! (in 6 steps) ****
    Final optimized geometry and variables:
    Molecular point group: c1

    Geometry (in Angstrom), charge = 0, multiplicity = 1:

    H            0.675140411439    -0.863944003825     1.286263135911
    O            1.224944660476    -0.548024904387     0.591455260823
    C            0.702555951152     0.639439212901     0.084475274894
    C           -0.686443222451     0.524623631886    -0.477534031398
    H            1.396770453822     0.979547739798    -0.675070502945
    H            0.674619129340     1.413617942697     0.848830497192
    C           -1.482010130393    -0.520963207499    -0.373181279014
    H           -1.115801497633     1.473099064198    -0.759722448355
    H           -1.102800335460    -1.524469148611    -0.304555948770
    H           -2.514499613880    -0.437575877498    -0.659080097299

  Mulliken Charges: (a.u.)
   Center  Symbol    Alpha    Beta     Spin     Total
       1     H     0.39002  0.39002  0.00000  0.21996
       2     O     4.20032  4.20032  0.00000 -0.40064
       3     C     2.95020  2.95020  0.00000  0.09961
       4     C     3.07472  3.07472  0.00000 -0.14945
       5     H     0.45377  0.45377  0.00000  0.09246
       6     H     0.46870  0.46870  0.00000  0.06260
       7     C     3.18448  3.18448  0.00000 -0.36896
       8     H     0.42522  0.42522  0.00000  0.14956
       9     H     0.42203  0.42203  0.00000  0.15594
      10     H     0.43053  0.43053  0.00000  0.13893

   Total alpha = 16.00000, Total beta = 16.00000, Total charge = -0.00000
