  ==> Input File <==

--------------------------------------------------------------------------
set {
	reference rhf
	basis 6-31G*
}

set_num_threads( 1 )
memory 2 gb

molecule MOL {
0 1

O	 -1.276010	 1.052711	 -0.768302
C	 -1.204840	 0.067374	 -0.106123
C	 -2.388195	 -0.672128	 0.458071
O	 -0.067104	 -0.527208	 0.221609
H	 -2.388023	 -1.694060	 0.097175
H	 -3.300579	 -0.174919	 0.164318
H	 -2.315377	 -0.706351	 1.539059
C	 0.152633	 -1.884490	 -0.187573
C	 1.142380	 -2.464757	 0.807052
C	 0.661827	 -1.913136	 -1.620244
H	 -0.790609	 -2.406823	 -0.124562
H	 0.748142	 -2.410652	 1.815464
H	 1.341758	 -3.505168	 0.572263
H	 2.080137	 -1.920371	 0.776884
H	 0.852012	 -2.936355	 -1.928252
H	 -0.068973	 -1.487456	 -2.296042
H	 1.587609	 -1.352978	 -1.704854

	symmetry c1
}
set optking {
	frozen_dihedral = ("
		11 8 4 2
	")
}

ee = energy('scf')
oeprop('DIPOLE', 'QUADRUPOLE', 'MULLIKEN_CHARGES')
f=open( 'psi4out.xyz', 'w' )
f.write( "17  " )
f.write( str(ee) + "\n" )
f.write( MOL.save_string_xyz() )
f.close()
--------------------------------------------------------------------------

    Molecular point group: c1

    Geometry (in Angstrom), charge = 0, multiplicity = 1:

       Center              X                  Y                   Z               Mass
    ------------   -----------------  -----------------  -----------------  -----------------
           O         -0.850912615933     1.961329142858    -0.595601809604    15.994914619560
           C         -0.779742615933     0.975992142858     0.066577190396    12.000000000000
           C         -1.963097615933     0.236490142858     0.630771190396    12.000000000000
           O          0.357993384067     0.381410142858     0.394309190396    15.994914619560
           H         -1.962925615933    -0.785441857142     0.269875190396     1.007825032070
           H         -2.875481615933     0.733699142858     0.337018190396     1.007825032070
           H         -1.890279615933     0.202267142858     1.711759190396     1.007825032070
           C          0.577730384067    -0.975871857142    -0.014872809604    12.000000000000
           C          1.567477384067    -1.556138857142     0.979752190396    12.000000000000
           C          1.086924384067    -1.004517857142    -1.447543809604    12.000000000000
           H         -0.365511615933    -1.498204857142     0.048138190396     1.007825032070
           H          1.173239384067    -1.502033857142     1.988164190396     1.007825032070
           H          1.766855384067    -2.596549857142     0.744963190396     1.007825032070
           H          2.505234384067    -1.011752857142     0.949584190396     1.007825032070
           H          1.277109384067    -2.027736857142    -1.755551809604     1.007825032070
           H          0.356124384067    -0.578837857142    -2.123341809604     1.007825032070
           H          2.012706384067    -0.444359857142    -1.532153809604     1.007825032070

  Charge       = 0
  Multiplicity = 1
  Basis Set: 6-31G*
  Basis Set:

    Orbital Energies (a.u.)
    -----------------------

    Doubly Occupied:

       1A    -20.587891     2A    -20.549862     3A    -11.375309
       4A    -11.305747     5A    -11.234270     6A    -11.226659
       7A    -11.224985     8A     -1.460731     9A     -1.366829
      10A     -1.079201    11A     -1.014422    12A     -0.956755
      13A     -0.857426    14A     -0.774959    15A     -0.695402
      16A     -0.673566    17A     -0.659499    18A     -0.624594
      19A     -0.591302    20A     -0.591133    21A     -0.560959
      22A     -0.555237    23A     -0.546610    24A     -0.523201
      25A     -0.512263    26A     -0.479007    27A     -0.449043
      28A     -0.433693

  @DF-RHF Final Energy:  -344.88926672494506

   => Energetics <=

    Nuclear Repulsion Energy =            324.3274307267362246
    One-Electron Energy =               -1112.6123937916884188
    Two-Electron Energy =                 443.3956963400068503
    DFT Exchange-Correlation Energy =       0.0000000000000000
    Empirical Dispersion Energy =           0.0000000000000000
    PCM Polarization Energy =               0.0000000000000000
    EFP Energy =                            0.0000000000000000
    Total Energy =                       -344.8892667249453439

  Mulliken Charges: (a.u.)
   Center  Symbol    Alpha    Beta     Spin     Total
       1     O     4.26031  4.26031  0.00000 -0.52062
       2     C     2.62080  2.62080  0.00000  0.75839
       3     C     3.29807  3.29807  0.00000 -0.59614
       4     O     4.31089  4.31089  0.00000 -0.62178
       5     H     0.40610  0.40610  0.00000  0.18780
       6     H     0.39553  0.39553  0.00000  0.20895
       7     H     0.39926  0.39926  0.00000  0.20148
       8     C     2.93411  2.93411  0.00000  0.13178
       9     C     3.23987  3.23987  0.00000 -0.47974
      10     C     3.24215  3.24215  0.00000 -0.48430
      11     H     0.42058  0.42058  0.00000  0.15884
      12     H     0.41150  0.41150  0.00000  0.17700
      13     H     0.41829  0.41829  0.00000  0.16341
      14     H     0.40785  0.40785  0.00000  0.18429
      15     H     0.41833  0.41833  0.00000  0.16335
      16     H     0.40985  0.40985  0.00000  0.18029
      17     H     0.40649  0.40649  0.00000  0.18702

   Total alpha = 28.00000, Total beta = 28.00000, Total charge = -0.00000
