  ==> Input File <==

--------------------------------------------------------------------------
set {
	reference rhf
	basis 6-31G*
}

set_num_threads( 1 )
memory 2 gb

molecule MOL {
0 1

H	 -2.798360	 -0.862255	 -0.071053
N	 -1.863561	 -0.715187	 0.256814
C	 -1.344686	 0.554728	 -0.219830
H	 -1.300452	 -1.461917	 -0.101532
C	 -1.775012	 0.783682	 -1.653544
H	 -1.664200	 1.410869	 0.375935
H	 -0.260021	 0.521024	 -0.185960
O	 -3.168508	 0.904493	 -1.679217
H	 -1.313419	 1.689892	 -2.045148
H	 -1.457626	 -0.055178	 -2.269025
C	 -3.710242	 1.034519	 -2.954830
H	 -4.783079	 1.120519	 -2.848424
H	 -3.334738	 1.923814	 -3.457954
H	 -3.485224	 0.167600	 -3.572590

	symmetry c1
}
set optking {
	frozen_dihedral = ("
		8 5 3 6,
		5 8 11 13,
		11 8 5 3
	")
}

ee = energy('scf')
oeprop('DIPOLE', 'QUADRUPOLE', 'MULLIKEN_CHARGES')
f=open( 'psi4out.xyz', 'w' )
f.write( "14  " )
f.write( str(ee) + "\n" )
f.write( MOL.save_string_xyz() )
f.close()
--------------------------------------------------------------------------

    Molecular point group: c1

    Geometry (in Angstrom), charge = 0, multiplicity = 1:

       Center              X                  Y                   Z               Mass
    ------------   -----------------  -----------------  -----------------  -----------------
           H         -0.409983913555    -1.360691578620     1.200958313735     1.007825032070
           N          0.524815086445    -1.213623578620     1.528825313735    14.003074004780
           C          1.043690086445     0.056291421380     1.052181313735    12.000000000000
           H          1.087924086445    -1.960353578620     1.170479313735     1.007825032070
           C          0.613364086445     0.285245421380    -0.381532686265    12.000000000000
           H          0.724176086445     0.912432421380     1.647946313735     1.007825032070
           H          2.128355086445     0.022587421380     1.086051313735     1.007825032070
           O         -0.780131913555     0.406056421380    -0.407205686265    15.994914619560
           H          1.074957086445     1.191455421380    -0.773136686265     1.007825032070
           H          0.930750086445    -0.553614578620    -0.997013686265     1.007825032070
           C         -1.321865913555     0.536082421380    -1.682818686265    12.000000000000
           H         -2.394702913555     0.622082421380    -1.576412686265     1.007825032070
           H         -0.946361913555     1.425377421380    -2.185942686265     1.007825032070
           H         -1.096847913555    -0.330836578620    -2.300578686265     1.007825032070

  Charge       = 0
  Multiplicity = 1
  Basis Set: 6-31G*
  Basis Set:

    Orbital Energies (a.u.)
    -----------------------

    Doubly Occupied:

       1A    -20.562446     2A    -15.527180     3A    -11.270380
       4A    -11.267970     5A    -11.242476     6A     -1.386419
       7A     -1.175826     8A     -0.999739     9A     -0.910485
      10A     -0.823094    11A     -0.686741    12A     -0.675772
      13A     -0.646559    14A     -0.626633    15A     -0.590006
      16A     -0.553918    17A     -0.519955    18A     -0.507743
      19A     -0.481843    20A     -0.423190    21A     -0.375508

  @DF-RHF Final Energy:  -248.12165271819453

   => Energetics <=

    Nuclear Repulsion Energy =            195.3103414922085221
    One-Electron Energy =                -724.3561593703666404
    Two-Electron Energy =                 280.9241651599635361
    DFT Exchange-Correlation Energy =       0.0000000000000000
    Empirical Dispersion Energy =           0.0000000000000000
    PCM Polarization Energy =               0.0000000000000000
    EFP Energy =                            0.0000000000000000
    Total Energy =                       -248.1216527181945821

  Mulliken Charges: (a.u.)
   Center  Symbol    Alpha    Beta     Spin     Total
       1     H     0.32250  0.32250  0.00000  0.35500
       2     N     3.92171  3.92171  0.00000 -0.84343
       3     C     3.06832  3.06832  0.00000 -0.13664
       4     H     0.33622  0.33622  0.00000  0.32756
       5     C     2.99700  2.99700  0.00000  0.00601
       6     H     0.41089  0.41089  0.00000  0.17822
       7     H     0.42055  0.42055  0.00000  0.15889
       8     O     4.30724  4.30724  0.00000 -0.61448
       9     H     0.43158  0.43158  0.00000  0.13684
      10     H     0.43556  0.43556  0.00000  0.12887
      11     C     3.07934  3.07934  0.00000 -0.15869
      12     H     0.41096  0.41096  0.00000  0.17808
      13     H     0.42842  0.42842  0.00000  0.14317
      14     H     0.42970  0.42970  0.00000  0.14061

   Total alpha = 21.00000, Total beta = 21.00000, Total charge = -0.00000
