  ==> Input File <==

--------------------------------------------------------------------------
set {
	reference rhf
	basis 6-31G*
}

set_num_threads( 1 )
memory 2 gb

molecule MOL {
0 1

O	 3.225979	 0.970355	 -0.599647
C	 2.701189	 0.057885	 -0.047330
C	 1.245376	 -0.013843	 0.345420
O	 3.347903	 -1.046386	 0.304773
C	 0.455112	 1.231400	 -0.050772
H	 0.838542	 -0.913825	 -0.103701
H	 1.208210	 -0.175333	 1.419774
C	 -0.998893	 1.219485	 0.433193
H	 0.482531	 1.345121	 -1.130325
H	 0.957290	 2.103070	 0.354729
C	 -1.187669	 1.545023	 1.917611
H	 -1.410344	 0.231666	 0.239167
H	 -1.586216	 1.913582	 -0.166215
C	 -2.641553	 1.412606	 2.375528
H	 -0.561730	 0.881003	 2.511829
H	 -0.844659	 2.555893	 2.126075
C	 -2.842984	 1.740604	 3.856060
H	 -2.988635	 0.398954	 2.182455
H	 -3.269543	 2.068417	 1.774495
C	 -4.296920	 1.602241	 4.306201
H	 -2.215410	 1.086848	 4.458053
H	 -2.500657	 2.754966	 4.050130
H	 -4.407494	 1.841221	 5.359419
H	 -4.658601	 0.588714	 4.157388
H	 -4.946036	 2.269267	 3.745845
C	 4.728119	 -1.109107	 -0.004993
H	 4.882018	 -1.033965	 -1.071845
H	 5.068212	 -2.067527	 0.355250
H	 5.265056	 -0.311663	 0.488280

	symmetry c1
}
set optking {
	frozen_dihedral = ("
		21 17 14 11,
		17 14 11 15,
		15 11 8 5,
		6 3 5 9,
		2 4 26 27,
		1 2 4 26,
		6 3 2 1
	")
}

ee = energy('scf')
oeprop('DIPOLE', 'QUADRUPOLE', 'MULLIKEN_CHARGES')
f=open( 'psi4out.xyz', 'w' )
f.write( "29  " )
f.write( str(ee) + "\n" )
f.write( MOL.save_string_xyz() )
f.close()
--------------------------------------------------------------------------

    Molecular point group: c1

    Geometry (in Angstrom), charge = 0, multiplicity = 1:

       Center              X                  Y                   Z               Mass
    ------------   -----------------  -----------------  -----------------  -----------------
           O          2.844529242022     0.295739544801    -1.762267440130    15.994914619560
           C          2.319739242022    -0.616730455199    -1.209950440130    12.000000000000
           C          0.863926242022    -0.688458455199    -0.817200440130    12.000000000000
           O          2.966453242022    -1.721001455199    -0.857847440130    15.994914619560
           C          0.073662242022     0.556784544801    -1.213392440130    12.000000000000
           H          0.457092242022    -1.588440455199    -1.266321440130     1.007825032070
           H          0.826760242022    -0.849948455199     0.257153559870     1.007825032070
           C         -1.380342757978     0.544869544801    -0.729427440130    12.000000000000
           H          0.101081242022     0.670505544801    -2.292945440130     1.007825032070
           H          0.575840242022     1.428454544801    -0.807891440130     1.007825032070
           C         -1.569118757978     0.870407544801     0.754990559870    12.000000000000
           H         -1.791793757978    -0.442949455199    -0.923453440130     1.007825032070
           H         -1.967665757978     1.238966544801    -1.328835440130     1.007825032070
           C         -3.023002757978     0.737990544801     1.212907559870    12.000000000000
           H         -0.943179757978     0.206387544801     1.349208559870     1.007825032070
           H         -1.226108757978     1.881277544801     0.963454559870     1.007825032070
           C         -3.224433757978     1.065988544801     2.693439559870    12.000000000000
           H         -3.370084757978    -0.275661455199     1.019834559870     1.007825032070
           H         -3.650992757978     1.393801544801     0.611874559870     1.007825032070
           C         -4.678369757978     0.927625544801     3.143580559870    12.000000000000
           H         -2.596859757978     0.412232544801     3.295432559870     1.007825032070
           H         -2.882106757978     2.080350544801     2.887509559870     1.007825032070
           H         -4.788943757978     1.166605544801     4.196798559870     1.007825032070
           H         -5.040050757978    -0.085901455199     2.994767559870     1.007825032070
           H         -5.327485757978     1.594651544801     2.583224559870     1.007825032070
           C          4.346669242022    -1.783722455199    -1.167613440130    12.000000000000
           H          4.500568242022    -1.708580455199    -2.234465440130     1.007825032070
           H          4.686762242022    -2.742142455199    -0.807370440130     1.007825032070
           H          4.883606242022    -0.986278455199    -0.674340440130     1.007825032070

  Charge       = 0
  Multiplicity = 1
  Basis Set: 6-31G*
  Basis Set:

    Orbital Energies (a.u.)
    -----------------------

    Doubly Occupied:

       1A    -20.603520     2A    -20.545353     3A    -11.372215
       4A    -11.280767     5A    -11.235339     6A    -11.218763
       7A    -11.217355     8A    -11.216003     9A    -11.215755
      10A    -11.214361    11A    -11.208983    12A     -1.469224
      13A     -1.362652    14A     -1.097939    15A     -1.066992
      16A     -1.019691    17A     -0.977345    18A     -0.928330
      19A     -0.860567    20A     -0.799459    21A     -0.790425
      22A     -0.765123    23A     -0.701083    24A     -0.682374
      25A     -0.672451    26A     -0.649608    27A     -0.629011
      28A     -0.605089    29A     -0.595684    30A     -0.580805
      31A     -0.566529    32A     -0.548236    33A     -0.534003
      34A     -0.530216    35A     -0.515694    36A     -0.507943
      37A     -0.499811    38A     -0.476751    39A     -0.469949
      40A     -0.462254    41A     -0.459141    42A     -0.455877
      43A     -0.441432    44A     -0.435026

  @DF-RHF Final Energy:  -501.04317896547980

   => Energetics <=

    Nuclear Repulsion Energy =            610.0963314400943318
    One-Electron Energy =               -1891.3088930627930040
    Two-Electron Energy =                 780.1693826572184207
    DFT Exchange-Correlation Energy =       0.0000000000000000
    Empirical Dispersion Energy =           0.0000000000000000
    PCM Polarization Energy =               0.0000000000000000
    EFP Energy =                            0.0000000000000000
    Total Energy =                       -501.0431789654801378

  Mulliken Charges: (a.u.)
   Center  Symbol    Alpha    Beta     Spin     Total
       1     O     4.28574  4.28574  0.00000 -0.57148
       2     C     2.60509  2.60509  0.00000  0.78981
       3     C     3.20939  3.20939  0.00000 -0.41878
       4     O     4.30748  4.30748  0.00000 -0.61497
       5     C     3.15434  3.15434  0.00000 -0.30868
       6     H     0.40033  0.40033  0.00000  0.19934
       7     H     0.39987  0.39987  0.00000  0.20027
       8     C     3.15712  3.15712  0.00000 -0.31425
       9     H     0.41063  0.41063  0.00000  0.17873
      10     H     0.41075  0.41075  0.00000  0.17851
      11     C     3.15391  3.15391  0.00000 -0.30783
      12     H     0.42491  0.42491  0.00000  0.15017
      13     H     0.41765  0.41765  0.00000  0.16469
      14     C     3.15057  3.15057  0.00000 -0.30114
      15     H     0.42504  0.42504  0.00000  0.14991
      16     H     0.42111  0.42111  0.00000  0.15778
      17     C     3.15149  3.15149  0.00000 -0.30298
      18     H     0.42409  0.42409  0.00000  0.15183
      19     H     0.42335  0.42335  0.00000  0.15330
      20     C     3.23933  3.23933  0.00000 -0.47866
      21     H     0.42335  0.42335  0.00000  0.15331
      22     H     0.42270  0.42270  0.00000  0.15459
      23     H     0.41920  0.41920  0.00000  0.16160
      24     H     0.42188  0.42188  0.00000  0.15623
      25     H     0.42159  0.42159  0.00000  0.15682
      26     C     3.09242  3.09242  0.00000 -0.18484
      27     H     0.40905  0.40905  0.00000  0.18189
      28     H     0.40850  0.40850  0.00000  0.18301
      29     H     0.40910  0.40910  0.00000  0.18180

   Total alpha = 44.00000, Total beta = 44.00000, Total charge =  0.00000
