                              Psi4 1.0.54 Driver

  ==> Input File <==

--------------------------------------------------------------------------
set {
	reference rhf
	basis cc-pvtz
}

set_num_threads( 4 )
memory 2 gb

molecule MOL {
0 1

H	 -0.366580	 2.045936	 -0.305741
C	 0.351829	 1.335402	 0.083179
N	 -0.000018	 0.000080	 -0.334836
H	 1.327156	 1.599860	 -0.305475
H	 0.380566	 1.445403	 1.171445
C	 0.613121	 -1.005617	 0.498839
C	 -1.428892	 -0.176627	 -0.431441
H	 0.385450	 -1.992315	 0.115842
H	 1.689055	 -0.885125	 0.492944
H	 0.273617	 -0.959745	 1.537926
H	 -1.845864	 0.549752	 -1.117509
H	 -1.654418	 -1.164306	 -0.813217
H	 -1.936452	 -0.062225	 0.531059

	symmetry c1
}
set optking {
	frozen_dihedral = ("
		6 3 2 1
	")
}

ee,wfn = optimize('scf', return_wfn=True)
oeprop( wfn, 'DIPOLE', 'QUADRUPOLE', 'MULLIKEN_CHARGES')
f=open( 'psi4out.xyz', 'w' )
f.write( "13  " )
f.write( str(ee) + "\n" )
f.write( MOL.save_string_xyz() )
f.close()
--------------------------------------------------------------------------

    Molecular point group: c1
  Charge       = 0
  Multiplicity = 1
  Basis Set: CC-PVTZ
  Basis Set:
  @DF-RHF Final Energy:  -173.33164761564495
    Total Energy =                       -173.3316476156450108
    Molecular point group: c1
  Basis Set: CC-PVTZ
  Basis Set:
  Basis Set: CC-PVTZ
  Basis Set:
  @DF-RHF Final Energy:  -173.33189281710381
    Total Energy =                       -173.3318928171040056
  Basis Set: CC-PVTZ
  Basis Set:
  Basis Set: CC-PVTZ
  Basis Set:
  @DF-RHF Final Energy:  -173.33193054519859
    Total Energy =                       -173.3319305451987020
  Basis Set: CC-PVTZ
  Basis Set:
  Charge       = 0
  Multiplicity = 1
  Basis Set: CC-PVTZ
  Basis Set:

    Orbital Energies (a.u.)
    -----------------------

    Doubly Occupied:

       1A    -15.539561     2A    -11.234258     3A    -11.234234
       4A    -11.234096     5A     -1.226071     6A     -0.952056
       7A     -0.951331     8A     -0.807843     9A     -0.642443
      10A     -0.631328    11A     -0.629777    12A     -0.547274
      13A     -0.544398    14A     -0.516004    15A     -0.501488
      16A     -0.500057    17A     -0.349897

  @DF-RHF Final Energy:  -173.33193178031848

   => Energetics <=

    Nuclear Repulsion Energy =            139.4235321699376868
    One-Electron Energy =                -509.4266913989281989
    Two-Electron Energy =                 196.6712274486721981
    DFT Exchange-Correlation Energy =       0.0000000000000000
    Empirical Dispersion Energy =           0.0000000000000000
    PCM Polarization Energy =               0.0000000000000000
    EFP Energy =                            0.0000000000000000
    Total Energy =                       -173.3319317803183139
    Molecular point group: c1
  Basis Set: CC-PVTZ
  Basis Set:

  -Total Gradient:
     Atom            X                  Y                   Z
    ------   -----------------  -----------------  -----------------
       1       -0.002624980932    -0.000525547885     0.003913851074
       2        0.002269488933     0.000664919916    -0.004150107327
       3        0.003126492492    -0.000138728976    -0.001899936935
       4        0.000008390731    -0.000019129857     0.000005728802
       5       -0.000005826771     0.000031494534     0.000014620645
       6       -0.002905169152     0.000092847480     0.002086229550
       7        0.000126327064    -0.000068712847    -0.000029957258
       8        0.000018521481    -0.000034348624     0.000016214196
       9       -0.000002093296     0.000006958698    -0.000000833944
      10        0.000007958160    -0.000005956032     0.000026657344
      11        0.000025195980     0.000007962756     0.000018049052
      12       -0.000052163549    -0.000027787287    -0.000008578791
      13        0.000007858858     0.000016028124     0.000008063590

  **** Optimization is complete! (in 4 steps) ****
    Final optimized geometry and variables:
    Molecular point group: c1

    Geometry (in Angstrom), charge = 0, multiplicity = 1:

    H           -0.247562741226     2.012862650151    -0.280213694900
    C            0.472007093247     1.301115406548     0.101681390830
    N            0.121879532754    -0.038965934367    -0.320195559317
    H            1.460251000624     1.569488746293    -0.250755680508
    H            0.461298461655     1.407703859845     1.189902255568
    C            0.747567048234    -1.036011121355     0.515637873544
    C           -1.308304498447    -0.235946307436    -0.381289199349
    H            0.549578359931    -2.026918855102     0.126780488949
    H            1.821152630383    -0.891188341920     0.524970733047
    H            0.394368137800    -0.998276634899     1.550240287691
    H           -1.750770351365     0.465055856442    -1.077102170459
    H           -1.526010713559    -1.236410108088    -0.733715105986
    H           -1.799244543420    -0.108089878023     0.588432593653

  Mulliken Charges: (a.u.)
   Center  Symbol    Alpha    Beta     Spin     Total
       1     H     0.45487  0.45487  0.00000  0.09027
       2     C     3.08851  3.08851  0.00000 -0.17702
       3     N     3.59704  3.59704  0.00000 -0.19407
       4     H     0.44998  0.44998  0.00000  0.10005
       5     H     0.47258  0.47258  0.00000  0.05484
       6     C     3.09024  3.09024  0.00000 -0.18047
       7     C     3.08930  3.08930  0.00000 -0.17860
       8     H     0.45279  0.45279  0.00000  0.09443
       9     H     0.45254  0.45254  0.00000  0.09493
      10     H     0.47317  0.47317  0.00000  0.05365
      11     H     0.45213  0.45213  0.00000  0.09574
      12     H     0.45273  0.45273  0.00000  0.09454
      13     H     0.47414  0.47414  0.00000  0.05172

   Total alpha = 17.00000, Total beta = 17.00000, Total charge = -0.00000

*** Psi4 exiting successfully. Buy a developer a beer!
