  ==> Input File <==

--------------------------------------------------------------------------
set {
	reference rhf
	basis 6-31G*
}

set_num_threads( 4 )
memory 2 gb

molecule MOL {
0 1

H	 3.089270	 -1.380733	 0.000000
O	 2.178328	 -1.639175	 0.000000
C	 1.368216	 -0.558384	 0.000000
C	 1.803740	 0.698088	 0.401128
C	 0.061378	 -0.736336	 -0.419448
H	 2.821152	 0.834419	 0.727198
C	 0.933057	 1.774767	 0.382590
H	 -0.276312	 -1.706327	 -0.729545
C	 -0.803854	 0.346802	 -0.434989
H	 1.281568	 2.742305	 0.695302
C	 -0.374686	 1.606040	 -0.035108
C	 -2.209167	 0.162613	 -0.884478
H	 -1.052684	 2.440961	 -0.050305
O	 -2.671680	 -0.872091	 -1.245055
H	 -2.821796	 1.069011	 -0.865034

	symmetry c1
}
set optking {
	frozen_dihedral = ("
		4 3 2 1
	")
}

ee = optimize('scf')
oeprop('DIPOLE', 'QUADRUPOLE', 'MULLIKEN_CHARGES')
f=open( 'psi4out.xyz', 'w' )
f.write( "15  " )
f.write( str(ee) + "\n" )
f.write( MOL.save_string_xyz() )
f.close()
--------------------------------------------------------------------------

    Molecular point group: c1
  Charge       = 0
  Multiplicity = 1
  Basis Set: 6-31G*
  Basis Set:
  @DF-RHF Final Energy:  -418.28565049743759
    Total Energy =                       -418.2856504974372456
    Molecular point group: c1
  Basis Set: 6-31G*
  Basis Set:
  Basis Set: 6-31G*
  Basis Set:
  @DF-RHF Final Energy:  -418.28567423766134
    Total Energy =                       -418.2856742376608281
  Basis Set: 6-31G*
  Basis Set:
  Basis Set: 6-31G*
  Basis Set:
  @DF-RHF Final Energy:  -418.28571897096606
    Total Energy =                       -418.2857189709653767
  Basis Set: 6-31G*
  Basis Set:
  Basis Set: 6-31G*
  Basis Set:
  @DF-RHF Final Energy:  -418.28570090153198
    Total Energy =                       -418.2857009015319818
  Basis Set: 6-31G*
  Basis Set:
  Charge       = 0
  Multiplicity = 1
  Basis Set: 6-31G*
  Basis Set:

    Orbital Energies (a.u.)
    -----------------------

    Doubly Occupied:

       1A    -20.600047     2A    -20.564380     3A    -11.332478
       4A    -11.311769     5A    -11.253127     6A    -11.251749
       7A    -11.250050     8A    -11.246991     9A    -11.239840
      10A     -1.419396    11A     -1.404942    12A     -1.169689
      13A     -1.048725    14A     -1.027090    15A     -0.899699
      16A     -0.845629    17A     -0.812423    18A     -0.736122
      19A     -0.701767    20A     -0.685543    21A     -0.639652
      22A     -0.636023    23A     -0.612294    24A     -0.604361
      25A     -0.568211    26A     -0.550198    27A     -0.542444
      28A     -0.512192    29A     -0.486273    30A     -0.423525
      31A     -0.353375    32A     -0.327382

  @DF-RHF Final Energy:  -418.28572312168296

   => Energetics <=

    Nuclear Repulsion Energy =            403.0964984651136547
    One-Electron Energy =               -1368.6496718618464001
    Two-Electron Energy =                 547.2674502750496686
    DFT Exchange-Correlation Energy =       0.0000000000000000
    Empirical Dispersion Energy =           0.0000000000000000
    PCM Polarization Energy =               0.0000000000000000
    EFP Energy =                            0.0000000000000000
    Total Energy =                       -418.2857231216830769
    Molecular point group: c1
  Basis Set: 6-31G*
  Basis Set:

  -Total Gradient:
     Atom            X                  Y                   Z
    ------   -----------------  -----------------  -----------------
       1        0.000031231154    -0.000000908271    -0.001507497842
       2       -0.000280469905    -0.000082149969     0.002448185816
       3        0.000700422689     0.000365243231    -0.001938934172
       4       -0.000325848684    -0.000343723633     0.001022329834
       5       -0.000136715834     0.000074127851    -0.000041129231
       6        0.000002082003     0.000013807479    -0.000004429733
       7       -0.000130138764     0.000033429546     0.000006770348
       8        0.000005816656    -0.000009390623     0.000008393343
       9        0.000041875609    -0.000133286620    -0.000016110396
      10        0.000010726262    -0.000003531161     0.000004664246
      11        0.000095576775     0.000094581775     0.000014491170
      12       -0.000013011860    -0.000016082496     0.000016773868
      13       -0.000002852949    -0.000004769672    -0.000002042826
      14        0.000000660678     0.000009324358    -0.000003120417
      15        0.000000646173     0.000003328214    -0.000008344005

  **** Optimization is complete! (in 5 steps) ****
    Final optimized geometry and variables:
    Molecular point group: c1

    Geometry (in Angstrom), charge = 0, multiplicity = 1:

    H            3.053412626479    -1.411785261593     0.290160345860
    O            2.142155092388    -1.668365800227     0.269134956020
    C            1.333893816227    -0.583830040787     0.248758007311
    C            1.767607040349     0.670449600641     0.659459961530
    C            0.025971871878    -0.762801773550    -0.164186959425
    H            2.782751082838     0.802793434015     0.993566704761
    C            0.897436911775     1.747191867630     0.642323383968
    H           -0.311240472387    -1.732105061082    -0.476879320445
    C           -0.842330274118     0.318890654537    -0.170695239547
    H            1.244952969530     2.713937890056     0.958353369236
    C           -0.411919332657     1.577433794870     0.228728476006
    C           -2.248894483003     0.134307227087    -0.615166637442
    H           -1.090724322392     2.411826831641     0.217738856498
    O           -2.711018422843    -0.899543483916    -0.979071838818
    H           -2.863451038083     1.039204032494    -0.589118734847

  Mulliken Charges: (a.u.)
   Center  Symbol    Alpha    Beta     Spin     Total
       1     H     0.27091  0.27091  0.00000  0.45817
       2     O     4.37687  4.37687  0.00000 -0.75373
       3     C     2.79746  2.79746  0.00000  0.40508
       4     C     3.13165  3.13165  0.00000 -0.26331
       5     C     3.11276  3.11276  0.00000 -0.22553
       6     H     0.39804  0.39804  0.00000  0.20392
       7     C     3.09569  3.09569  0.00000 -0.19138
       8     H     0.37028  0.37028  0.00000  0.25943
       9     C     3.04639  3.04639  0.00000 -0.09278
      10     H     0.39297  0.39297  0.00000  0.21407
      11     C     3.11446  3.11446  0.00000 -0.22892
      12     C     2.83258  2.83258  0.00000  0.33483
      13     H     0.39312  0.39312  0.00000  0.21377
      14     O     4.24498  4.24498  0.00000 -0.48996
      15     H     0.42183  0.42183  0.00000  0.15633

   Total alpha = 32.00000, Total beta = 32.00000, Total charge = -0.00000
