  ==> Input File <==

--------------------------------------------------------------------------
set {
	reference rhf
	basis cc-pvtz
}

set_num_threads( 4 )
memory 2 gb

molecule MOL {
0 1

H	 1.128311	 0.207724	 1.465118
C	 1.134565	 0.093781	 0.372499
C	 0.062554	 0.862911	 -0.350953
O	 1.948932	 -0.587720	 -0.146651
C	 -1.315255	 0.203214	 -0.236686
H	 0.361574	 0.981950	 -1.384350
H	 0.025273	 1.850248	 0.103857
C	 -1.409519	 -1.135334	 -0.963358
H	 -2.055919	 0.885238	 -0.637726
H	 -1.564227	 0.069157	 0.812356
H	 -1.201605	 -1.018274	 -2.021009
H	 -2.401666	 -1.558716	 -0.863185
H	 -0.701930	 -1.856601	 -0.569497

	symmetry c1
}
set optking {
	frozen_dihedral = ("
		6 3 2 4
	")
}

ee = optimize('scf')
oeprop('DIPOLE', 'QUADRUPOLE', 'MULLIKEN_CHARGES')
f=open( 'psi4out.xyz', 'w' )
f.write( "13  " )
f.write( str(ee) + "\n" )
f.write( MOL.save_string_xyz() )
f.close()
--------------------------------------------------------------------------

    Molecular point group: c1
  Charge       = 0
  Multiplicity = 1
  Basis Set: CC-PVTZ
  Basis Set:
  @DF-RHF Final Energy:  -231.06994066121166
    Total Energy =                       -231.0699406612117741
    Molecular point group: c1
  Basis Set: CC-PVTZ
  Basis Set:
  Basis Set: CC-PVTZ
  Basis Set:
  @DF-RHF Final Energy:  -231.06835305804503
    Total Energy =                       -231.0683530580451190
  Basis Set: CC-PVTZ
  Basis Set:
  Basis Set: CC-PVTZ
  Basis Set:
  @DF-RHF Final Energy:  -231.07006278625488
    Total Energy =                       -231.0700627862549084
  Basis Set: CC-PVTZ
  Basis Set:
  Basis Set: CC-PVTZ
  Basis Set:
  @DF-RHF Final Energy:  -231.07008418838151
    Total Energy =                       -231.0700841883815997
  Basis Set: CC-PVTZ
  Basis Set:
  Basis Set: CC-PVTZ
  Basis Set:
  @DF-RHF Final Energy:  -231.07008586048860
    Total Energy =                       -231.0700858604883194
  Basis Set: CC-PVTZ
  Basis Set:
  Charge       = 0
  Multiplicity = 1
  Basis Set: CC-PVTZ
  Basis Set:

    Orbital Energies (a.u.)
    -----------------------

    Doubly Occupied:

       1A    -20.552943     2A    -11.321880     3A    -11.237305
       4A    -11.234552     5A    -11.215463     6A     -1.407752
       7A     -1.085689     8A     -0.973354     9A     -0.846606
      10A     -0.787072    11A     -0.674568    12A     -0.652897
      13A     -0.619264    14A     -0.595420    15A     -0.560843
      16A     -0.534727    17A     -0.505343    18A     -0.493214
      19A     -0.482599    20A     -0.412469

  @DF-RHF Final Energy:  -231.07008644123343

   => Energetics <=

    Nuclear Repulsion Energy =            175.0344231757322007
    One-Electron Energy =                -659.8210998746150153
    Two-Electron Energy =                 253.7165902576495000
    DFT Exchange-Correlation Energy =       0.0000000000000000
    Empirical Dispersion Energy =           0.0000000000000000
    PCM Polarization Energy =               0.0000000000000000
    EFP Energy =                            0.0000000000000000
    Total Energy =                       -231.0700864412333431
    Molecular point group: c1
  Basis Set: CC-PVTZ
  Basis Set:

  -Total Gradient:
     Atom            X                  Y                   Z
    ------   -----------------  -----------------  -----------------
       1        0.000006631780     0.000008259527    -0.000011374155
       2        0.001733913865     0.002247737204    -0.000147830210
       3       -0.001455844980    -0.002354648227    -0.000378246397
       4       -0.001053289476    -0.001330277946     0.000171814028
       5        0.000013319378     0.000015604028     0.000009979404
       6        0.000775717885     0.001409976032     0.000346437704
       7       -0.000010866485    -0.000002452722     0.000009100082
       8       -0.000014285534    -0.000006346425    -0.000014618133
       9        0.000004600208     0.000000718803    -0.000003461538
      10       -0.000007463626     0.000001213797     0.000014791717
      11        0.000000173967    -0.000002025887    -0.000004239665
      12        0.000003247911     0.000014860840     0.000004356710
      13        0.000004145109    -0.000002619023     0.000003290451

  **** Optimization is complete! (in 6 steps) ****
    Final optimized geometry and variables:
    Molecular point group: c1

    Geometry (in Angstrom), charge = 0, multiplicity = 1:

    H            1.015152433448     0.339440648604     1.743044109300
    C            1.044564734412     0.237650569845     0.650114534834
    C           -0.019640494489     1.000803515967    -0.091090243626
    O            1.852109037280    -0.462122158462     0.143773701153
    C           -1.394714335792     0.328634947892     0.035202341481
    H            0.278097129184     1.096594965889    -1.127481712610
    H           -0.072887859232     1.997152295293     0.338408492196
    C           -1.499472549207    -1.002433082079    -0.702753994698
    H           -2.140649480665     1.014723794578    -0.348918440283
    H           -1.629067207082     0.185671164377     1.086680891618
    H           -1.316377548574    -0.872461418704    -1.763383687526
    H           -2.489906768738    -1.425639000370    -0.584501502156
    H           -0.781685082634    -1.724530122319    -0.333424414913

  Mulliken Charges: (a.u.)
   Center  Symbol    Alpha    Beta     Spin     Total
       1     H     0.46273  0.46273  0.00000  0.07453
       2     C     2.90676  2.90676  0.00000  0.18647
       3     C     3.08769  3.08769  0.00000 -0.17538
       4     O     4.16658  4.16658  0.00000 -0.33317
       5     C     3.10041  3.10041  0.00000 -0.20081
       6     H     0.44399  0.44399  0.00000  0.11202
       7     H     0.44423  0.44423  0.00000  0.11155
       8     C     3.14167  3.14167  0.00000 -0.28335
       9     H     0.44411  0.44411  0.00000  0.11178
      10     H     0.45196  0.45196  0.00000  0.09608
      11     H     0.45265  0.45265  0.00000  0.09469
      12     H     0.44845  0.44845  0.00000  0.10311
      13     H     0.44877  0.44877  0.00000  0.10246

   Total alpha = 20.00000, Total beta = 20.00000, Total charge =  0.00000
