  ==> Input File <==

--------------------------------------------------------------------------
set {
	reference rhf
	basis cc-pvtz
}

set_num_threads( 4 )
memory 2 gb

molecule MOL {
0 1

H	 3.889604	 0.356866	 -0.089510
N	 3.091268	 -0.241216	 -0.065538
C	 1.860978	 0.530248	 0.016256
H	 3.192566	 -0.835836	 0.730398
C	 0.644130	 -0.381765	 -0.031064
H	 1.835721	 1.204666	 -0.833114
H	 1.808789	 1.151975	 0.911067
C	 -0.678115	 0.376691	 0.025731
H	 0.693998	 -0.977147	 -0.936845
H	 0.693309	 -1.082142	 0.800523
C	 -0.901090	 1.293360	 -1.173937
H	 -0.714268	 0.968401	 0.937612
H	 -1.501001	 -0.331470	 0.090836
C	 -2.221000	 2.054580	 -1.110244
H	 -0.079776	 2.001338	 -1.241051
H	 -0.869228	 0.703932	 -2.086258
H	 -2.269237	 2.681017	 -0.225659
H	 -2.347585	 2.695081	 -1.975541
H	 -3.064851	 1.373291	 -1.077105

	symmetry c1
}
set optking {
	frozen_dihedral = ("
		12 8 5 9
	")
}

ee = optimize('scf')
oeprop('DIPOLE', 'QUADRUPOLE', 'MULLIKEN_CHARGES')
f=open( 'psi4out.xyz', 'w' )
f.write( "19  " )
f.write( str(ee) + "\n" )
f.write( MOL.save_string_xyz() )
f.close()
--------------------------------------------------------------------------

    Molecular point group: c1
  Charge       = 0
  Multiplicity = 1
  Basis Set: CC-PVTZ
  Basis Set:
  @DF-RHF Final Energy:  -251.44568165312160
    Total Energy =                       -251.4456816531214827
    Molecular point group: c1
  Basis Set: CC-PVTZ
  Basis Set:
  Basis Set: CC-PVTZ
  Basis Set:
  @DF-RHF Final Energy:  -251.44610350132115
    Total Energy =                       -251.4461035013210903
  Basis Set: CC-PVTZ
  Basis Set:
  Basis Set: CC-PVTZ
  Basis Set:
  @DF-RHF Final Energy:  -251.44642685611771
    Total Energy =                       -251.4464268561176823
  Basis Set: CC-PVTZ
  Basis Set:
  Basis Set: CC-PVTZ
  Basis Set:
  @DF-RHF Final Energy:  -251.44644301827410
    Total Energy =                       -251.4464430182741808
  Basis Set: CC-PVTZ
  Basis Set:
  Charge       = 0
  Multiplicity = 1
  Basis Set: CC-PVTZ
  Basis Set:

    Orbital Energies (a.u.)
    -----------------------

    Doubly Occupied:

       1A    -15.526340     2A    -11.237526     3A    -11.211692
       4A    -11.210698     5A    -11.208059     6A    -11.205590
       7A     -1.178184     8A     -1.073583     9A     -0.997730
      10A     -0.899990    11A     -0.829333    12A     -0.776079
      13A     -0.665270    14A     -0.637566    15A     -0.616649
      16A     -0.594886    17A     -0.570922    18A     -0.549472
      19A     -0.526983    20A     -0.500289    21A     -0.489795
      22A     -0.462525    23A     -0.456811    24A     -0.447765
      25A     -0.383870

  @DF-RHF Final Energy:  -251.44644398910842

   => Energetics <=

    Nuclear Repulsion Energy =            249.2271619731513113
    One-Electron Energy =                -832.8320038632629121
    Two-Electron Energy =                 332.1583979010030134
    DFT Exchange-Correlation Energy =       0.0000000000000000
    Empirical Dispersion Energy =           0.0000000000000000
    PCM Polarization Energy =               0.0000000000000000
    EFP Energy =                            0.0000000000000000
    Total Energy =                       -251.4464439891086158
    Molecular point group: c1
  Basis Set: CC-PVTZ
  Basis Set:

  -Total Gradient:
     Atom            X                  Y                   Z
    ------   -----------------  -----------------  -----------------
       1       -0.000005489560     0.000000885860     0.000003170483
       2       -0.000009582850     0.000001993938     0.000023291433
       3       -0.000028166758     0.000004645632    -0.000024881385
       4        0.000010834259    -0.000009162878     0.000003675959
       5       -0.000002017186     0.000004746565    -0.000048789583
       6       -0.000027459959     0.000024454492    -0.000008807357
       7        0.000026192214    -0.000008372062     0.000003008009
       8        0.000018767011     0.000028879512     0.000002314197
       9        0.000007651268    -0.000038994914     0.000005661184
      10       -0.000001574712     0.000006734827    -0.000002703318
      11        0.000033921889     0.000012455529     0.000054419147
      12       -0.000020495291    -0.000000305222     0.000017147562
      13       -0.000008175070     0.000004775726    -0.000002764484
      14       -0.000020197365    -0.000036195047    -0.000027256175
      15        0.000033367857    -0.000007650526     0.000009555906
      16       -0.000007933665     0.000017697963    -0.000005138957
      17        0.000021125134    -0.000002283231    -0.000008578233
      18       -0.000007680433    -0.000008416817    -0.000005087543
      19       -0.000013086782     0.000004110653     0.000011763154

  **** Optimization is complete! (in 5 steps) ****
    Final optimized geometry and variables:
    Molecular point group: c1

    Geometry (in Angstrom), charge = 0, multiplicity = 1:

    H            3.601799825013    -0.375701140928     0.354947984098
    N            2.772463474355    -0.930154618071     0.372076672802
    C            1.582210584408    -0.094380597274     0.382329685298
    H            2.815456933119    -1.500751777389     1.190493895498
    C            0.326705870986    -0.954527125297     0.319456395683
    H            1.631741169277     0.553578556879    -0.484166796838
    H            1.526430663532     0.554711465647     1.257942385950
    C           -0.986422684911    -0.175098448628     0.393742073273
    H            0.357638149691    -1.547937068446    -0.588746625886
    H            0.355762882358    -1.660835836899     1.145862118553
    C           -1.262704368096     0.736608822202    -0.800807370745
    H           -1.006603615717     0.415556272494     1.307071932044
    H           -1.801982027691    -0.887647646323     0.479732227802
    C           -2.629856785334     1.408922233205    -0.725655614840
    H           -0.496623580812     1.501823515410    -0.870476863001
    H           -1.197260788195     0.154764690698    -1.716337874425
    H           -2.715850746958     2.021625590809     0.165774319529
    H           -2.801111937122     2.048888405035    -1.583673736552
    H           -3.426892037574     0.673380116183    -0.697119374852

  Mulliken Charges: (a.u.)
   Center  Symbol    Alpha    Beta     Spin     Total
       1     H     0.43002  0.43002  0.00000  0.13996
       2     N     3.68964  3.68964  0.00000 -0.37929
       3     C     3.02610  3.02610  0.00000 -0.05221
       4     H     0.43092  0.43092  0.00000  0.13815
       5     C     3.08960  3.08960  0.00000 -0.17920
       6     H     0.45538  0.45538  0.00000  0.08924
       7     H     0.46821  0.46821  0.00000  0.06358
       8     C     3.10138  3.10138  0.00000 -0.20276
       9     H     0.44921  0.44921  0.00000  0.10159
      10     H     0.45445  0.45445  0.00000  0.09110
      11     C     3.08534  3.08534  0.00000 -0.17068
      12     H     0.45549  0.45549  0.00000  0.08903
      13     H     0.44882  0.44882  0.00000  0.10236
      14     C     3.14938  3.14938  0.00000 -0.29876
      15     H     0.45423  0.45423  0.00000  0.09155
      16     H     0.45310  0.45310  0.00000  0.09380
      17     H     0.45550  0.45550  0.00000  0.08899
      18     H     0.44852  0.44852  0.00000  0.10295
      19     H     0.45470  0.45470  0.00000  0.09060

   Total alpha = 25.00000, Total beta = 25.00000, Total charge = -0.00000
