  ==> Input File <==

--------------------------------------------------------------------------
set {
	reference rhf
	basis 6-31G*
}

set_num_threads( 1 )
memory 2 gb

molecule MOL {
0 1

H	 -3.892951	 0.981613	 -0.358725
C	 -3.196921	 0.361773	 0.172313
C	 -2.076860	 -0.007332	 -0.404944
H	 -3.439953	 0.057760	 1.173024
O	 -0.891863	 0.599261	 -0.131654
H	 -2.026003	 -0.818888	 -1.109207
C	 0.208410	 0.271337	 -0.908643
C	 0.281164	 1.116453	 -2.160353
H	 0.207693	 -0.771659	 -1.205048
H	 1.094982	 0.468340	 -0.324120
F	 1.365940	 0.792147	 -2.848751
F	 -0.765616	 0.921924	 -2.945364
F	 0.344015	 2.402982	 -1.885976

	symmetry c1
}
set optking {
	frozen_dihedral = ("
		11 8 7 9,
		3 5 7 9,
		6 3 5 7
	")
}

ee = energy('scf')
oeprop('DIPOLE', 'QUADRUPOLE', 'MULLIKEN_CHARGES')
f=open( 'psi4out.xyz', 'w' )
f.write( "13  " )
f.write( str(ee) + "\n" )
f.write( MOL.save_string_xyz() )
f.close()
--------------------------------------------------------------------------

    Molecular point group: c1

    Geometry (in Angstrom), charge = 0, multiplicity = 1:

       Center              X                  Y                   Z               Mass
    ------------   -----------------  -----------------  -----------------  -----------------
           H         -3.402159410127     0.119703151198     1.144681029803     1.007825032070
           C         -2.706129410127    -0.500136848802     1.675719029803    12.000000000000
           C         -1.586068410127    -0.869241848802     1.098462029803    12.000000000000
           H         -2.949161410127    -0.804149848802     2.676430029803     1.007825032070
           O         -0.401071410127    -0.262648848802     1.371752029803    15.994914619560
           H         -1.535211410127    -1.680797848802     0.394199029803     1.007825032070
           C          0.699201589873    -0.590572848802     0.594763029803    12.000000000000
           C          0.771955589873     0.254543151198    -0.656946970197    12.000000000000
           H          0.698484589873    -1.633568848802     0.298358029803     1.007825032070
           H          1.585773589873    -0.393569848802     1.179286029803     1.007825032070
           F          1.856731589873    -0.069762848802    -1.345344970197    18.998403224000
           F         -0.274824410127     0.060014151198    -1.441957970197    18.998403224000
           F          0.834806589873     1.541072151198    -0.382569970197    18.998403224000

  Charge       = 0
  Multiplicity = 1
  Basis Set: 6-31G*
  Basis Set:

    Orbital Energies (a.u.)
    -----------------------

    Doubly Occupied:

       1A    -26.352243     2A    -26.350725     3A    -26.347408
       4A    -20.633630     5A    -11.512774     6A    -11.347382
       7A    -11.328590     8A    -11.169986     9A     -1.748939
      10A     -1.647046    11A     -1.645162    12A     -1.460288
      13A     -1.093588    14A     -1.019001    15A     -0.932710
      16A     -0.844458    17A     -0.838161    18A     -0.829414
      19A     -0.802249    20A     -0.730118    21A     -0.717501
      22A     -0.703601    23A     -0.679457    24A     -0.667279
      25A     -0.659893    26A     -0.649915    27A     -0.645245
      28A     -0.587019    29A     -0.574744    30A     -0.538388
      31A     -0.510094    32A     -0.268867

  @DF-RHF Final Energy:  -527.40314851151766

   => Energetics <=

    Nuclear Repulsion Energy =            413.4936304909559794
    One-Electron Energy =               -1550.1214395294571204
    Two-Electron Energy =                 609.2246605269845077
    DFT Exchange-Correlation Energy =       0.0000000000000000
    Empirical Dispersion Energy =           0.0000000000000000
    PCM Polarization Energy =               0.0000000000000000
    EFP Energy =                            0.0000000000000000
    Total Energy =                       -527.4031485115167470

  Mulliken Charges: (a.u.)
   Center  Symbol    Alpha    Beta     Spin     Total
       1     H     0.39831  0.39831  0.00000  0.20337
       2     C     3.32795  3.32795  0.00000 -0.65591
       3     C     2.84919  2.84919  0.00000  0.30163
       4     H     0.40390  0.40390  0.00000  0.19221
       5     O     4.27073  4.27073  0.00000 -0.54147
       6     H     0.40283  0.40283  0.00000  0.19434
       7     C     3.07367  3.07367  0.00000 -0.14735
       8     C     2.45274  2.45274  0.00000  1.09453
       9     H     0.40165  0.40165  0.00000  0.19670
      10     H     0.38606  0.38606  0.00000  0.22787
      11     F     4.68142  4.68142  0.00000 -0.36284
      12     F     4.67846  4.67846  0.00000 -0.35691
      13     F     4.67308  4.67308  0.00000 -0.34616

   Total alpha = 32.00000, Total beta = 32.00000, Total charge = -0.00000
