                              Psi4 1.0.54 Driver

  ==> Input File <==

--------------------------------------------------------------------------
set {
	reference rhf
	basis cc-pvtz
}

set_num_threads( 4 )
memory 2 gb

molecule MOL {
0 1

H	 -1.060214	 1.944844	 -1.452271
C	 -0.872720	 1.090878	 -0.836217
C	 -1.907960	 0.480380	 -0.058578
C	 0.348711	 0.555589	 -0.768347
H	 -2.901364	 0.886889	 -0.091074
C	 -1.646540	 -0.586389	 0.703157
H	 1.175033	 0.956469	 -1.321182
N	 0.640204	 -0.530428	 -0.000115
H	 -2.395333	 -1.068334	 1.297295
C	 -0.313675	 -1.167420	 0.774602
C	 2.006991	 -1.033007	 -0.000020
O	 -0.039751	 -2.124394	 1.446471
H	 2.182444	 -1.636914	 -0.880881
H	 2.678769	 -0.195442	 -0.002236
H	 2.183828	 -1.633244	 0.883082

	symmetry c1
}
set optking {
	frozen_dihedral = ("
		10 8 11 13
	")
}

ee,wfn = optimize('scf', return_wfn=True)
oeprop( wfn, 'DIPOLE', 'QUADRUPOLE', 'MULLIKEN_CHARGES')
f=open( 'psi4out.xyz', 'w' )
f.write( "15  " )
f.write( str(ee) + "\n" )
f.write( MOL.save_string_xyz() )
f.close()
--------------------------------------------------------------------------

    Molecular point group: c1
  Charge       = 0
  Multiplicity = 1
  Basis Set: CC-PVTZ
  Basis Set:
  @DF-RHF Final Energy:  -360.72249389912554
    Total Energy =                       -360.7224938991253111
    Molecular point group: c1
  Basis Set: CC-PVTZ
  Basis Set:
  Basis Set: CC-PVTZ
  Basis Set:
  @DF-RHF Final Energy:  -360.72270223860664
    Total Energy =                       -360.7227022386064164
  Basis Set: CC-PVTZ
  Basis Set:
  Basis Set: CC-PVTZ
  Basis Set:
  @DF-RHF Final Energy:  -360.72269249919896
    Total Energy =                       -360.7226924991994110
  Basis Set: CC-PVTZ
  Basis Set:
  Basis Set: CC-PVTZ
  Basis Set:
  @DF-RHF Final Energy:  -360.72272896933123
    Total Energy =                       -360.7227289693311718
  Basis Set: CC-PVTZ
  Basis Set:
  Charge       = 0
  Multiplicity = 1
  Basis Set: CC-PVTZ
  Basis Set:

    Orbital Energies (a.u.)
    -----------------------

    Doubly Occupied:

       1A    -20.501768     2A    -15.616743     3A    -11.339151
       4A    -11.293464     5A    -11.264058     6A    -11.258188
       7A    -11.230453     8A    -11.228257     9A     -1.390669
      10A     -1.285781    11A     -1.118806    12A     -1.028935
      13A     -0.972404    14A     -0.875919    15A     -0.838636
      16A     -0.719224    17A     -0.702850    18A     -0.663540
      19A     -0.652787    20A     -0.625418    21A     -0.611899
      22A     -0.574434    23A     -0.556861    24A     -0.550619
      25A     -0.529757    26A     -0.483153    27A     -0.420369
      28A     -0.410595    29A     -0.310806

  @DF-RHF Final Energy:  -360.72273018648195

   => Energetics <=

    Nuclear Repulsion Energy =            358.5275776724726029
    One-Electron Energy =               -1200.3895246080060133
    Two-Electron Energy =                 481.1392167490515703
    DFT Exchange-Correlation Energy =       0.0000000000000000
    Empirical Dispersion Energy =           0.0000000000000000
    PCM Polarization Energy =               0.0000000000000000
    EFP Energy =                            0.0000000000000000
    Total Energy =                       -360.7227301864818401
    Molecular point group: c1
  Basis Set: CC-PVTZ
  Basis Set:

  -Total Gradient:
     Atom            X                  Y                   Z
    ------   -----------------  -----------------  -----------------
       1       -0.000003650747    -0.000004523112    -0.000004727823
       2        0.000035738203    -0.000018255617    -0.000011333107
       3       -0.000029220583    -0.000011516751     0.000025018822
       4       -0.000045172108     0.000075559913     0.000023695802
       5       -0.000002796025     0.000002194699    -0.000002868139
       6       -0.000024427329     0.000035113758    -0.000013963818
       7        0.000008379939    -0.000019554866    -0.000004470823
       8       -0.000111909933    -0.000371787892    -0.000614075844
       9        0.000009741281    -0.000001117815    -0.000002725275
      10        0.000116834040     0.000342104488     0.000316269665
      11       -0.000183789005    -0.000451767639     0.000491182108
      12        0.000066394859     0.000020273168    -0.000005633001
      13        0.000178334118     0.000511836332    -0.000291335568
      14       -0.000069279036    -0.000035454591     0.000002166866
      15        0.000054822324    -0.000073104079     0.000092800131

  **** Optimization is complete! (in 5 steps) ****
    Final optimized geometry and variables:
    Molecular point group: c1

    Geometry (in Angstrom), charge = 0, multiplicity = 1:

    H           -0.892121693359     2.422369808912    -1.603657863544
    C           -0.704423099980     1.561736275737    -0.997007877485
    C           -1.741333794354     0.937686771748    -0.232651770424
    C            0.520754943223     1.034714074024    -0.924978650483
    H           -2.736141129670     1.340739478226    -0.265729330442
    C           -1.479756905105    -0.136967822208     0.518124606272
    H            1.348248249955     1.448676006050    -1.465824579567
    N            0.812883997162    -0.056402128933    -0.164917791990
    H           -2.229853542352    -0.630254060735     1.101335059985
    C           -0.146238997509    -0.716518119719     0.582832244688
    C            2.175813240775    -0.568358623590    -0.160916686550
    O            0.128522396328    -1.692609411138     1.226125461190
    H            2.370163085610    -1.151162896354    -1.052836714683
    H            2.870194624845     0.259096986068    -0.121940414041
    H            2.309359319596    -1.193560329786     0.702590464138

  Mulliken Charges: (a.u.)
   Center  Symbol    Alpha    Beta     Spin     Total
       1     H     0.41396  0.41396  0.00000  0.17208
       2     C     3.10307  3.10307  0.00000 -0.20615
       3     C     3.06168  3.06168  0.00000 -0.12335
       4     C     3.03307  3.03307  0.00000 -0.06614
       5     H     0.41837  0.41837  0.00000  0.16326
       6     C     3.11698  3.11698  0.00000 -0.23397
       7     H     0.42126  0.42126  0.00000  0.15749
       8     N     3.51181  3.51181  0.00000 -0.02363
       9     H     0.40894  0.40894  0.00000  0.18211
      10     C     2.84533  2.84533  0.00000  0.30934
      11     C     3.10460  3.10460  0.00000 -0.20919
      12     O     4.23647  4.23647  0.00000 -0.47294
      13     H     0.44713  0.44713  0.00000  0.10575
      14     H     0.45381  0.45381  0.00000  0.09238
      15     H     0.42352  0.42352  0.00000  0.15296

   Total alpha = 29.00000, Total beta = 29.00000, Total charge = -0.00000

*** Psi4 exiting successfully. Buy a developer a beer!
