  ==> Input File <==

--------------------------------------------------------------------------
set {
	reference rhf
	basis cc-pvtz
}

set_num_threads( 4 )
memory 2 gb

molecule MOL {
0 1

O	 1.524092	 0.160917	 -0.992483
C	 0.860843	 0.273204	 -0.013120
C	 -0.623368	 -0.117453	 -0.005652
C	 1.482801	 0.818653	 1.257186
C	 -0.892588	 -1.253841	 -1.002900
C	 -1.473463	 1.100646	 -0.372896
C	 -0.981836	 -0.579025	 1.418506
H	 -0.609333	 -0.970024	 -2.010649
H	 -1.950451	 -1.487353	 -1.013175
H	 -0.360848	 -2.161259	 -0.746463
H	 -1.232203	 1.461623	 -1.364827
H	 -2.524364	 0.834451	 -0.354500
H	 -1.312381	 1.914833	 0.318657
H	 -2.035706	 -0.826342	 1.468082
H	 -0.425078	 -1.458934	 1.716857
H	 -0.788494	 0.205047	 2.140903
H	 1.698950	 -0.004133	 1.929545
H	 2.408492	 1.312965	 1.005746
H	 0.828248	 1.502926	 1.779260

	symmetry c1
}
set optking {
	frozen_dihedral = ("
		1 2 3 5
	")
}

ee = optimize('scf')
oeprop('DIPOLE', 'QUADRUPOLE', 'MULLIKEN_CHARGES')
f=open( 'psi4out.xyz', 'w' )
f.write( "19  " )
f.write( str(ee) + "\n" )
f.write( MOL.save_string_xyz() )
f.close()
--------------------------------------------------------------------------

    Molecular point group: c1
  Charge       = 0
  Multiplicity = 1
  Basis Set: CC-PVTZ
  Basis Set:
  @DF-RHF Final Energy:  -309.17153803142952
    Total Energy =                       -309.1715380314295203
    Molecular point group: c1
  Basis Set: CC-PVTZ
  Basis Set:
  Basis Set: CC-PVTZ
  Basis Set:
  @DF-RHF Final Energy:  -309.17156499071945
    Total Energy =                       -309.1715649907191050
  Basis Set: CC-PVTZ
  Basis Set:
  Basis Set: CC-PVTZ
  Basis Set:
  @DF-RHF Final Energy:  -309.17316935024093
    Total Energy =                       -309.1731693502408689
  Basis Set: CC-PVTZ
  Basis Set:
  Basis Set: CC-PVTZ
  Basis Set:
  @DF-RHF Final Energy:  -309.17319946778986
    Total Energy =                       -309.1731994677894590
  Basis Set: CC-PVTZ
  Basis Set:
  @DF-RHF Final Energy:  -309.17375204112011
    Total Energy =                       -309.1737520411202240
  @DF-RHF Final Energy:  -309.17388243234154
    Total Energy =                       -309.1738824323418839
  @DF-RHF Final Energy:  -309.17389156282388
    Total Energy =                       -309.1738915628242239
  Basis Set: CC-PVTZ
  Basis Set:
  @DF-RHF Final Energy:  -309.17394289872118
    Total Energy =                       -309.1739428987214069
  Basis Set: CC-PVTZ
  Basis Set:
  Basis Set: CC-PVTZ
  Basis Set:
  @DF-RHF Final Energy:  -309.17394606662174
    Total Energy =                       -309.1739460666217383
  Basis Set: CC-PVTZ
  Basis Set:
  Basis Set: CC-PVTZ
  Basis Set:
  @DF-RHF Final Energy:  -309.17394713747939
    Total Energy =                       -309.1739471374790469
  Basis Set: CC-PVTZ
  Basis Set:
  Charge       = 0
  Multiplicity = 1
  Basis Set: CC-PVTZ
  Basis Set:

    Orbital Energies (a.u.)
    -----------------------

    Doubly Occupied:

       1A    -20.536970     2A    -11.318067     3A    -11.245674
       4A    -11.225607     5A    -11.221254     6A    -11.220855
       7A    -11.207943     8A     -1.398318     9A     -1.110346
      10A     -1.003840    11A     -0.946543    12A     -0.936842
      13A     -0.835074    14A     -0.705592    15A     -0.666764
      16A     -0.634093    17A     -0.622864    18A     -0.595019
      19A     -0.590379    20A     -0.568668    21A     -0.547966
      22A     -0.546582    23A     -0.525379    24A     -0.514189
      25A     -0.503041    26A     -0.472664    27A     -0.466171
      28A     -0.394159

  @DF-RHF Final Energy:  -309.17394779720399

   => Energetics <=

    Nuclear Repulsion Energy =            326.9097940271571474
    One-Electron Energy =               -1067.0457589263332920
    Two-Electron Energy =                 430.9620171019716963
    DFT Exchange-Correlation Energy =       0.0000000000000000
    Empirical Dispersion Energy =           0.0000000000000000
    PCM Polarization Energy =               0.0000000000000000
    EFP Energy =                            0.0000000000000000
    Total Energy =                       -309.1739477972043915
    Molecular point group: c1
  Basis Set: CC-PVTZ
  Basis Set:

  -Total Gradient:
     Atom            X                  Y                   Z
    ------   -----------------  -----------------  -----------------
       1       -0.000298788844     0.001142261548    -0.000247640358
       2        0.000516332315    -0.001775301905     0.000619373239
       3       -0.000359285303     0.001231878402    -0.000963512514
       4        0.000013286820     0.000041358109    -0.000020818536
       5        0.000146815177    -0.000621090657     0.000617017566
       6       -0.000019118723     0.000005700880     0.000026902678
       7       -0.000003702533     0.000011842703    -0.000016637660
       8       -0.000015649368     0.000010433566     0.000015407459
       9       -0.000006520115    -0.000020722514    -0.000002423463
      10       -0.000002227448    -0.000011610914    -0.000011157543
      11        0.000013193874    -0.000002581803     0.000015955926
      12       -0.000002850208    -0.000001649625    -0.000003482251
      13       -0.000005515584     0.000008449800    -0.000003235274
      14       -0.000002610902    -0.000007221361    -0.000004274630
      15        0.000006526658     0.000008618877    -0.000000529262
      16       -0.000010603210    -0.000006831678    -0.000018782789
      17       -0.000002458556    -0.000006028816    -0.000020719218
      18        0.000017982372     0.000000450623     0.000016606003
      19        0.000015193578    -0.000007955233     0.000001950627

  **** Optimization is complete! (in 11 steps) ****
    Final optimized geometry and variables:
    Molecular point group: c1

    Geometry (in Angstrom), charge = 0, multiplicity = 1:

    O            1.492940070091     0.129886640967    -1.076615758591
    C            0.877089498144     0.213425739855    -0.063745467306
    C           -0.602874053192    -0.197184036789    -0.009368406225
    C            1.534093760791     0.785174862429     1.174950713434
    C           -0.857102414191    -1.307768000748    -1.032976189034
    C           -1.419888923489     1.052337709483    -0.383731222456
    C           -1.018715320266    -0.687111124839     1.383957171682
    H           -0.581372333776    -0.993412289012    -2.028346791848
    H           -1.907381626093    -1.576914954349    -1.032326541777
    H           -0.282785451831    -2.195720116361    -0.795457138130
    H           -1.159022508706     1.400281037249    -1.375047635594
    H           -2.477998694240     0.818006107896    -0.373104100298
    H           -1.256534850864     1.865699052365     0.314687634177
    H           -2.057345929708    -0.994630779049     1.365473479763
    H           -0.430926076240    -1.543116066511     1.696766576570
    H           -0.921464587792     0.082157900732     2.139262275966
    H            1.657070325480     0.010873630593     1.922988512454
    H            2.502557911322     1.176934216495     0.905543526111
    H            0.931348158130     1.568796430610     1.616802576887

  Mulliken Charges: (a.u.)
   Center  Symbol    Alpha    Beta     Spin     Total
       1     O     4.17845  4.17845  0.00000 -0.35690
       2     C     2.84978  2.84978  0.00000  0.30045
       3     C     3.00709  3.00709  0.00000 -0.01419
       4     C     3.16456  3.16456  0.00000 -0.32913
       5     C     3.15179  3.15179  0.00000 -0.30358
       6     C     3.15565  3.15565  0.00000 -0.31129
       7     C     3.16534  3.16534  0.00000 -0.33068
       8     H     0.43610  0.43610  0.00000  0.12780
       9     H     0.45160  0.45160  0.00000  0.09680
      10     H     0.44906  0.44906  0.00000  0.10188
      11     H     0.43966  0.43966  0.00000  0.12069
      12     H     0.44680  0.44680  0.00000  0.10640
      13     H     0.44747  0.44747  0.00000  0.10506
      14     H     0.44264  0.44264  0.00000  0.11472
      15     H     0.44410  0.44410  0.00000  0.11181
      16     H     0.44565  0.44565  0.00000  0.10871
      17     H     0.44618  0.44618  0.00000  0.10764
      18     H     0.43174  0.43174  0.00000  0.13651
      19     H     0.44635  0.44635  0.00000  0.10730

   Total alpha = 28.00000, Total beta = 28.00000, Total charge =  0.00000
