  ==> Input File <==

--------------------------------------------------------------------------
set {
	reference rhf
	basis 6-31G*
}

set_num_threads( 4 )
memory 2 gb

molecule MOL {
0 1

H	 -3.135461	 -1.215070	 0.001379
O	 -2.310168	 -0.871793	 -0.309793
C	 -2.026376	 0.340750	 0.341611
C	 -0.673256	 0.843270	 -0.132153
H	 -2.792215	 1.080697	 0.115987
H	 -2.013526	 0.200402	 1.421792
C	 0.486613	 -0.083066	 0.235839
H	 -0.715586	 0.970948	 -1.210718
H	 -0.508072	 1.829858	 0.297090
C	 1.840406	 0.433480	 -0.254303
H	 0.300215	 -1.068318	 -0.178947
H	 0.519509	 -0.203625	 1.318070
C	 2.858624	 -0.684076	 -0.477852
H	 1.700406	 0.983710	 -1.182400
H	 2.239583	 1.145942	 0.465071
H	 2.503011	 -1.394561	 -1.218554
H	 3.807686	 -0.288789	 -0.827099
H	 3.046867	 -1.232589	 0.440957

	symmetry c1
}
set optking {
	frozen_dihedral = ("
		14 10 7 11
	")
}

ee = optimize('scf')
oeprop('DIPOLE', 'QUADRUPOLE', 'MULLIKEN_CHARGES')
f=open( 'psi4out.xyz', 'w' )
f.write( "18  " )
f.write( str(ee) + "\n" )
f.write( MOL.save_string_xyz() )
f.close()
--------------------------------------------------------------------------

    Molecular point group: c1
  Charge       = 0
  Multiplicity = 1
  Basis Set: 6-31G*
  Basis Set:
  @DF-RHF Final Energy:  -271.17759983021290
    Total Energy =                       -271.1775998302130688
    Molecular point group: c1
  Basis Set: 6-31G*
  Basis Set:
  Basis Set: 6-31G*
  Basis Set:
  @DF-RHF Final Energy:  -271.17784911497301
    Total Energy =                       -271.1778491149730144
  Basis Set: 6-31G*
  Basis Set:
  Basis Set: 6-31G*
  Basis Set:
  @DF-RHF Final Energy:  -271.17790342918090
    Total Energy =                       -271.1779034291807875
  Basis Set: 6-31G*
  Basis Set:
  Basis Set: 6-31G*
  Basis Set:
  @DF-RHF Final Energy:  -271.17790462449057
    Total Energy =                       -271.1779046244907363
  Basis Set: 6-31G*
  Basis Set:
  Charge       = 0
  Multiplicity = 1
  Basis Set: 6-31G*
  Basis Set:

    Orbital Energies (a.u.)
    -----------------------

    Doubly Occupied:

       1A    -20.553034     2A    -11.268061     3A    -11.212455
       4A    -11.210583     5A    -11.206237     6A    -11.204533
       7A     -1.359770     8A     -1.073860     9A     -1.008683
      10A     -0.913012    11A     -0.818519    12A     -0.784150
      13A     -0.704438    14A     -0.641933    15A     -0.622404
      16A     -0.577723    17A     -0.571294    18A     -0.562074
      19A     -0.519019    20A     -0.501432    21A     -0.490839
      22A     -0.467598    23A     -0.453592    24A     -0.447622
      25A     -0.429307

  @DF-RHF Final Energy:  -271.17790520887593

   => Energetics <=

    Nuclear Repulsion Energy =            249.0797029741436575
    One-Electron Energy =                -861.3108734024915520
    Two-Electron Energy =                 341.0532652194721663
    DFT Exchange-Correlation Energy =       0.0000000000000000
    Empirical Dispersion Energy =           0.0000000000000000
    PCM Polarization Energy =               0.0000000000000000
    EFP Energy =                            0.0000000000000000
    Total Energy =                       -271.1779052088757567
    Molecular point group: c1
  Basis Set: 6-31G*
  Basis Set:

  -Total Gradient:
     Atom            X                  Y                   Z
    ------   -----------------  -----------------  -----------------
       1        0.000001830152     0.000005112969     0.000002268055
       2        0.000001479450     0.000006723663    -0.000000431496
       3       -0.000022036158     0.000009071312    -0.000005147470
       4        0.000029244314    -0.000039827443     0.000023164489
       5       -0.000023613796    -0.000009212121     0.000001213643
       6        0.000004710350     0.000002974726    -0.000010947608
       7       -0.002318544371     0.003037733767    -0.003552915100
       8        0.000020312210    -0.000005299941     0.000011317358
       9       -0.000000561218    -0.000006924134     0.000006653658
      10        0.001134098978    -0.004716789031    -0.001919715860
      11        0.001762654671    -0.001762273802     0.003242081756
      12       -0.000015181283     0.000024532505     0.000029369791
      13        0.000004953129     0.000042845073     0.000009682269
      14       -0.000608626449     0.003404560250     0.002133870454
      15        0.000033476782    -0.000009577161     0.000024227643
      16       -0.000005572977     0.000031504948     0.000006521105
      17        0.000010470443    -0.000010628296    -0.000000668846
      18       -0.000009094229    -0.000004527282    -0.000000543843

  **** Optimization is complete! (in 5 steps) ****
    Final optimized geometry and variables:
    Molecular point group: c1

    Geometry (in Angstrom), charge = 0, multiplicity = 1:

    H           -3.136493342555    -1.157113700103     0.162314130197
    O           -2.314981042976    -0.826419920776    -0.171698443904
    C           -1.999023208106     0.385757374933     0.465237058711
    C           -0.653452077123     0.868973728962    -0.047759861706
    H           -2.761637547628     1.134016865389     0.256498746865
    H           -1.958370534568     0.250787934795     1.545356074825
    C            0.502876749378    -0.073986072671     0.281215050559
    H           -0.724469426494     1.001380241008    -1.124064779293
    H           -0.459697421897     1.851414645396     0.379660703809
    C            1.868901239202     0.456818459820    -0.175714878282
    H            0.319480139971    -1.053655049786    -0.147769540876
    H            0.533976114745    -0.235757001203     1.358355436455
    C            2.917004115753    -0.639139163463    -0.352625216015
    H            1.755421535825     1.022960629936    -1.097931309391
    H            2.228133038916     1.179883246744     0.554408873394
    H            2.621159721981    -1.340653595015    -1.127106376718
    H            3.880919545411    -0.223539072999    -0.630190847767
    H            3.051953615928    -1.201908705402     0.567093886911

  Mulliken Charges: (a.u.)
   Center  Symbol    Alpha    Beta     Spin     Total
       1     H     0.28059  0.28059  0.00000  0.43881
       2     O     4.36949  4.36949  0.00000 -0.73898
       3     C     2.99758  2.99758  0.00000  0.00483
       4     C     3.16104  3.16104  0.00000 -0.32208
       5     H     0.42926  0.42926  0.00000  0.14147
       6     H     0.43253  0.43253  0.00000  0.13494
       7     C     3.15413  3.15413  0.00000 -0.30826
       8     H     0.41470  0.41470  0.00000  0.17060
       9     H     0.42390  0.42390  0.00000  0.15220
      10     C     3.15276  3.15276  0.00000 -0.30553
      11     H     0.40765  0.40765  0.00000  0.18471
      12     H     0.42682  0.42682  0.00000  0.14636
      13     C     3.23915  3.23915  0.00000 -0.47830
      14     H     0.42288  0.42288  0.00000  0.15423
      15     H     0.42432  0.42432  0.00000  0.15137
      16     H     0.42020  0.42020  0.00000  0.15960
      17     H     0.42084  0.42084  0.00000  0.15833
      18     H     0.42216  0.42216  0.00000  0.15569

   Total alpha = 25.00000, Total beta = 25.00000, Total charge =  0.00000
