                              Psi4 1.0.54 Driver

  ==> Input File <==

--------------------------------------------------------------------------
set {
	reference rhf
	basis cc-pvtz
}

set_num_threads( 4 )
memory 2 gb

molecule MOL {
0 1

H	 -2.644180	 -0.653737	 1.272255
C	 -2.092774	 -0.380414	 0.391915
O	 -0.808934	 -0.154049	 0.752536
F	 -2.163230	 -1.351640	 -0.507133
F	 -2.627232	 0.691260	 -0.169301
C	 -0.500631	 -0.107846	 2.094965
C	 0.430459	 1.083077	 2.309563
Cl	 0.292594	 -1.603732	 2.622845
H	 -1.369488	 0.030809	 2.714245
F	 0.751058	 1.192006	 3.573831
F	 -0.192671	 2.181697	 1.954518
F	 1.525418	 0.988201	 1.606489

	symmetry c1
}
set optking {
	frozen_dihedral = ("
		6 3 2 4
	")
}

ee,wfn = optimize('scf', return_wfn=True)
oeprop( wfn, 'DIPOLE', 'QUADRUPOLE', 'MULLIKEN_CHARGES')
f=open( 'psi4out.xyz', 'w' )
f.write( "12  " )
f.write( str(ee) + "\n" )
f.write( MOL.save_string_xyz() )
f.close()
--------------------------------------------------------------------------

    Molecular point group: c1
  Charge       = 0
  Multiplicity = 1
  Basis Set: CC-PVTZ
  Basis Set:
  @DF-RHF Final Energy: -1146.61382525120916
    Total Energy =                      -1146.6138252512098461
    Molecular point group: c1
  Basis Set: CC-PVTZ
  Basis Set:
  Basis Set: CC-PVTZ
  Basis Set:
  @DF-RHF Final Energy: -1146.61532247109244
    Total Energy =                      -1146.6153224710931227
  Basis Set: CC-PVTZ
  Basis Set:
  Basis Set: CC-PVTZ
  Basis Set:
  @DF-RHF Final Energy: -1146.61619349750799
    Total Energy =                      -1146.6161934975084478
  Basis Set: CC-PVTZ
  Basis Set:
  Basis Set: CC-PVTZ
  Basis Set:
  @DF-RHF Final Energy: -1146.61591018051331
    Total Energy =                      -1146.6159101805133105
  Basis Set: CC-PVTZ
  Basis Set:
  @DF-RHF Final Energy: -1146.61633099090295
    Total Energy =                      -1146.6163309909020427
  @DF-RHF Final Energy: -1146.61652983526392
    Total Energy =                      -1146.6165298352648279
  @DF-RHF Final Energy: -1146.61667433991602
    Total Energy =                      -1146.6166743399153347
  Basis Set: CC-PVTZ
  Basis Set:
  @DF-RHF Final Energy: -1146.61675272636762
    Total Energy =                      -1146.6167527263676220
  Basis Set: CC-PVTZ
  Basis Set:
  Basis Set: CC-PVTZ
  Basis Set:
  @DF-RHF Final Energy: -1146.61676836740321
    Total Energy =                      -1146.6167683674027558
  Basis Set: CC-PVTZ
  Basis Set:
  Basis Set: CC-PVTZ
  Basis Set:
  @DF-RHF Final Energy: -1146.61676982314771
    Total Energy =                      -1146.6167698231467966
  Basis Set: CC-PVTZ
  Basis Set:
  Charge       = 0
  Multiplicity = 1
  Basis Set: CC-PVTZ
  Basis Set:

    Orbital Energies (a.u.)
    -----------------------

    Doubly Occupied:

       1A   -104.865612     2A    -26.359795     3A    -26.358112
       4A    -26.357451     5A    -26.338515     6A    -26.338435
       7A    -20.642337     8A    -11.526253     9A    -11.484466
      10A    -11.410519    11A    -10.591160    12A     -8.057915
      13A     -8.055991    14A     -8.055907    15A     -1.772817
      16A     -1.721533    17A     -1.667680    18A     -1.666008
      19A     -1.642354    20A     -1.492175    21A     -1.181262
      22A     -1.061193    23A     -0.987856    24A     -0.935227
      25A     -0.867949    26A     -0.864347    27A     -0.856775
      28A     -0.823275    29A     -0.819151    30A     -0.797396
      31A     -0.738473    32A     -0.735061    33A     -0.705448
      34A     -0.697741    35A     -0.690177    36A     -0.683895
      37A     -0.670144    38A     -0.668401    39A     -0.660338
      40A     -0.648778    41A     -0.606462    42A     -0.567543
      43A     -0.526010    44A     -0.488215    45A     -0.479315

  @DF-RHF Final Energy: -1146.61677001381668

   => Energetics <=

    Nuclear Repulsion Energy =            726.7427198044043735
    One-Electron Energy =               -3036.3880416738493295
    Two-Electron Energy =                1163.0285518556283932
    DFT Exchange-Correlation Energy =       0.0000000000000000
    Empirical Dispersion Energy =           0.0000000000000000
    PCM Polarization Energy =               0.0000000000000000
    EFP Energy =                            0.0000000000000000
    Total Energy =                      -1146.6167700138166765
    Molecular point group: c1
  Basis Set: CC-PVTZ
  Basis Set:

  -Total Gradient:
     Atom            X                  Y                   Z
    ------   -----------------  -----------------  -----------------
       1        0.000017584415     0.000010088822    -0.000008669672
       2       -0.000004203995     0.000540406455    -0.000817462892
       3       -0.000591099785     0.000946696088     0.000447535486
       4        0.000119924587    -0.000652549334     0.000577923596
       5        0.000042692801    -0.000042912837     0.000015507316
       6        0.000420254544    -0.000771492497    -0.000201910314
       7        0.000035122366    -0.000034441663     0.000058082044
       8        0.000006024254    -0.000027270664    -0.000008769563
       9       -0.000000367726    -0.000002429469    -0.000011302643
      10       -0.000009164066     0.000015027617    -0.000019131566
      11       -0.000020763763     0.000027692009    -0.000028983900
      12       -0.000016003610    -0.000008814597    -0.000002817879

  **** Optimization is complete! (in 10 steps) ****
    Final optimized geometry and variables:
    Molecular point group: c1

    Geometry (in Angstrom), charge = 0, multiplicity = 1:

    H           -2.105828565307    -1.080552087095    -0.468357881682
    C           -1.605697419932    -0.500192950878    -1.228154609494
    O           -0.424490336315     0.021262907951    -0.800381512217
    F           -1.371306563184    -1.258164652692    -2.274580248835
    F           -2.395030137806     0.484695674178    -1.611882812322
    C           -0.108337699896    -0.083941329690     0.524026824726
    C            0.994152245258     0.934459057257     0.806998384500
    CL           0.440764774425    -1.724117613334     0.954692807114
    H           -0.941522378751     0.142281863280     1.170810662386
    F            1.326537090674     0.899116810501     2.072807094315
    F            0.543202182957     2.135959903096     0.540915950102
    F            2.059055253067     0.722434168840     0.087120646258

  Mulliken Charges: (a.u.)
   Center  Symbol    Alpha    Beta     Spin     Total
       1     H     0.48188  0.48188  0.00000  0.03624
       2     C     2.73504  2.73504  0.00000  0.52991
       3     O     4.13914  4.13914  0.00000 -0.27827
       4     F     4.60326  4.60326  0.00000 -0.20651
       5     F     4.60925  4.60925  0.00000 -0.21850
       6     C     2.95000  2.95000  0.00000  0.10000
       7     C     2.66732  2.66732  0.00000  0.66536
       8    CL     8.57731  8.57731  0.00000 -0.15462
       9     H     0.43392  0.43392  0.00000  0.13215
      10     F     4.60244  4.60244  0.00000 -0.20489
      11     F     4.60253  4.60253  0.00000 -0.20506
      12     F     4.59790  4.59790  0.00000 -0.19581

   Total alpha = 45.00000, Total beta = 45.00000, Total charge =  0.00000

*** Psi4 exiting successfully. Buy a developer a beer!
