  ==> Input File <==

--------------------------------------------------------------------------
set {
	reference rhf
	basis cc-pvtz
}

set_num_threads( 4 )
memory 2 gb

molecule MOL {
0 1

H	 -2.162773	 -1.053016	 1.731177
C	 -1.507420	 -0.634872	 0.996600
C	 -1.951938	 0.360803	 0.069137
C	 -0.234651	 -1.030571	 0.915891
H	 -2.969908	 0.700518	 0.107719
C	 -1.112034	 0.866934	 -0.839141
H	 0.171660	 -1.771704	 1.575266
N	 0.640204	 -0.530428	 -0.000115
H	 -1.409495	 1.612159	 -1.547743
C	 0.275021	 0.433245	 -0.924131
C	 2.006991	 -1.033007	 -0.000020
O	 1.059260	 0.863817	 -1.725268
H	 2.182444	 -1.636914	 -0.880881
H	 2.678769	 -0.195442	 -0.002236
H	 2.183828	 -1.633244	 0.883082

	symmetry c1
}
set optking {
	frozen_dihedral = ("
		10 8 11 13
	")
}

ee = optimize('scf')
oeprop('DIPOLE', 'QUADRUPOLE', 'MULLIKEN_CHARGES')
f=open( 'psi4out.xyz', 'w' )
f.write( "15  " )
f.write( str(ee) + "\n" )
f.write( MOL.save_string_xyz() )
f.close()
--------------------------------------------------------------------------

    Molecular point group: c1
  Charge       = 0
  Multiplicity = 1
  Basis Set: CC-PVTZ
  Basis Set:
  @DF-RHF Final Energy:  -360.72280168400539
    Total Energy =                       -360.7228016840052760
    Molecular point group: c1
  Basis Set: CC-PVTZ
  Basis Set:
  Basis Set: CC-PVTZ
  Basis Set:
  @DF-RHF Final Energy:  -360.72347128448808
    Total Energy =                       -360.7234712844880278
  Basis Set: CC-PVTZ
  Basis Set:
  Basis Set: CC-PVTZ
  Basis Set:
  @DF-RHF Final Energy:  -360.72354673946444
    Total Energy =                       -360.7235467394646093
  Basis Set: CC-PVTZ
  Basis Set:
  Basis Set: CC-PVTZ
  Basis Set:
  @DF-RHF Final Energy:  -360.72354921197041
    Total Energy =                       -360.7235492119707487
  Basis Set: CC-PVTZ
  Basis Set:
  Charge       = 0
  Multiplicity = 1
  Basis Set: CC-PVTZ
  Basis Set:

    Orbital Energies (a.u.)
    -----------------------

    Doubly Occupied:

       1A    -20.501994     2A    -15.617842     3A    -11.337611
       4A    -11.294661     5A    -11.266020     6A    -11.258182
       7A    -11.229443     8A    -11.227735     9A     -1.391354
      10A     -1.285953    11A     -1.118835    12A     -1.029335
      13A     -0.972650    14A     -0.876620    15A     -0.839017
      16A     -0.719703    17A     -0.701994    18A     -0.664034
      19A     -0.653499    20A     -0.626299    21A     -0.611939
      22A     -0.574987    23A     -0.552307    24A     -0.551176
      25A     -0.531410    26A     -0.484883    27A     -0.420467
      28A     -0.410758    29A     -0.309987

  @DF-RHF Final Energy:  -360.72354931734304

   => Energetics <=

    Nuclear Repulsion Energy =            358.8873842780307655
    One-Electron Energy =               -1201.1004814811149117
    Two-Electron Energy =                 481.4895478857408193
    DFT Exchange-Correlation Energy =       0.0000000000000000
    Empirical Dispersion Energy =           0.0000000000000000
    PCM Polarization Energy =               0.0000000000000000
    EFP Energy =                            0.0000000000000000
    Total Energy =                       -360.7235493173432701
    Molecular point group: c1
  Basis Set: CC-PVTZ
  Basis Set:

  -Total Gradient:
     Atom            X                  Y                   Z
    ------   -----------------  -----------------  -----------------
       1       -0.000020727565     0.000003919642     0.000002436261
       2        0.000003707322     0.000008134582    -0.000004038690
       3        0.000010166251     0.000002280027     0.000019598018
       4       -0.000022229710     0.000044463654    -0.000026487856
       5       -0.000011723484    -0.000034822468     0.000014005502
       6        0.000032550162     0.000106863568     0.000051031997
       7        0.000017065970    -0.000002974557    -0.000004989407
       8       -0.000171400476    -0.000557086890    -0.000321068528
       9        0.000014962643    -0.000006963479     0.000013541193
      10       -0.000035512026     0.000023396708     0.000130405744
      11        0.000236847463     0.000819523002    -0.000244189438
      12        0.000099708172     0.000129324314     0.000066712199
      13       -0.000155965704    -0.000511697701     0.000300957825
      14       -0.000003337987    -0.000012197111    -0.000005694281
      15        0.000005888967    -0.000012163292     0.000007779466

  **** Optimization is complete! (in 5 steps) ****
    Final optimized geometry and variables:
    Molecular point group: c1

    Geometry (in Angstrom), charge = 0, multiplicity = 1:

    H           -2.149636194112    -0.951291281078     1.931566649707
    C           -1.486581070279    -0.536621406933     1.201978649151
    C           -1.918586863885     0.461829867919     0.273565256311
    C           -0.213489745817    -0.939564224328     1.134219361309
    H           -2.935030857071     0.806745459966     0.307095187920
    C           -1.070764277451     0.966294892081    -0.630070036288
    H            0.180954155112    -1.681431925745     1.798534041637
    N            0.666690358061    -0.440279087497     0.226264527891
    H           -1.360081174659     1.713743949747    -1.339802639755
    C            0.309407383188     0.517448681130    -0.705151517458
    C            2.041552740481    -0.914058754174     0.189028017088
    O            1.114123853836     0.921380001399    -1.500189301126
    H            2.214202740814    -1.512222904843    -0.694753696252
    H            2.717479246888    -0.074801220731     0.168507530140
    H            2.230593105443    -1.511698716540     1.067673149094

  Mulliken Charges: (a.u.)
   Center  Symbol    Alpha    Beta     Spin     Total
       1     H     0.41400  0.41400  0.00000  0.17201
       2     C     3.10696  3.10696  0.00000 -0.21392
       3     C     3.05930  3.05930  0.00000 -0.11860
       4     C     3.03861  3.03861  0.00000 -0.07722
       5     H     0.41845  0.41845  0.00000  0.16311
       6     C     3.11848  3.11848  0.00000 -0.23697
       7     H     0.41907  0.41907  0.00000  0.16186
       8     N     3.50857  3.50857  0.00000 -0.01715
       9     H     0.40935  0.40935  0.00000  0.18131
      10     C     2.84559  2.84559  0.00000  0.30883
      11     C     3.09215  3.09215  0.00000 -0.18430
      12     O     4.23562  4.23562  0.00000 -0.47124
      13     H     0.44288  0.44288  0.00000  0.11424
      14     H     0.43546  0.43546  0.00000  0.12908
      15     H     0.45552  0.45552  0.00000  0.08897

   Total alpha = 29.00000, Total beta = 29.00000, Total charge = -0.00000
