  ==> Input File <==

--------------------------------------------------------------------------
set {
	reference rhf
	basis 6-31G*
}

set_num_threads( 4 )
memory 2 gb

molecule MOL {
0 1

O	 2.751771	 1.529018	 -0.378622
C	 2.495060	 0.705747	 -1.202686
C	 1.207830	 -0.098559	 -1.170004
C	 3.446043	 0.408362	 -2.343892
C	 0.291004	 0.242674	 0.000989
H	 0.694612	 0.055387	 -2.118316
H	 1.474896	 -1.154423	 -1.154888
C	 -0.994322	 -0.586602	 0.000262
H	 0.048250	 1.300029	 -0.033664
H	 0.829273	 0.088658	 0.930878
C	 -2.259874	 0.272531	 0.000494
H	 -1.004862	 -1.240012	 -0.870939
H	 -1.005220	 -1.241071	 0.870675
C	 -3.549786	 -0.549746	 -0.000374
H	 -2.250389	 0.926680	 -0.869574
H	 -2.250838	 0.925513	 0.871430
C	 -4.809590	 0.315458	 -0.000369
H	 -3.560515	 -1.202009	 -0.871156
H	 -3.561123	 -1.202955	 0.869711
H	 -4.844746	 0.956611	 -0.876632
H	 -5.706986	 -0.295590	 -0.001609
H	 -4.845960	 0.954827	 0.877144
H	 2.958853	 0.583532	 -3.298658
H	 4.320531	 1.038989	 -2.263803
H	 3.748203	 -0.634661	 -2.322977

	symmetry c1
}
set optking {
	frozen_dihedral = ("
		9 5 8 12
	")
}

ee = optimize('scf')
oeprop('DIPOLE', 'QUADRUPOLE', 'MULLIKEN_CHARGES')
f=open( 'psi4out.xyz', 'w' )
f.write( "25  " )
f.write( str(ee) + "\n" )
f.write( MOL.save_string_xyz() )
f.close()
--------------------------------------------------------------------------

    Molecular point group: c1
  Charge       = 0
  Multiplicity = 1
  Basis Set: 6-31G*
  Basis Set:
  @DF-RHF Final Energy:  -387.13079948363077
    Total Energy =                       -387.1307994836309945
    Molecular point group: c1
  Basis Set: 6-31G*
  Basis Set:
  Basis Set: 6-31G*
  Basis Set:
  @DF-RHF Final Energy:  -387.13103039503488
    Total Energy =                       -387.1310303950347134
  Basis Set: 6-31G*
  Basis Set:
  Basis Set: 6-31G*
  Basis Set:
  @DF-RHF Final Energy:  -387.13109968321413
    Total Energy =                       -387.1310996832141882
  Basis Set: 6-31G*
  Basis Set:
  Basis Set: 6-31G*
  Basis Set:
  @DF-RHF Final Energy:  -387.13088076805155
    Total Energy =                       -387.1308807680509290
  Basis Set: 6-31G*
  Basis Set:
  Basis Set: 6-31G*
  Basis Set:
  @DF-RHF Final Energy:  -387.13110266321979
    Total Energy =                       -387.1311026632197354
  Basis Set: 6-31G*
  Basis Set:
  Charge       = 0
  Multiplicity = 1
  Basis Set: 6-31G*
  Basis Set:

    Orbital Energies (a.u.)
    -----------------------

    Doubly Occupied:

       1A    -20.550568     2A    -11.326106     3A    -11.232291
       4A    -11.228334     5A    -11.216652     6A    -11.216106
       7A    -11.215675     8A    -11.214551     9A    -11.208912
      10A     -1.395736    11A     -1.091963    12A     -1.056190
      13A     -1.013615    14A     -0.969158    15A     -0.890955
      16A     -0.815477    17A     -0.791100    18A     -0.731642
      19A     -0.658118    20A     -0.647311    21A     -0.637039
      22A     -0.622032    23A     -0.597009    24A     -0.579111
      25A     -0.567815    26A     -0.564399    27A     -0.539898
      28A     -0.523063    29A     -0.517104    30A     -0.491650
      31A     -0.484655    32A     -0.476638    33A     -0.464398
      34A     -0.459685    35A     -0.446247    36A     -0.399358

  @DF-RHF Final Energy:  -387.13110265429617

   => Energetics <=

    Nuclear Repulsion Energy =            439.5704116831373653
    One-Electron Energy =               -1395.7219004242526808
    Two-Electron Energy =                 569.0203860868201673
    DFT Exchange-Correlation Energy =       0.0000000000000000
    Empirical Dispersion Energy =           0.0000000000000000
    PCM Polarization Energy =               0.0000000000000000
    EFP Energy =                            0.0000000000000000
    Total Energy =                       -387.1311026542952050
    Molecular point group: c1
  Basis Set: 6-31G*
  Basis Set:

  -Total Gradient:
     Atom            X                  Y                   Z
    ------   -----------------  -----------------  -----------------
       1        0.000031244779    -0.000009060295     0.000004518785
       2       -0.000049936174     0.000051952129    -0.000028062645
       3        0.000001342568    -0.000019338804     0.000000481236
       4        0.000024258364    -0.000018537311     0.000023309501
       5        0.000133088707    -0.000243439126    -0.001153989659
       6       -0.000007790979    -0.000008687891     0.000011946143
       7       -0.000008675554    -0.000003302303     0.000007239800
       8       -0.000598997970     0.000979781736    -0.000454637067
       9       -0.000024261486     0.000031038409     0.001073854530
      10        0.000004897160    -0.000005750040    -0.000017113905
      11        0.000006207401     0.000004080204    -0.000028782953
      12        0.000493091849    -0.000747936676     0.000555107297
      13       -0.000007133056     0.000002227083    -0.000003009887
      14        0.000008993798    -0.000006811802     0.000023957710
      15        0.000009440986    -0.000019888954    -0.000009553303
      16        0.000016802042     0.000011061429    -0.000013881731
      17       -0.000013393005    -0.000008602410     0.000013536560
      18       -0.000002696357     0.000008703573     0.000002196590
      19       -0.000008287213    -0.000011571490    -0.000004573040
      20        0.000004160174    -0.000004212991     0.000002615269
      21       -0.000012342832     0.000006355877     0.000001401235
      22       -0.000001886996     0.000000267381    -0.000001962911
      23       -0.000004607929     0.000007509787     0.000007417337
      24        0.000007643148    -0.000000106023    -0.000006080859
      25       -0.000001161432     0.000004268509    -0.000005934034

  **** Optimization is complete! (in 6 steps) ****
    Final optimized geometry and variables:
    Molecular point group: c1

    Geometry (in Angstrom), charge = 0, multiplicity = 1:

    O            2.921575270155     1.279250584921     0.190630555104
    C            2.674900151463     0.451214397996    -0.631917846258
    C            1.388069353377    -0.353725730695    -0.609741758547
    C            3.639510371477     0.148479623879    -1.760266991543
    C            0.459033656529    -0.011531975737     0.551947812662
    H            0.882340272407    -0.201240733459    -1.562492289308
    H            1.654283189662    -1.409708731190    -0.590561963744
    C           -0.844491247370    -0.841308912911     0.550045372855
    H            0.229028098041     1.047896408841     0.517790913487
    H            0.996777235800    -0.157233924203     1.481771326931
    C           -2.112649617269     0.014961238932     0.563296714079
    H           -0.869548342129    -1.498136199959    -0.317323099756
    H           -0.857529671132    -1.502157291760     1.413060994424
    C           -3.400849845259    -0.808796569047     0.580124113900
    H           -2.113415492477     0.667832306595    -0.308479054899
    H           -2.092522093449     0.670326633220     1.432253273301
    C           -4.662149730204     0.054275488694     0.594875832502
    H           -3.421710362598    -1.463012460998    -0.289186650734
    H           -3.399770826888    -1.460456451843     1.451381499514
    H           -4.710301469416     0.693345348060    -0.282350011572
    H           -5.558424784925    -0.558240168569     0.607073273792
    H           -4.687876189202     0.695575521346     1.471307535460
    H            3.163134452624     0.316924842205    -2.721685660535
    H            4.511891788665     0.781208536110    -1.673987565215
    H            3.943305378033    -0.893818362344    -1.729436672413

  Mulliken Charges: (a.u.)
   Center  Symbol    Alpha    Beta     Spin     Total
       1     O     4.26112  4.26112  0.00000 -0.52224
       2     C     2.73629  2.73629  0.00000  0.52742
       3     C     3.21221  3.21221  0.00000 -0.42442
       4     C     3.28669  3.28669  0.00000 -0.57337
       5     C     3.15211  3.15211  0.00000 -0.30421
       6     H     0.40994  0.40994  0.00000  0.18013
       7     H     0.40953  0.40953  0.00000  0.18095
       8     C     3.15778  3.15778  0.00000 -0.31556
       9     H     0.40902  0.40902  0.00000  0.18195
      10     H     0.40976  0.40976  0.00000  0.18048
      11     C     3.15227  3.15227  0.00000 -0.30454
      12     H     0.42365  0.42365  0.00000  0.15270
      13     H     0.41948  0.41948  0.00000  0.16105
      14     C     3.15232  3.15232  0.00000 -0.30463
      15     H     0.42458  0.42458  0.00000  0.15083
      16     H     0.42110  0.42110  0.00000  0.15781
      17     C     3.23921  3.23921  0.00000 -0.47843
      18     H     0.42386  0.42386  0.00000  0.15229
      19     H     0.42274  0.42274  0.00000  0.15451
      20     H     0.42192  0.42192  0.00000  0.15615
      21     H     0.41940  0.41940  0.00000  0.16121
      22     H     0.42108  0.42108  0.00000  0.15785
      23     H     0.40881  0.40881  0.00000  0.18238
      24     H     0.39647  0.39647  0.00000  0.20707
      25     H     0.40868  0.40868  0.00000  0.18264

   Total alpha = 36.00000, Total beta = 36.00000, Total charge =  0.00000
