  ==> Input File <==

--------------------------------------------------------------------------
set {
	reference rhf
	basis 6-31G*
}

set_num_threads( 4 )
memory 2 gb

molecule MOL {
0 1

H	 -3.420663	 1.227371	 -1.044276
O	 -3.452007	 0.283848	 -0.965577
C	 -3.181085	 -0.079926	 0.364119
C	 -1.765924	 0.277073	 0.805136
H	 -3.327791	 -1.152017	 0.410903
H	 -3.905698	 0.375695	 1.036898
C	 -0.677594	 -0.417312	 -0.014550
H	 -1.637766	 1.358238	 0.744969
H	 -1.659588	 0.017670	 1.857098
C	 0.738335	 -0.034840	 0.421385
H	 -0.814977	 -0.178223	 -1.064632
H	 -0.802730	 -1.495410	 0.071702
C	 1.822265	 -0.738362	 -0.399735
H	 0.853533	 1.043532	 0.342250
H	 0.871597	 -0.279636	 1.474438
C	 3.258060	 -0.455774	 0.057203
H	 1.718003	 -0.459167	 -1.447053
H	 1.651028	 -1.811884	 -0.354513
C	 4.282662	 -1.504096	 -0.380535
H	 3.267544	 -0.391902	 1.142616
H	 3.565029	 0.522957	 -0.306196
H	 3.995018	 -2.495834	 -0.041631
H	 5.260921	 -1.284514	 0.036154
H	 4.390426	 -1.541494	 -1.459494

	symmetry c1
}
set optking {
	frozen_dihedral = ("
		20 16 13 17
	")
}

ee = optimize('scf')
oeprop('DIPOLE', 'QUADRUPOLE', 'MULLIKEN_CHARGES')
f=open( 'psi4out.xyz', 'w' )
f.write( "24  " )
f.write( str(ee) + "\n" )
f.write( MOL.save_string_xyz() )
f.close()
--------------------------------------------------------------------------

    Molecular point group: c1
  Charge       = 0
  Multiplicity = 1
  Basis Set: 6-31G*
  Basis Set:
  @DF-RHF Final Energy:  -349.24724232518383
    Total Energy =                       -349.2472423251836062
    Molecular point group: c1
  Basis Set: 6-31G*
  Basis Set:
  Basis Set: 6-31G*
  Basis Set:
  @DF-RHF Final Energy:  -349.24793211124262
    Total Energy =                       -349.2479321112426760
  Basis Set: 6-31G*
  Basis Set:
  Basis Set: 6-31G*
  Basis Set:
  @DF-RHF Final Energy:  -349.24797507458197
    Total Energy =                       -349.2479750745818592
  Basis Set: 6-31G*
  Basis Set:
  Basis Set: 6-31G*
  Basis Set:
  @DF-RHF Final Energy:  -349.24798123985641
    Total Energy =                       -349.2479812398565855
  Basis Set: 6-31G*
  Basis Set:
  Basis Set: 6-31G*
  Basis Set:
  @DF-RHF Final Energy:  -349.24798283734600
    Total Energy =                       -349.2479828373456598
  Basis Set: 6-31G*
  Basis Set:
  Charge       = 0
  Multiplicity = 1
  Basis Set: 6-31G*
  Basis Set:

    Orbital Energies (a.u.)
    -----------------------

    Doubly Occupied:

       1A    -20.553589     2A    -11.267703     3A    -11.217465
       4A    -11.213582     5A    -11.212744     6A    -11.211359
       7A    -11.211037     8A    -11.207518     9A     -1.360182
      10A     -1.088369    11A     -1.048767    12A     -0.988026
      13A     -0.913885    14A     -0.842043    15A     -0.797361
      16A     -0.788145    17A     -0.678868    18A     -0.657284
      19A     -0.630006    20A     -0.614041    21A     -0.591019
      22A     -0.586238    23A     -0.550031    24A     -0.540731
      25A     -0.529763    26A     -0.500273    27A     -0.496654
      28A     -0.472434    29A     -0.466329    30A     -0.459847
      31A     -0.456382    32A     -0.455854    33A     -0.418270

  @DF-RHF Final Energy:  -349.24798299153611

   => Energetics <=

    Nuclear Repulsion Energy =            380.5249375283143536
    One-Electron Energy =               -1227.4942461646041920
    Two-Electron Energy =                 497.7213256447535628
    DFT Exchange-Correlation Energy =       0.0000000000000000
    Empirical Dispersion Energy =           0.0000000000000000
    PCM Polarization Energy =               0.0000000000000000
    EFP Energy =                            0.0000000000000000
    Total Energy =                       -349.2479829915362757
    Molecular point group: c1
  Basis Set: 6-31G*
  Basis Set:

  -Total Gradient:
     Atom            X                  Y                   Z
    ------   -----------------  -----------------  -----------------
       1       -0.000000349634     0.000000900892    -0.000000637886
       2       -0.000002317777     0.000004256479     0.000003275089
       3        0.000000748172    -0.000011955528    -0.000001788581
       4        0.000006819468     0.000004025757     0.000002308352
       5       -0.000001892998    -0.000002041566    -0.000000289242
       6        0.000002796106    -0.000000922415    -0.000000116361
       7        0.000006760715     0.000007328626    -0.000013034234
       8       -0.000000648743    -0.000000095418    -0.000003122946
       9       -0.000000226944     0.000003885744     0.000001795297
      10       -0.000013080772     0.000011025883    -0.000017801479
      11       -0.000000381511     0.000001391521    -0.000001777485
      12       -0.000002685401     0.000000775769     0.000003237354
      13        0.001143961973    -0.003083887304    -0.001091796081
      14       -0.000014708382     0.000001711880     0.000001399890
      15        0.000021308622    -0.000008778349    -0.000008379825
      16        0.000792867688    -0.003405429050     0.000583453996
      17       -0.001125055733     0.003141289768     0.000861876764
      18       -0.000002810040    -0.000007349011    -0.000010319500
      19        0.000002024483     0.000019845987    -0.000017783664
      20       -0.000830089547     0.003335476213    -0.000286850548
      21        0.000014771140    -0.000012073957    -0.000004265499
      22       -0.000006916861     0.000008823721     0.000007139979
      23       -0.000002544172    -0.000002329656    -0.000002616392
      24        0.000011650153    -0.000005875988    -0.000003906996

  **** Optimization is complete! (in 6 steps) ****
    Final optimized geometry and variables:
    Molecular point group: c1

    Geometry (in Angstrom), charge = 0, multiplicity = 1:

    H           -3.431984103126     1.630536560870    -1.020951428865
    O           -3.495429612714     0.687301271420    -0.960735565991
    C           -3.259533288050     0.290460058820     0.366206020529
    C           -1.841036812628     0.591802229363     0.837056441453
    H           -3.442361073441    -0.776731516498     0.390274172366
    H           -3.980065873148     0.757578564979     1.035397552792
    C           -0.762425068420    -0.123010025475     0.022068376878
    H           -1.676126119108     1.668995452171     0.799491550666
    H           -1.761138179290     0.309649309900     1.885485014460
    C            0.657390332101     0.207582705654     0.484953859300
    H           -0.876725278149     0.136679180119    -1.025799903553
    H           -0.921989245159    -1.198058644271     0.089035635112
    C            1.738802916246    -0.521539229647    -0.316786266509
    H            0.819491033245     1.282188665039     0.410823153756
    H            0.762827327975    -0.042876479713     1.539338903310
    C            3.160745592379    -0.131968565274     0.103535101521
    H            1.600805364060    -0.284276637472    -1.369772106417
    H            1.600852056539    -1.595728020955    -0.211808234445
    C            4.227438776574    -1.113574927086    -0.377028656750
    H            3.206953196122    -0.025871980007     1.185315767339
    H            3.382466131220     0.858204195397    -0.289884085812
    H            4.071822440307    -2.100463215989     0.049398182414
    H            5.222974569609    -0.784038588621    -0.095903721887
    H            4.205973262887    -1.215343877462    -1.458576018796

  Mulliken Charges: (a.u.)
   Center  Symbol    Alpha    Beta     Spin     Total
       1     H     0.28339  0.28339  0.00000  0.43322
       2     O     4.36831  4.36831  0.00000 -0.73661
       3     C     2.99616  2.99616  0.00000  0.00768
       4     C     3.16904  3.16904  0.00000 -0.33807
       5     H     0.41632  0.41632  0.00000  0.16735
       6     H     0.42814  0.42814  0.00000  0.14371
       7     C     3.15216  3.15216  0.00000 -0.30432
       8     H     0.42824  0.42824  0.00000  0.14352
       9     H     0.42234  0.42234  0.00000  0.15532
      10     C     3.15287  3.15287  0.00000 -0.30574
      11     H     0.41211  0.41211  0.00000  0.17578
      12     H     0.42357  0.42357  0.00000  0.15286
      13     C     3.15069  3.15069  0.00000 -0.30138
      14     H     0.42518  0.42518  0.00000  0.14964
      15     H     0.42486  0.42486  0.00000  0.15028
      16     C     3.15233  3.15233  0.00000 -0.30466
      17     H     0.42245  0.42245  0.00000  0.15510
      18     H     0.42329  0.42329  0.00000  0.15342
      19     C     3.23910  3.23910  0.00000 -0.47820
      20     H     0.42322  0.42322  0.00000  0.15355
      21     H     0.42306  0.42306  0.00000  0.15389
      22     H     0.42175  0.42175  0.00000  0.15650
      23     H     0.41997  0.41997  0.00000  0.16005
      24     H     0.42144  0.42144  0.00000  0.15712

   Total alpha = 33.00000, Total beta = 33.00000, Total charge = -0.00000
