  ==> Input File <==

--------------------------------------------------------------------------
set {
	reference rhf
	basis 6-31G*
}

set_num_threads( 1 )
memory 2 gb

molecule MOL {
0 1

H	 1.680256	 -1.543067	 -0.228838
O	 1.654024	 -0.625927	 -0.460906
C	 1.135793	 0.118896	 0.612333
C	 0.031547	 1.023609	 0.088541
H	 1.915668	 0.729681	 1.063582
H	 0.754543	 -0.542641	 1.387006
C	 -1.134819	 0.293262	 -0.585751
H	 0.474374	 1.714721	 -0.623187
H	 -0.338529	 1.620940	 0.920081
C	 -1.917817	 -0.639439	 0.339494
H	 -0.758119	 -0.268455	 -1.433105
H	 -1.813832	 1.041889	 -0.986690
H	 -2.777680	 -1.057197	 -0.174994
H	 -1.310268	 -1.471279	 0.680599
H	 -2.283753	 -0.111424	 1.216626

	symmetry c1
}
set optking {
	frozen_dihedral = ("
		8 4 7 11,
		2 3 4 8
	")
}

ee = energy('scf')
oeprop('DIPOLE', 'QUADRUPOLE', 'MULLIKEN_CHARGES')
f=open( 'psi4out.xyz', 'w' )
f.write( "15  " )
f.write( str(ee) + "\n" )
f.write( MOL.save_string_xyz() )
f.close()
--------------------------------------------------------------------------

    Molecular point group: c1

    Geometry (in Angstrom), charge = 0, multiplicity = 1:

       Center              X                  Y                   Z               Mass
    ------------   -----------------  -----------------  -----------------  -----------------
           H          1.689163384615    -1.538454541762    -0.227738842048     1.007825032070
           O          1.662931384615    -0.621314541762    -0.459806842048    15.994914619560
           C          1.144700384615     0.123508458238     0.613432157952    12.000000000000
           C          0.040454384615     1.028221458238     0.089640157952    12.000000000000
           H          1.924575384615     0.734293458238     1.064681157952     1.007825032070
           H          0.763450384615    -0.538028541762     1.388105157952     1.007825032070
           C         -1.125911615385     0.297874458238    -0.584651842048    12.000000000000
           H          0.483281384615     1.719333458238    -0.622087842048     1.007825032070
           H         -0.329621615385     1.625552458238     0.921180157952     1.007825032070
           C         -1.908909615385    -0.634826541762     0.340593157952    12.000000000000
           H         -0.749211615385    -0.263842541762    -1.432005842048     1.007825032070
           H         -1.804924615385     1.046501458238    -0.985590842048     1.007825032070
           H         -2.768772615385    -1.052584541762    -0.173894842048     1.007825032070
           H         -1.301360615385    -1.466666541762     0.681698157952     1.007825032070
           H         -2.274845615385    -0.106811541762     1.217725157952     1.007825032070

  Charge       = 0
  Multiplicity = 1
  Basis Set: 6-31G*
  Basis Set:

    Orbital Energies (a.u.)
    -----------------------

    Doubly Occupied:

       1A    -20.553218     2A    -11.267881     3A    -11.211254
       4A    -11.210667     5A    -11.209433     6A     -1.360540
       7A     -1.064937     8A     -0.972200     9A     -0.871425
      10A     -0.775726    11A     -0.705513    12A     -0.647243
      13A     -0.609631    14A     -0.578600    15A     -0.562141
      16A     -0.537261    17A     -0.507171    18A     -0.480221
      19A     -0.468423    20A     -0.455666    21A     -0.426735

  @DF-RHF Final Energy:  -232.14182805897650

   => Energetics <=

    Nuclear Repulsion Energy =            192.2563026736920051
    One-Electron Energy =                -695.8445602930644327
    Two-Electron Energy =                 271.4464295603964956
    DFT Exchange-Correlation Energy =       0.0000000000000000
    Empirical Dispersion Energy =           0.0000000000000000
    PCM Polarization Energy =               0.0000000000000000
    EFP Energy =                            0.0000000000000000
    Total Energy =                       -232.1418280589759320

  Mulliken Charges: (a.u.)
   Center  Symbol    Alpha    Beta     Spin     Total
       1     H     0.27933  0.27933  0.00000  0.44133
       2     O     4.37002  4.37002  0.00000 -0.74003
       3     C     3.00200  3.00200  0.00000 -0.00399
       4     C     3.15819  3.15819  0.00000 -0.31637
       5     H     0.42250  0.42250  0.00000  0.15501
       6     H     0.43057  0.43057  0.00000  0.13886
       7     C     3.15529  3.15529  0.00000 -0.31058
       8     H     0.41418  0.41418  0.00000  0.17163
       9     H     0.42683  0.42683  0.00000  0.14634
      10     C     3.24202  3.24202  0.00000 -0.48405
      11     H     0.41034  0.41034  0.00000  0.17932
      12     H     0.42157  0.42157  0.00000  0.15686
      13     H     0.41806  0.41806  0.00000  0.16387
      14     H     0.42623  0.42623  0.00000  0.14753
      15     H     0.42287  0.42287  0.00000  0.15426

   Total alpha = 21.00000, Total beta = 21.00000, Total charge =  0.00000
