  ==> Input File <==

--------------------------------------------------------------------------
set {
	reference rhf
	basis 6-31G*
}

set_num_threads( 4 )
memory 2 gb

molecule MOL {
0 1

H	 0.150990	 -5.595266	 2.412617
C	 0.444597	 -4.712302	 1.854118
C	 -0.735248	 -3.758271	 1.673136
H	 1.256127	 -4.234586	 2.395813
H	 0.836497	 -5.043018	 0.896367
C	 -0.364941	 -2.502383	 0.890821
H	 -1.127855	 -3.459953	 2.640222
H	 -1.541872	 -4.277123	 1.157829
N	 -1.499838	 -1.609239	 0.765288
H	 0.422232	 -1.970492	 1.418470
H	 0.051655	 -2.786051	 -0.081475
C	 -1.217365	 -0.386708	 0.039277
H	 -2.256727	 -2.093253	 0.320440
C	 -2.452633	 0.504241	 -0.042481
H	 -0.428797	 0.141646	 0.568391
H	 -0.837335	 -0.579449	 -0.969589
C	 -3.758029	 -0.289423	 -0.010781
H	 -2.394220	 1.093569	 -0.952170
H	 -2.440793	 1.210787	 0.785871
H	 -3.816659	 -0.981993	 -0.845726
H	 -4.617837	 0.370165	 -0.069296
H	 -3.847478	 -0.867502	 0.904682

	symmetry c1
}
set optking {
	frozen_dihedral = ("
		15 12 14 18
	")
}

ee = optimize('scf')
oeprop('DIPOLE', 'QUADRUPOLE', 'MULLIKEN_CHARGES')
f=open( 'psi4out.xyz', 'w' )
f.write( "22  " )
f.write( str(ee) + "\n" )
f.write( MOL.save_string_xyz() )
f.close()
--------------------------------------------------------------------------

    Molecular point group: c1
  Charge       = 0
  Multiplicity = 1
  Basis Set: 6-31G*
  Basis Set:
  @DF-RHF Final Energy:  -290.37522218965864
    Total Energy =                       -290.3752221896589276
    Molecular point group: c1
  Basis Set: 6-31G*
  Basis Set:
  Basis Set: 6-31G*
  Basis Set:
  @DF-RHF Final Energy:  -290.37559194836030
    Total Energy =                       -290.3755919483605794
  Basis Set: 6-31G*
  Basis Set:
  Basis Set: 6-31G*
  Basis Set:
  @DF-RHF Final Energy:  -290.37743344544356
    Total Energy =                       -290.3774334454437280
  Basis Set: 6-31G*
  Basis Set:
  Basis Set: 6-31G*
  Basis Set:
  @DF-RHF Final Energy:  -290.37758270937240
    Total Energy =                       -290.3775827093722910
  Basis Set: 6-31G*
  Basis Set:
  Basis Set: 6-31G*
  Basis Set:
  @DF-RHF Final Energy:  -290.37759200166357
    Total Energy =                       -290.3775920016637428
  Basis Set: 6-31G*
  Basis Set:
  Basis Set: 6-31G*
  Basis Set:
  @DF-RHF Final Energy:  -290.37759305355672
    Total Energy =                       -290.3775930535568364
  Basis Set: 6-31G*
  Basis Set:
  Charge       = 0
  Multiplicity = 1
  Basis Set: 6-31G*
  Basis Set:

    Orbital Energies (a.u.)
    -----------------------

    Doubly Occupied:

       1A    -15.532948     2A    -11.238621     3A    -11.237923
       4A    -11.213725     5A    -11.213708     6A    -11.209840
       7A    -11.206693     8A     -1.205014     9A     -1.056964
      10A     -1.021319    11A     -0.927336    12A     -0.880859
      13A     -0.804561    14A     -0.785451    15A     -0.669840
      16A     -0.630019    17A     -0.624920    18A     -0.590597
      19A     -0.575215    20A     -0.568785    21A     -0.538026
      22A     -0.528609    23A     -0.503454    24A     -0.486635
      25A     -0.481284    26A     -0.472008    27A     -0.465580
      28A     -0.450228    29A     -0.357705

  @DF-RHF Final Energy:  -290.37759623841760

   => Energetics <=

    Nuclear Repulsion Energy =            318.3351382733318360
    One-Electron Energy =               -1022.4697275178559721
    Two-Electron Energy =                 413.7569930061061996
    DFT Exchange-Correlation Energy =       0.0000000000000000
    Empirical Dispersion Energy =           0.0000000000000000
    PCM Polarization Energy =               0.0000000000000000
    EFP Energy =                            0.0000000000000000
    Total Energy =                       -290.3775962384179365
    Molecular point group: c1
  Basis Set: 6-31G*
  Basis Set:

  -Total Gradient:
     Atom            X                  Y                   Z
    ------   -----------------  -----------------  -----------------
       1        0.000001282626    -0.000000657977     0.000001040882
       2        0.000000294443     0.000000278546     0.000001396627
       3       -0.000000996898     0.000005490672    -0.000003315767
       4       -0.000000241072     0.000000006459    -0.000001388550
       5       -0.000000880363    -0.000000320674     0.000000450221
       6       -0.000005784494     0.000006897853     0.000002922778
       7       -0.000001043391    -0.000001685079     0.000000348186
       8        0.000000088989     0.000000337008    -0.000000375017
       9        0.000003686638     0.000019339246    -0.000019085980
      10        0.000004785409    -0.000001309111     0.000000232764
      11        0.000001161055    -0.000000958803    -0.000000297215
      12        0.001707864527     0.002023324664    -0.007345539523
      13       -0.000001353439     0.000005485875     0.000003270902
      14        0.003664464951     0.004625973826     0.005054306561
      15       -0.002003854161    -0.002442310107     0.005450572344
      16        0.000007361523     0.000003721706    -0.000005943243
      17        0.000016372072     0.000004033113    -0.000000654470
      18       -0.003381543657    -0.004246007755    -0.003142066936
      19       -0.000000281616     0.000004691454     0.000002863101
      20       -0.000006191371    -0.000001538848     0.000000766822
      21       -0.000002141317    -0.000001312908    -0.000000459552
      22       -0.000003050455    -0.000003479159     0.000000955066

  **** Optimization is complete! (in 7 steps) ****
    Final optimized geometry and variables:
    Molecular point group: c1

    Geometry (in Angstrom), charge = 0, multiplicity = 1:

    H            1.608912973150    -3.753987586921     1.707736917908
    C            1.884651089573    -2.860838628931     1.156338566767
    C            0.674893642306    -1.952855374087     0.939516152372
    H            2.661228845312    -2.351992809383     1.720387538004
    H            2.316471924648    -3.176994746178     0.210921620897
    C            1.019815851216    -0.683745419296     0.166921439466
    H            0.243129317336    -1.669631074022     1.894410586513
    H           -0.095731501627    -2.502700912854     0.401608670673
    N           -0.144319431778     0.166462868533     0.010254654985
    H            1.773343816651    -0.124554705424     0.714994514066
    H            1.472253851709    -0.952150882249    -0.793821895960
    C            0.119840553949     1.387764681671    -0.732621897912
    H           -0.870098592729    -0.355909132116    -0.440122739384
    C           -1.080007119522     2.352808955057    -0.740194921583
    H            0.943780018448     1.867832535171    -0.214909550253
    H            0.444556672975     1.182302818021    -1.755882685654
    C           -2.453424170849     1.674634664332    -0.767744922195
    H           -1.013974610821     2.964712628298    -1.636061735159
    H           -1.029158106401     3.010100530510     0.121080573900
    H           -2.556499300305     1.016163408672    -1.627611260350
    H           -3.238456891388     2.420988675917    -0.838329842913
    H           -2.628326846550     1.092039723721     0.128614262959

  Mulliken Charges: (a.u.)
   Center  Symbol    Alpha    Beta     Spin     Total
       1     H     0.41773  0.41773  0.00000  0.16454
       2     C     3.24324  3.24324  0.00000 -0.48648
       3     C     3.15608  3.15608  0.00000 -0.31215
       4     H     0.42066  0.42066  0.00000  0.15867
       5     H     0.42162  0.42162  0.00000  0.15677
       6     C     3.04572  3.04572  0.00000 -0.09145
       7     H     0.41313  0.41313  0.00000  0.17374
       8     H     0.42667  0.42667  0.00000  0.14667
       9     N     3.85979  3.85979  0.00000 -0.71959
      10     H     0.42198  0.42198  0.00000  0.15605
      11     H     0.43652  0.43652  0.00000  0.12697
      12     C     3.05481  3.05481  0.00000 -0.10962
      13     H     0.33208  0.33208  0.00000  0.33585
      14     C     3.15109  3.15109  0.00000 -0.30218
      15     H     0.41937  0.41937  0.00000  0.16126
      16     H     0.43376  0.43376  0.00000  0.13249
      17     C     3.24981  3.24981  0.00000 -0.49962
      18     H     0.42322  0.42322  0.00000  0.15356
      19     H     0.41723  0.41723  0.00000  0.16553
      20     H     0.42691  0.42691  0.00000  0.14619
      21     H     0.41855  0.41855  0.00000  0.16289
      22     H     0.41004  0.41004  0.00000  0.17992

   Total alpha = 29.00000, Total beta = 29.00000, Total charge = -0.00000
