  ==> Input File <==

--------------------------------------------------------------------------
set {
	reference rhf
	basis cc-pvtz
}

set_num_threads( 4 )
memory 2 gb

molecule MOL {
0 1

H	 -2.484464	 0.422412	 -1.009267
C	 -1.493416	 -0.010541	 -1.045953
C	 -0.600949	 0.658697	 -0.000002
H	 -1.094270	 0.130159	 -2.041428
H	 -1.576169	 -1.072998	 -0.860418
C	 0.763408	 0.112229	 -0.000006
H	 -0.528932	 1.723200	 -0.180500
H	 -1.008117	 0.526821	 0.993858
N	 1.806008	 -0.317179	 0.000007

	symmetry c1
}
set optking {
	frozen_dihedral = ("
		7 3 6 9
	")
}

ee = optimize('scf')
oeprop('DIPOLE', 'QUADRUPOLE', 'MULLIKEN_CHARGES')
f=open( 'psi4out.xyz', 'w' )
f.write( "9  " )
f.write( str(ee) + "\n" )
f.write( MOL.save_string_xyz() )
f.close()
--------------------------------------------------------------------------

    Molecular point group: c1
  Charge       = 0
  Multiplicity = 1
  Basis Set: CC-PVTZ
  Basis Set:
  @DF-RHF Final Energy:  -171.02345856926075
    Total Energy =                       -171.0234585692608107
    Molecular point group: c1
  Basis Set: CC-PVTZ
  Basis Set:
  Basis Set: CC-PVTZ
  Basis Set:
  @DF-RHF Final Energy:  -170.64480208801376
    Total Energy =                       -170.6448020880138756
  Basis Set: CC-PVTZ
  Basis Set:
  Basis Set: CC-PVTZ
  Basis Set:
  @DF-RHF Final Energy:  -170.66993531202471
    Total Energy =                       -170.6699353120247054
  Basis Set: CC-PVTZ
  Basis Set:
  Basis Set: CC-PVTZ
  Basis Set:
  @DF-RHF Final Energy:  -170.76628179883966
    Total Energy =                       -170.7662817988396000
  Basis Set: CC-PVTZ
  Basis Set:
  @DF-RHF Final Energy:  -170.89485773740836
    Total Energy =                       -170.8948577374084152
  @DF-RHF Final Energy:  -170.81616185419136
    Total Energy =                       -170.8161618541914208
  @DF-RHF Final Energy:  -170.93752845394403
    Total Energy =                       -170.9375284539440258
  @DF-RHF Final Energy:  -171.00021239557134
    Total Energy =                       -171.0002123955715092
  @DF-RHF Final Energy:  -170.92933902551795
    Total Energy =                       -170.9293390255179759
  @DF-RHF Final Energy:  -170.97794142717265
    Total Energy =                       -170.9779414271726239
  @DF-RHF Final Energy:  -171.00681107059256
    Total Energy =                       -171.0068110705926188
  @DF-RHF Final Energy:  -171.01821334630219
    Total Energy =                       -171.0182133463022183
  @DF-RHF Final Energy:  -171.02124305615939
    Total Energy =                       -171.0212430561593635
  @DF-RHF Final Energy:  -171.02330973711389
    Total Energy =                       -171.0233097371139479
  @DF-RHF Final Energy:  -171.02316626056302
    Total Energy =                       -171.0231662605630447
  @DF-RHF Final Energy:  -171.02337182251472
    Total Energy =                       -171.0233718225146617
  @DF-RHF Final Energy:  -170.72932523166247
    Total Energy =                       -170.7293252316624432
  @DF-RHF Final Energy:  -170.77854196871024
    Total Energy =                       -170.7785419687103285
  @DF-RHF Final Energy:  -170.94811969763518
    Total Energy =                       -170.9481196976352635
  @DF-RHF Final Energy:  -170.99612394578571
    Total Energy =                       -170.9961239457857687
  @DF-RHF Final Energy:  -171.02300936199430
    Total Energy =                       -171.0230093619942977
  @DF-RHF Final Energy:  -171.01105990008398
    Total Energy =                       -171.0110599000841489
  @DF-RHF Final Energy:  -171.02062553189791
    Total Energy =                       -171.0206255318978776
  @DF-RHF Final Energy:  -171.01752432725422
    Total Energy =                       -171.0175243272543355
  @DF-RHF Final Energy:  -171.00572021232233
    Total Energy =                       -171.0057202123224442
  @DF-RHF Final Energy:  -171.01459515573214
    Total Energy =                       -171.0145951557321951
  @DF-RHF Final Energy:  -170.98713238209760
    Total Energy =                       -170.9871323820974567
  @DF-RHF Final Energy:  -171.01997163077920
    Total Energy =                       -171.0199716307792528
  @DF-RHF Final Energy:  -171.01921079615860
    Total Energy =                       -171.0192107961586316
  @DF-RHF Final Energy:  -171.02174375676287
    Total Energy =                       -171.0217437567630441
  @DF-RHF Final Energy:  -171.02302656364742
    Total Energy =                       -171.0230265636473916
  @DF-RHF Final Energy:  -171.02321275791141
    Total Energy =                       -171.0232127579113808
  @DF-RHF Final Energy:  -171.02327102063416
    Total Energy =                       -171.0232710206340698
  @DF-RHF Final Energy:  -171.02332100338603
    Total Energy =                       -171.0233210033860587
  @DF-RHF Final Energy:  -171.02336248082969
    Total Energy =                       -171.0233624808298032
  @DF-RHF Final Energy:  -171.02339693682939
    Total Energy =                       -171.0233969368293288
  Basis Set: CC-PVTZ
  Basis Set:
  @DF-RHF Final Energy:  -171.02342287422510
    Total Energy =                       -171.0234228742252185
  Basis Set: CC-PVTZ
  Basis Set:
  Basis Set: CC-PVTZ
  Basis Set:
  @DF-RHF Final Energy:  -171.02293387333646
    Total Energy =                       -171.0229338733363988
  Basis Set: CC-PVTZ
  Basis Set:
  Basis Set: CC-PVTZ
  Basis Set:
  @DF-RHF Final Energy:  -171.02320006570267
    Total Energy =                       -171.0232000657026674
  Basis Set: CC-PVTZ
  Basis Set:
  Charge       = 0
  Multiplicity = 1
  Basis Set: CC-PVTZ
  Basis Set:

    Orbital Energies (a.u.)
    -----------------------

    Doubly Occupied:

       1A    -15.559837     2A    -11.282853     3A    -11.264258
       4A    -11.244414     5A     -1.225047     6A     -1.084689
       7A     -0.913242     8A     -0.702092     9A     -0.661504
      10A     -0.589581    11A     -0.563469    12A     -0.545489
      13A     -0.540314    14A     -0.461523    15A     -0.461221

  @DF-RHF Final Energy:  -171.02252974464034

   => Energetics <=

    Nuclear Repulsion Energy =            103.4654526092761699
    One-Electron Energy =                -434.7769011007355289
    Two-Electron Energy =                 160.2889187468190926
    DFT Exchange-Correlation Energy =       0.0000000000000000
    Empirical Dispersion Energy =           0.0000000000000000
    PCM Polarization Energy =               0.0000000000000000
    EFP Energy =                            0.0000000000000000
    Total Energy =                       -171.0225297446402806
    Molecular point group: c1
  Basis Set: CC-PVTZ
  Basis Set:

  -Total Gradient:
     Atom            X                  Y                   Z
    ------   -----------------  -----------------  -----------------
       1        0.000354559813     0.000143944848     0.000358883752
       2        0.001166122165    -0.000746024767    -0.000697775338
       3        0.002245013681     0.005586777573     0.002220693296
       4       -0.000179416681    -0.000142883294     0.000312720604
       5        0.000211207082     0.000143309921    -0.000069477162
       6       -0.028050554530    -0.003037372338    -0.003701516982
       7       -0.001314328606     0.000040502727     0.000291596318
       8        0.000014998661     0.000429949504    -0.000374085283
       9        0.025552398416    -0.002418204173     0.001658960793

    Molecular point group: c1

    Geometry (in Angstrom), charge = 0, multiplicity = 1:

    H           -2.537773109594     0.340835387619    -0.687401075042
    C           -1.550963322000    -0.097614598918    -0.750787112018
    C           -0.639389518805     0.544036667366     0.295572625780
    H           -1.166651753919     0.062180428145    -1.748739187807
    H           -1.636604024543    -1.162628954238    -0.587425621919
    C            0.713500735169    -0.029061749370     0.254600406218
    H           -0.553800142700     1.609118987651     0.134094178260
    H           -1.039321553795     0.403003748020     1.291254923511
    N            1.764657945424    -0.447804128705     0.286943555354

  Mulliken Charges: (a.u.)
   Center  Symbol    Alpha    Beta     Spin     Total
       1     H     0.44623  0.44623  0.00000  0.10754
       2     C     3.13674  3.13674  0.00000 -0.27347
       3     C     3.07801  3.07801  0.00000 -0.15602
       4     H     0.44474  0.44474  0.00000  0.11052
       5     H     0.44527  0.44527  0.00000  0.10947
       6     C     3.04049  3.04049  0.00000 -0.08098
       7     H     0.43053  0.43053  0.00000  0.13895
       8     H     0.43188  0.43188  0.00000  0.13624
       9     N     3.54612  3.54612  0.00000 -0.09225

   Total alpha = 15.00000, Total beta = 15.00000, Total charge = -0.00000
