  ==> Input File <==

--------------------------------------------------------------------------
set {
	reference rhf
	basis 6-31G*
}

set_num_threads( 4 )
memory 2 gb

molecule MOL {
0 1

O	 1.079179	 -0.269806	 -0.436431
C	 0.028650	 0.075053	 -0.000277
C	 -1.233602	 -0.752807	 0.000328
O	 -0.174164	 1.262495	 0.555376
C	 -2.501530	 0.091881	 0.000126
H	 -1.193807	 -1.406641	 -0.865785
H	 -1.193516	 -1.405779	 0.867015
H	 -2.545121	 0.729328	 -0.874513
H	 -3.377167	 -0.548497	 0.000561
H	 -2.544818	 0.730135	 0.874258
C	 0.934965	 2.140899	 0.617251
H	 1.734521	 1.702701	 1.196998
H	 0.574367	 3.038127	 1.095596
H	 1.297621	 2.365425	 -0.375493

	symmetry c1
}
set optking {
	frozen_dihedral = ("
		4 2 3 6
	")
}

ee = optimize('scf')
oeprop('DIPOLE', 'QUADRUPOLE', 'MULLIKEN_CHARGES')
f=open( 'psi4out.xyz', 'w' )
f.write( "14  " )
f.write( str(ee) + "\n" )
f.write( MOL.save_string_xyz() )
f.close()
--------------------------------------------------------------------------

    Molecular point group: c1
  Charge       = 0
  Multiplicity = 1
  Basis Set: 6-31G*
  Basis Set:
  @DF-RHF Final Energy:  -305.86906133877267
    Total Energy =                       -305.8690613387727808
    Molecular point group: c1
  Basis Set: 6-31G*
  Basis Set:
  Basis Set: 6-31G*
  Basis Set:
  @DF-RHF Final Energy:  -305.86952721013523
    Total Energy =                       -305.8695272101352884
  Basis Set: 6-31G*
  Basis Set:
  Basis Set: 6-31G*
  Basis Set:
  @DF-RHF Final Energy:  -305.86985811906504
    Total Energy =                       -305.8698581190650430
  Basis Set: 6-31G*
  Basis Set:
  Basis Set: 6-31G*
  Basis Set:
  @DF-RHF Final Energy:  -305.86991879463528
    Total Energy =                       -305.8699187946352822
  Basis Set: 6-31G*
  Basis Set:
  Basis Set: 6-31G*
  Basis Set:
  @DF-RHF Final Energy:  -305.86992314888005
    Total Energy =                       -305.8699231488799910
  Basis Set: 6-31G*
  Basis Set:
  Charge       = 0
  Multiplicity = 1
  Basis Set: 6-31G*
  Basis Set:

    Orbital Energies (a.u.)
    -----------------------

    Doubly Occupied:

       1A    -20.606836     2A    -20.542413     3A    -11.372913
       4A    -11.282163     5A    -11.238907     6A    -11.221647
       7A     -1.470876     8A     -1.362054     9A     -1.066373
      10A     -0.975078    11A     -0.887030    12A     -0.775140
      13A     -0.695357    14A     -0.682092    15A     -0.671668
      16A     -0.621530    17A     -0.585991    18A     -0.561100
      19A     -0.546207    20A     -0.521746    21A     -0.516014
      22A     -0.498917    23A     -0.454959    24A     -0.433748

  @DF-RHF Final Energy:  -305.86993586106314

   => Energetics <=

    Nuclear Repulsion Energy =            248.4422385200137740
    One-Electron Energy =                -909.4428361085316510
    Two-Electron Energy =                 355.1306617274548216
    DFT Exchange-Correlation Energy =       0.0000000000000000
    Empirical Dispersion Energy =           0.0000000000000000
    PCM Polarization Energy =               0.0000000000000000
    EFP Energy =                            0.0000000000000000
    Total Energy =                       -305.8699358610630270
    Molecular point group: c1
  Basis Set: 6-31G*
  Basis Set:

  -Total Gradient:
     Atom            X                  Y                   Z
    ------   -----------------  -----------------  -----------------
       1       -0.000021765126    -0.000007028065     0.000002640915
       2        0.000204417844    -0.000316938270     0.000608722225
       3        0.000341924596    -0.000472741647     0.000299218505
       4       -0.000159947741     0.000334828409    -0.000509362174
       5       -0.000003506251    -0.000008481863    -0.000005828546
       6       -0.000329392400     0.000500159714    -0.000398913578
       7        0.000008026860    -0.000014549785     0.000005082161
       8       -0.000005810077     0.000002447311     0.000006114320
       9       -0.000004375413     0.000002525166     0.000001203996
      10       -0.000005709981    -0.000001345161    -0.000006456658
      11       -0.000029183041    -0.000033079250    -0.000007057491
      12        0.000003068397     0.000004985255     0.000001650038
      13       -0.000005331247     0.000001552737     0.000002677718
      14        0.000007583582     0.000007665447     0.000000308568

  **** Optimization is complete! (in 6 steps) ****
    Final optimized geometry and variables:
    Molecular point group: c1

    Geometry (in Angstrom), charge = 0, multiplicity = 1:

    O            1.362791652862    -0.733477144723    -0.543535483568
    C            0.315849390956    -0.351345142035    -0.128186858032
    C           -0.944301904675    -1.187445997495    -0.132791193172
    O            0.145746304695     0.845769514722     0.412920519380
    C           -2.259102843974    -0.410204643950    -0.127578773687
    H           -0.876141556671    -1.834332228686    -0.998509414323
    H           -0.885562123804    -1.832241304617     0.740656227689
    H           -2.331786030064     0.247174836188    -0.987172109564
    H           -3.094227764401    -1.101479013325    -0.164722809015
    H           -2.358203915563     0.195070189247     0.764057580144
    C            1.285482425501     1.683645845870     0.487798216171
    H            2.055126677045     1.223310079281     1.090240887513
    H            0.947962910622     2.599879688547     0.946531280921
    H            1.676847639781     1.879932601268    -0.499777621049

  Mulliken Charges: (a.u.)
   Center  Symbol    Alpha    Beta     Spin     Total
       1     O     4.28772  4.28772  0.00000 -0.57545
       2     C     2.60838  2.60838  0.00000  0.78325
       3     C     3.20629  3.20629  0.00000 -0.41258
       4     O     4.30318  4.30318  0.00000 -0.60636
       5     C     3.24077  3.24077  0.00000 -0.48154
       6     H     0.39700  0.39700  0.00000  0.20601
       7     H     0.39958  0.39958  0.00000  0.20084
       8     H     0.41505  0.41505  0.00000  0.16990
       9     H     0.41605  0.41605  0.00000  0.16791
      10     H     0.40835  0.40835  0.00000  0.18330
      11     C     3.09265  3.09265  0.00000 -0.18530
      12     H     0.40841  0.40841  0.00000  0.18318
      13     H     0.40858  0.40858  0.00000  0.18284
      14     H     0.40799  0.40799  0.00000  0.18402

   Total alpha = 24.00000, Total beta = 24.00000, Total charge =  0.00000
