  ==> Input File <==

--------------------------------------------------------------------------
set {
	reference rhf
	basis cc-pvtz
}

set_num_threads( 4 )
memory 2 gb

molecule MOL {
0 1

H	 -2.244850	 -0.101423	 2.541469
C	 -1.967753	 -1.151730	 2.595845
O	 -0.778949	 -1.399331	 1.922807
H	 -1.823025	 -1.419794	 3.632225
H	 -2.786723	 -1.744686	 2.192639
C	 -0.817485	 -1.108296	 0.564334
C	 0.548544	 -1.314013	 -0.040638
H	 -1.529274	 -1.760723	 0.058700
H	 -1.130139	 -0.079410	 0.399803
O	 1.401606	 -0.295166	 0.366636
H	 0.933272	 -2.284067	 0.266626
H	 0.456626	 -1.317653	 -1.126691
C	 2.714315	 -0.441627	 -0.061017
H	 2.765292	 -0.641548	 -1.128869
H	 3.305661	 0.447341	 0.150952
H	 3.143725	 -1.278506	 0.470147

	symmetry c1
}
set optking {
	frozen_dihedral = ("
		7 10 13 14
	")
}

ee = optimize('scf')
oeprop('DIPOLE', 'QUADRUPOLE', 'MULLIKEN_CHARGES')
f=open( 'psi4out.xyz', 'w' )
f.write( "16  " )
f.write( str(ee) + "\n" )
f.write( MOL.save_string_xyz() )
f.close()
--------------------------------------------------------------------------

    Molecular point group: c1
  Charge       = 0
  Multiplicity = 1
  Basis Set: CC-PVTZ
  Basis Set:
  @DF-RHF Final Energy:  -307.09672223084476
    Total Energy =                       -307.0967222308444207
    Molecular point group: c1
  Basis Set: CC-PVTZ
  Basis Set:
  Basis Set: CC-PVTZ
  Basis Set:
  @DF-RHF Final Energy:  -307.09750704865826
    Total Energy =                       -307.0975070486579739
  Basis Set: CC-PVTZ
  Basis Set:
  Basis Set: CC-PVTZ
  Basis Set:
  @DF-RHF Final Energy:  -307.09770230383691
    Total Energy =                       -307.0977023038373090
  Basis Set: CC-PVTZ
  Basis Set:
  Charge       = 0
  Multiplicity = 1
  Basis Set: CC-PVTZ
  Basis Set:

    Orbital Energies (a.u.)
    -----------------------

    Doubly Occupied:

       1A    -20.547850     2A    -20.547555     3A    -11.267597
       4A    -11.266911     5A    -11.261625     6A    -11.261600
       7A     -1.391685     8A     -1.374468     9A     -1.032075
      10A     -0.937177    11A     -0.892254    12A     -0.824496
      13A     -0.686392    14A     -0.682806    15A     -0.659656
      16A     -0.637603    17A     -0.632393    18A     -0.598740
      19A     -0.550316    20A     -0.536802    21A     -0.509938
      22A     -0.480091    23A     -0.464869    24A     -0.422883
      25A     -0.413535

  @DF-RHF Final Energy:  -307.09770342446967

   => Energetics <=

    Nuclear Repulsion Energy =            258.9186137960639940
    One-Electron Energy =                -932.2699970334325599
    Two-Electron Energy =                 366.2536798128987812
    DFT Exchange-Correlation Energy =       0.0000000000000000
    Empirical Dispersion Energy =           0.0000000000000000
    PCM Polarization Energy =               0.0000000000000000
    EFP Energy =                            0.0000000000000000
    Total Energy =                       -307.0977034244697279
    Molecular point group: c1
  Basis Set: CC-PVTZ
  Basis Set:

  -Total Gradient:
     Atom            X                  Y                   Z
    ------   -----------------  -----------------  -----------------
       1        0.000001856895     0.000000061654    -0.000001806679
       2        0.000003808003    -0.000004694593     0.000008392058
       3       -0.000015616311    -0.000017409550     0.000020237398
       4       -0.000002808117    -0.000000125663     0.000000510662
       5       -0.000002151591    -0.000000575218     0.000000231449
       6        0.000080822330     0.000101824570     0.000048462493
       7       -0.000198888274     0.000513672301    -0.001072929913
       8        0.000063445891    -0.000001741453    -0.000015836395
       9       -0.000026221021     0.000019789150    -0.000013113554
      10        0.000319504082    -0.001224164415     0.001468048295
      11        0.000020710837     0.000020177920     0.000015613106
      12       -0.000008179662    -0.000008424134    -0.000011915260
      13        0.000001087648     0.001988374902    -0.000748937929
      14       -0.000137161257    -0.001406273882     0.000266259218
      15       -0.000061740618     0.000019637070     0.000017169299
      16       -0.000038468836    -0.000000128657     0.000019615751

  **** Optimization is complete! (in 4 steps) ****
    Final optimized geometry and variables:
    Molecular point group: c1

    Geometry (in Angstrom), charge = 0, multiplicity = 1:

    H           -2.425479396959     0.854208883465     1.648536454520
    C           -2.153936463229    -0.197736826111     1.698800073718
    O           -0.966922149121    -0.449097595239     1.023967813961
    H           -2.009933187549    -0.470483197421     2.734052091467
    H           -2.976300637625    -0.784839315656     1.293919732482
    C           -1.004770395548    -0.152677251813    -0.333358735823
    C            0.359515526100    -0.363427226926    -0.940231376137
    H           -1.720151878301    -0.799527193678    -0.841080598062
    H           -1.312056616834     0.878464655003    -0.493918272146
    O            1.216852933540     0.651304164546    -0.531607975740
    H            0.739195450787    -1.336397224455    -0.635435116892
    H            0.267456554357    -0.363400247965    -2.026052536979
    C            2.530752806738     0.497424254132    -0.954356486497
    H            2.586668263074     0.295487747227    -2.022202673601
    H            3.059541281013     1.414702238000    -0.740688104866
    H            3.020728789468    -0.320540589986    -0.430781886598

  Mulliken Charges: (a.u.)
   Center  Symbol    Alpha    Beta     Spin     Total
       1     H     0.47016  0.47016  0.00000  0.05968
       2     C     3.03198  3.03198  0.00000 -0.06397
       3     O     4.17055  4.17055  0.00000 -0.34110
       4     H     0.44634  0.44634  0.00000  0.10731
       5     H     0.47367  0.47367  0.00000  0.05265
       6     C     2.96073  2.96073  0.00000  0.07854
       7     C     2.96047  2.96047  0.00000  0.07906
       8     H     0.47608  0.47608  0.00000  0.04784
       9     H     0.47077  0.47077  0.00000  0.05846
      10     O     4.17087  4.17087  0.00000 -0.34174
      11     H     0.47134  0.47134  0.00000  0.05731
      12     H     0.47538  0.47538  0.00000  0.04924
      13     C     3.03176  3.03176  0.00000 -0.06351
      14     H     0.47500  0.47500  0.00000  0.05000
      15     H     0.44702  0.44702  0.00000  0.10596
      16     H     0.46786  0.46786  0.00000  0.06427

   Total alpha = 25.00000, Total beta = 25.00000, Total charge =  0.00000
