                              Psi4 1.0.54 Driver

  ==> Input File <==

--------------------------------------------------------------------------
set {
	reference rhf
	basis cc-pvtz
}

set_num_threads( 4 )
memory 2 gb

molecule MOL {
0 1

H	 -5.933112	 -3.253590	 -0.797987
O	 -6.209874	 -3.822333	 -0.103895
C	 -5.161946	 -4.677344	 0.270373
C	 -4.053089	 -3.976382	 1.040942
H	 -5.610443	 -5.438813	 0.894068
H	 -4.750293	 -5.178243	 -0.603750
C	 -3.286294	 -2.935150	 0.228716
H	 -4.485935	 -3.508367	 1.920012
H	 -3.361178	 -4.736303	 1.396156
C	 -2.160451	 -2.276497	 1.024636
H	 -3.975736	 -2.173517	 -0.119978
H	 -2.867021	 -3.407487	 -0.658072
C	 -1.311023	 -1.277304	 0.237018
H	 -2.581906	 -1.780832	 1.895796
H	 -1.507060	 -3.055605	 1.407441
C	 -2.041121	 -0.006551	 -0.194127
H	 -0.459957	 -0.995209	 0.850725
H	 -0.898923	 -1.770520	 -0.640516
C	 -3.489218	 0.042606	 0.286507
H	 -2.022185	 0.066287	 -1.279394
H	 -1.518764	 0.869305	 0.178730
C	 -4.219984	 1.311773	 -0.139038
H	 -4.022855	 -0.824300	 -0.093339
H	 -3.510372	 -0.038577	 1.370031
H	 -4.244251	 1.405725	 -1.219696
H	 -5.244345	 1.313233	 0.215630
H	 -3.732090	 2.196311	 0.257073

	symmetry c1
}
set optking {
	frozen_dihedral = ("
		10 13 16 20
	")
}

ee,wfn = optimize('scf', return_wfn=True)
oeprop( wfn, 'DIPOLE', 'QUADRUPOLE', 'MULLIKEN_CHARGES')
f=open( 'psi4out.xyz', 'w' )
f.write( "27  " )
f.write( str(ee) + "\n" )
f.write( MOL.save_string_xyz() )
f.close()
--------------------------------------------------------------------------

    Molecular point group: c1
  Charge       = 0
  Multiplicity = 1
  Basis Set: CC-PVTZ
  Basis Set:
  @DF-RHF Final Energy:  -388.39488487709912
    Total Energy =                       -388.3948848770995710
    Molecular point group: c1
  Basis Set: CC-PVTZ
  Basis Set:
  Basis Set: CC-PVTZ
  Basis Set:
  @DF-RHF Final Energy:  -388.41104124853695
    Total Energy =                       -388.4110412485367760
  Basis Set: CC-PVTZ
  Basis Set:
  Basis Set: CC-PVTZ
  Basis Set:
  @DF-RHF Final Energy:  -388.41463138730376
    Total Energy =                       -388.4146313873034160
  Basis Set: CC-PVTZ
  Basis Set:
  Basis Set: CC-PVTZ
  Basis Set:
  @DF-RHF Final Energy:  -388.41561855153833
    Total Energy =                       -388.4156185515378183
  Basis Set: CC-PVTZ
  Basis Set:
  @DF-RHF Final Energy:  -388.41189737102053
    Total Energy =                       -388.4118973710203591
  @DF-RHF Final Energy:  -388.41610717736165
    Total Energy =                       -388.4161071773614822
  Basis Set: CC-PVTZ
  Basis Set:
  @DF-RHF Final Energy:  -388.41620642367945
    Total Energy =                       -388.4162064236795686
  Basis Set: CC-PVTZ
  Basis Set:
  Basis Set: CC-PVTZ
  Basis Set:
  @DF-RHF Final Energy:  -388.41622356255618
    Total Energy =                       -388.4162235625565245
  Basis Set: CC-PVTZ
  Basis Set:
  Basis Set: CC-PVTZ
  Basis Set:
  @DF-RHF Final Energy:  -388.41622722985346
    Total Energy =                       -388.4162272298532343
  Basis Set: CC-PVTZ
  Basis Set:
  Charge       = 0
  Multiplicity = 1
  Basis Set: CC-PVTZ
  Basis Set:

    Orbital Energies (a.u.)
    -----------------------

    Doubly Occupied:

       1A    -20.545461     2A    -11.265008     3A    -11.216173
       4A    -11.214129     5A    -11.213667     6A    -11.213492
       7A    -11.213018     8A    -11.212477     9A    -11.206686
      10A     -1.363317    11A     -1.093097    12A     -1.059701
      13A     -1.010485    14A     -0.949799    15A     -0.887543
      16A     -0.834827    17A     -0.799374    18A     -0.764996
      19A     -0.696739    20A     -0.647167    21A     -0.642373
      22A     -0.615971    23A     -0.602401    24A     -0.582648
      25A     -0.574656    26A     -0.571816    27A     -0.533917
      28A     -0.514906    29A     -0.511904    30A     -0.498848
      31A     -0.486175    32A     -0.484661    33A     -0.468740
      34A     -0.447333    35A     -0.446397    36A     -0.444830
      37A     -0.423689

  @DF-RHF Final Energy:  -388.41622818767780

   => Energetics <=

    Nuclear Repulsion Energy =            470.5911421890563133
    One-Electron Energy =               -1459.4978830579705118
    Two-Electron Energy =                 600.4905126812363960
    DFT Exchange-Correlation Energy =       0.0000000000000000
    Empirical Dispersion Energy =           0.0000000000000000
    PCM Polarization Energy =               0.0000000000000000
    EFP Energy =                            0.0000000000000000
    Total Energy =                       -388.4162281876778025
    Molecular point group: c1
  Basis Set: CC-PVTZ
  Basis Set:

  -Total Gradient:
     Atom            X                  Y                   Z
    ------   -----------------  -----------------  -----------------
       1        0.000004611044    -0.000001068852     0.000001159045
       2       -0.000008728788    -0.000011980988     0.000001340013
       3       -0.000001829937     0.000023604292    -0.000007684379
       4       -0.000017439868     0.000009938808    -0.000005136020
       5       -0.000005006650    -0.000002928265     0.000008947659
       6        0.000009936504    -0.000006372550    -0.000011727449
       7        0.000014575614     0.000015887686     0.000011311161
       8       -0.000021516826     0.000004878087     0.000015307149
       9        0.000011103098     0.000005855644    -0.000002359013
      10        0.000730156770     0.001347210581     0.002736308470
      11       -0.000030506110    -0.000002605753    -0.000014017507
      12        0.000026191516     0.000008568475     0.000005437009
      13       -0.000273627146    -0.001437375750    -0.003977461564
      14       -0.000011195659     0.000005113220    -0.000007503074
      15        0.000023764885    -0.000017647905     0.000012848085
      16       -0.003893394393    -0.002077140106     0.000810652562
      17        0.000002823099    -0.000008375678     0.000021815428
      18        0.000004844644    -0.000011333580    -0.000010590384
      19       -0.000037182169    -0.000036235110     0.000003785927
      20        0.003449811168     0.002204942722     0.000417092173
      21        0.000021970450     0.000000159575    -0.000000916814
      22        0.000022480157    -0.000014094976     0.000021463184
      23       -0.000028603413    -0.000010751372    -0.000004500995
      24        0.000010637236     0.000004265943    -0.000012367298
      25       -0.000003871467    -0.000001489921    -0.000023684179
      26       -0.000005791491    -0.000003088232     0.000011208879
      27        0.000005787736     0.000012064018    -0.000000728064

  **** Optimization is complete! (in 10 steps) ****
    Final optimized geometry and variables:
    Molecular point group: c1

    Geometry (in Angstrom), charge = 0, multiplicity = 1:

    H           -1.714754654508    -2.038847344616    -1.633333091608
    O           -2.090367329206    -2.547712874331    -0.939356953227
    C           -1.077779262733    -3.134086126638    -0.164591121180
    C           -0.343416387750    -2.141457671645     0.724106089679
    H           -1.568295712117    -3.876823112725     0.450018631420
    H           -0.369356192163    -3.659912439496    -0.801735597624
    C            0.448293700732    -1.082333782666    -0.038809191102
    H           -1.066660526194    -1.659103542435     1.374772194233
    H            0.332316851503    -2.703014519046     1.365046348441
    C            1.244646535150    -0.154810328830     0.880057389702
    H           -0.227264053398    -0.498047011772    -0.654267858752
    H            1.140056230364    -1.572175719825    -0.721597322132
    C            2.009440993703     0.958958855038     0.153241007431
    H            0.589247088619     0.264610856594     1.634696356861
    H            1.967955009191    -0.760262235661     1.418648750031
    C            1.237719701060     2.240998166935    -0.269250398808
    H            2.819569777875     1.266044027572     0.805292057816
    H            2.489972079881     0.530431199275    -0.720244710219
    C           -0.213284980303     2.406455995876     0.180796809704
    H            1.294950064744     2.353851384188    -1.347612924160
    H            1.788045707253     3.094430437875     0.116078707211
    C           -0.812146285193     3.723528463281    -0.304326968898
    H           -0.825515985097     1.588622508652    -0.180195795448
    H           -0.267857870895     2.374580918310     1.264096493603
    H           -0.810899622491     3.779059990652    -1.387905396093
    H           -1.836943451522     3.834092437784     0.031086364683
    H           -0.248286204206     4.571958677391     0.068942648523

  Mulliken Charges: (a.u.)
   Center  Symbol    Alpha    Beta     Spin     Total
       1     H     0.39219  0.39219  0.00000  0.21562
       2     O     4.20581  4.20581  0.00000 -0.41161
       3     C     2.97947  2.97947  0.00000  0.04106
       4     C     3.08951  3.08951  0.00000 -0.17903
       5     H     0.44873  0.44873  0.00000  0.10254
       6     H     0.46926  0.46926  0.00000  0.06149
       7     C     3.10320  3.10320  0.00000 -0.20639
       8     H     0.45064  0.45064  0.00000  0.09871
       9     H     0.45556  0.45556  0.00000  0.08888
      10     C     3.10907  3.10907  0.00000 -0.21814
      11     H     0.45659  0.45659  0.00000  0.08682
      12     H     0.45073  0.45073  0.00000  0.09854
      13     C     3.10576  3.10576  0.00000 -0.21152
      14     H     0.44766  0.44766  0.00000  0.10468
      15     H     0.44265  0.44265  0.00000  0.11470
      16     C     3.09508  3.09508  0.00000 -0.19016
      17     H     0.44491  0.44491  0.00000  0.11019
      18     H     0.45094  0.45094  0.00000  0.09813
      19     C     3.09154  3.09154  0.00000 -0.18309
      20     H     0.45060  0.45060  0.00000  0.09880
      21     H     0.45107  0.45107  0.00000  0.09786
      22     C     3.15181  3.15181  0.00000 -0.30361
      23     H     0.44870  0.44870  0.00000  0.10259
      24     H     0.45198  0.45198  0.00000  0.09603
      25     H     0.45522  0.45522  0.00000  0.08956
      26     H     0.44732  0.44732  0.00000  0.10536
      27     H     0.45400  0.45400  0.00000  0.09199

   Total alpha = 37.00000, Total beta = 37.00000, Total charge = -0.00000

*** Psi4 exiting successfully. Buy a developer a beer!
