  ==> Input File <==

--------------------------------------------------------------------------
set {
	reference rhf
	basis 6-31G*
}

set_num_threads( 1 )
memory 2 gb

molecule MOL {
0 1

H	 -2.675559	 -0.745389	 1.813095
O	 -1.836999	 -0.453041	 1.485796
C	 -2.026376	 0.340750	 0.341611
C	 -0.673256	 0.843270	 -0.132153
H	 -2.499507	 -0.239632	 -0.448478
H	 -2.678738	 1.184012	 0.565187
C	 0.486613	 -0.083066	 0.235839
H	 -0.715586	 0.970948	 -1.210718
H	 -0.508072	 1.829858	 0.297090
C	 1.840406	 0.433480	 -0.254303
H	 0.300215	 -1.068318	 -0.178947
H	 0.519509	 -0.203625	 1.318070
C	 3.000220	 -0.489290	 0.118523
H	 1.809207	 0.553576	 -1.335192
H	 2.021860	 1.424500	 0.157276
H	 2.864959	 -1.479103	 -0.307933
H	 3.946603	 -0.099227	 -0.243630
H	 3.080049	 -0.602997	 1.196117

	symmetry c1
}
set optking {
	frozen_dihedral = ("
		14 10 7 11,
		10 7 4 8,
		1 2 3 4
	")
}

ee = energy('scf')
oeprop('DIPOLE', 'QUADRUPOLE', 'MULLIKEN_CHARGES')
f=open( 'psi4out.xyz', 'w' )
f.write( "18  " )
f.write( str(ee) + "\n" )
f.write( MOL.save_string_xyz() )
f.close()
--------------------------------------------------------------------------

    Molecular point group: c1

    Geometry (in Angstrom), charge = 0, multiplicity = 1:

       Center              X                  Y                   Z               Mass
    ------------   -----------------  -----------------  -----------------  -----------------
           H         -2.762475201213    -0.822946053672     1.482587513100     1.007825032070
           O         -1.923915201213    -0.530598053672     1.155288513100    15.994914619560
           C         -2.113292201213     0.263192946328     0.011103513100    12.000000000000
           C         -0.760172201213     0.765712946328    -0.462660486900    12.000000000000
           H         -2.586423201213    -0.317189053672    -0.778985486900     1.007825032070
           H         -2.765654201213     1.106454946328     0.234679513100     1.007825032070
           C          0.399696798787    -0.160623053672    -0.094668486900    12.000000000000
           H         -0.802502201213     0.893390946328    -1.541225486900     1.007825032070
           H         -0.594988201213     1.752300946328    -0.033417486900     1.007825032070
           C          1.753489798787     0.355922946328    -0.584810486900    12.000000000000
           H          0.213298798787    -1.145875053672    -0.509454486900     1.007825032070
           H          0.432592798787    -0.281182053672     0.987562513100     1.007825032070
           C          2.913303798787    -0.566847053672    -0.211984486900    12.000000000000
           H          1.722290798787     0.476018946328    -1.665699486900     1.007825032070
           H          1.934943798787     1.346942946328    -0.173231486900     1.007825032070
           H          2.778042798787    -1.556660053672    -0.638440486900     1.007825032070
           H          3.859686798787    -0.176784053672    -0.574137486900     1.007825032070
           H          2.993132798787    -0.680554053672     0.865609513100     1.007825032070

  Charge       = 0
  Multiplicity = 1
  Basis Set: 6-31G*
  Basis Set:

    Orbital Energies (a.u.)
    -----------------------

    Doubly Occupied:

       1A    -20.552990     2A    -11.267680     3A    -11.210781
       4A    -11.207643     5A    -11.202227     6A    -11.201994
       7A     -1.360559     8A     -1.071501     9A     -1.007211
      10A     -0.912509    11A     -0.816269    12A     -0.779982
      13A     -0.699669    14A     -0.654417    15A     -0.616710
      16A     -0.580455    17A     -0.570539    18A     -0.551654
      19A     -0.516832    20A     -0.501484    21A     -0.491072
      22A     -0.463250    23A     -0.453840    24A     -0.443492
      25A     -0.426579

  @DF-RHF Final Energy:  -271.17405221769002

   => Energetics <=

    Nuclear Repulsion Energy =            250.9372313763143723
    One-Electron Energy =                -865.0999070659768222
    Two-Electron Energy =                 342.9886234719723461
    DFT Exchange-Correlation Energy =       0.0000000000000000
    Empirical Dispersion Energy =           0.0000000000000000
    PCM Polarization Energy =               0.0000000000000000
    EFP Energy =                            0.0000000000000000
    Total Energy =                       -271.1740522176901322

  Mulliken Charges: (a.u.)
   Center  Symbol    Alpha    Beta     Spin     Total
       1     H     0.28060  0.28060  0.00000  0.43881
       2     O     4.37076  4.37076  0.00000 -0.74151
       3     C     2.99235  2.99235  0.00000  0.01531
       4     C     3.17036  3.17036  0.00000 -0.34071
       5     H     0.43165  0.43165  0.00000  0.13670
       6     H     0.42941  0.42941  0.00000  0.14118
       7     C     3.14579  3.14579  0.00000 -0.29157
       8     H     0.42204  0.42204  0.00000  0.15592
       9     H     0.42021  0.42021  0.00000  0.15958
      10     C     3.15206  3.15206  0.00000 -0.30411
      11     H     0.42331  0.42331  0.00000  0.15337
      12     H     0.40717  0.40717  0.00000  0.18565
      13     C     3.23847  3.23847  0.00000 -0.47695
      14     H     0.42647  0.42647  0.00000  0.14706
      15     H     0.42459  0.42459  0.00000  0.15082
      16     H     0.42234  0.42234  0.00000  0.15533
      17     H     0.42113  0.42113  0.00000  0.15774
      18     H     0.42131  0.42131  0.00000  0.15738

   Total alpha = 25.00000, Total beta = 25.00000, Total charge = -0.00000
