  ==> Input File <==

--------------------------------------------------------------------------
set {
	reference rhf
	basis 6-31G*
}

set_num_threads( 4 )
memory 2 gb

molecule MOL {
0 1

H	 0.457789	 -4.162029	 -3.589958
O	 1.397813	 -4.086826	 -3.665930
C	 1.770537	 -2.733252	 -3.611449
C	 1.647008	 -2.131437	 -2.215997
H	 2.803207	 -2.699137	 -3.934099
H	 1.189797	 -2.149104	 -4.324395
C	 0.213278	 -2.087639	 -1.681799
H	 2.272269	 -2.704851	 -1.536577
H	 2.053108	 -1.121682	 -2.245080
C	 0.115918	 -1.429151	 -0.302766
H	 -0.179285	 -3.099324	 -1.629316
H	 -0.418033	 -1.542170	 -2.383405
C	 -1.309753	 -1.282496	 0.241564
H	 0.715789	 -1.995357	 0.407455
H	 0.566378	 -0.440392	 -0.358817
C	 -2.037799	 -0.007733	 -0.193645
H	 -1.890610	 -2.142323	 -0.085726
H	 -1.285946	 -1.330893	 1.329189
C	 -3.489788	 0.042957	 0.286558
H	 -2.017067	 0.064384	 -1.280144
H	 -1.513726	 0.868678	 0.179924
C	 -4.216917	 1.317354	 -0.141063
H	 -4.025645	 -0.823308	 -0.095450
H	 -3.513059	 -0.038752	 1.371301
H	 -4.239342	 1.411634	 -1.223113
H	 -5.243387	 1.322503	 0.212445
H	 -3.726170	 2.201406	 0.256408

	symmetry c1
}
set optking {
	frozen_dihedral = ("
		14 10 13 16
	")
}

ee = optimize('scf')
oeprop('DIPOLE', 'QUADRUPOLE', 'MULLIKEN_CHARGES')
f=open( 'psi4out.xyz', 'w' )
f.write( "27  " )
f.write( str(ee) + "\n" )
f.write( MOL.save_string_xyz() )
f.close()
--------------------------------------------------------------------------

    Molecular point group: c1
  Charge       = 0
  Multiplicity = 1
  Basis Set: 6-31G*
  Basis Set:
  @DF-RHF Final Energy:  -388.28017956767394
    Total Energy =                       -388.2801795676739403
    Molecular point group: c1
  Basis Set: 6-31G*
  Basis Set:
  Basis Set: 6-31G*
  Basis Set:
  @DF-RHF Final Energy:  -388.28051037558782
    Total Energy =                       -388.2805103755878235
  Basis Set: 6-31G*
  Basis Set:
  Basis Set: 6-31G*
  Basis Set:
  @DF-RHF Final Energy:  -388.28056909550162
    Total Energy =                       -388.2805690955018463
  Basis Set: 6-31G*
  Basis Set:
  Charge       = 0
  Multiplicity = 1
  Basis Set: 6-31G*
  Basis Set:

    Orbital Energies (a.u.)
    -----------------------

    Doubly Occupied:

       1A    -20.552249     2A    -11.267135     3A    -11.220533
       4A    -11.216964     5A    -11.216294     6A    -11.215547
       7A    -11.215318     8A    -11.214790     9A    -11.209782
      10A     -1.359055    11A     -1.094973    12A     -1.062086
      13A     -1.011517    14A     -0.949431    15A     -0.885874
      16A     -0.820586    17A     -0.797950    18A     -0.784567
      19A     -0.694097    20A     -0.647283    21A     -0.640780
      22A     -0.614652    23A     -0.603720    24A     -0.582174
      25A     -0.578908    26A     -0.554145    27A     -0.542861
      28A     -0.519505    29A     -0.507654    30A     -0.503224
      31A     -0.480793    32A     -0.474854    33A     -0.469119
      34A     -0.463415    35A     -0.452141    36A     -0.441330
      37A     -0.422649

  @DF-RHF Final Energy:  -388.28056928273145

   => Energetics <=

    Nuclear Repulsion Energy =            456.9544028834693563
    One-Electron Energy =               -1431.8940363717520086
    Two-Electron Energy =                 586.6590642055524540
    DFT Exchange-Correlation Energy =       0.0000000000000000
    Empirical Dispersion Energy =           0.0000000000000000
    PCM Polarization Energy =               0.0000000000000000
    EFP Energy =                            0.0000000000000000
    Total Energy =                       -388.2805692827301982
    Molecular point group: c1
  Basis Set: 6-31G*
  Basis Set:

  -Total Gradient:
     Atom            X                  Y                   Z
    ------   -----------------  -----------------  -----------------
       1       -0.000020642654     0.000002909936     0.000017064887
       2       -0.000048965620    -0.000012573909     0.000025822784
       3        0.000067402853    -0.000012234990     0.000034899443
       4       -0.000001980420    -0.000012800840    -0.000028761017
       5        0.000008995458     0.000019839812     0.000000309001
       6        0.000001778811     0.000006715528     0.000021853549
       7       -0.000017732863    -0.000016120222     0.000001902293
       8        0.000015309699     0.000015495062    -0.000011750701
       9       -0.000010532223     0.000017244644    -0.000023627912
      10       -0.000621229249    -0.002724475458    -0.001076603753
      11        0.000010707132    -0.000040501320    -0.000053513244
      12       -0.000015178909     0.000026576502     0.000047918311
      13       -0.000802219164    -0.000812637974    -0.002061559206
      14        0.000689214791     0.002495104200     0.001370037282
      15       -0.000013125712     0.000030194723     0.000053654585
      16        0.000700687979     0.000994256222     0.001643616966
      17        0.000061759609     0.000025297950     0.000001448304
      18       -0.000003388957    -0.000008722317     0.000040589719
      19       -0.000023916110    -0.000002832597    -0.000013106776
      20       -0.000016724427     0.000010626348    -0.000013337482
      21        0.000012047083    -0.000007806241    -0.000002561385
      22        0.000028566260     0.000016970214     0.000043626802
      23        0.000004124855     0.000012395706    -0.000030635527
      24       -0.000011633864    -0.000024780577     0.000001503386
      25       -0.000002498855    -0.000017758725     0.000008204359
      26        0.000007920615     0.000000251683     0.000012437899
      27        0.000001253875     0.000019366643    -0.000009432563

  **** Optimization is complete! (in 4 steps) ****
    Final optimized geometry and variables:
    Molecular point group: c1

    Geometry (in Angstrom), charge = 0, multiplicity = 1:

    H            1.102824803380    -2.746893987120    -2.269930406885
    O            2.042804908453    -2.675170841366    -2.350112580010
    C            2.419713372074    -1.322468235450    -2.306570512832
    C            2.293464338769    -0.708081735615    -0.916893243168
    H            3.453505527453    -1.294747764552    -2.626108879810
    H            1.843275460244    -0.742707403356    -3.026593813108
    C            0.858561401024    -0.654925581892    -0.388051835965
    H            2.914764251566    -1.277213198006    -0.230276838500
    H            2.702175296382     0.300373651093    -0.953276814876
    C            0.754244690777    -0.010227359532     0.995796877715
    H            0.453955252701    -1.663469853807    -0.331439207727
    H            0.234361489869    -0.108021457272    -1.093628797327
    C           -0.683301483494     0.102221470984     1.528551085141
    H            1.362991929709    -0.569159276545     1.702157517787
    H            1.196916335968     0.983943139489     0.960059339662
    C           -1.410607022601     1.374055080608     1.083289765697
    H           -1.254661584274    -0.774028818165     1.228216694042
    H           -0.662250312538     0.087256580447     2.615894004139
    C           -2.852536664998     1.452487852075     1.587873333629
    H           -1.410086606721     1.442249229711    -0.003383039664
    H           -0.857279261179     2.240112221930     1.441928187292
    C           -3.562954907580     2.739860006268     1.171106929646
    H           -3.411005291266     0.595873325428     1.216390604991
    H           -2.858654766218     1.372394718666     2.672938102577
    H           -3.605091594901     2.832028596292     0.089402416171
    H           -4.581931967544     2.765974611996     1.544729052371
    H           -3.047041742920     3.614871299713     1.556381677112

  Mulliken Charges: (a.u.)
   Center  Symbol    Alpha    Beta     Spin     Total
       1     H     0.27990  0.27990  0.00000  0.44019
       2     O     4.37092  4.37092  0.00000 -0.74183
       3     C     2.99732  2.99732  0.00000  0.00536
       4     C     3.16143  3.16143  0.00000 -0.32286
       5     H     0.41438  0.41438  0.00000  0.17123
       6     H     0.43213  0.43213  0.00000  0.13575
       7     C     3.16229  3.16229  0.00000 -0.32457
       8     H     0.41495  0.41495  0.00000  0.17010
       9     H     0.42398  0.42398  0.00000  0.15203
      10     C     3.15400  3.15400  0.00000 -0.30799
      11     H     0.42509  0.42509  0.00000  0.14982
      12     H     0.42386  0.42386  0.00000  0.15228
      13     C     3.15485  3.15485  0.00000 -0.30969
      14     H     0.41881  0.41881  0.00000  0.16238
      15     H     0.42262  0.42262  0.00000  0.15475
      16     C     3.15182  3.15182  0.00000 -0.30365
      17     H     0.42342  0.42342  0.00000  0.15316
      18     H     0.42061  0.42061  0.00000  0.15877
      19     C     3.15153  3.15153  0.00000 -0.30307
      20     H     0.42450  0.42450  0.00000  0.15101
      21     H     0.42334  0.42334  0.00000  0.15331
      22     C     3.23921  3.23921  0.00000 -0.47842
      23     H     0.42321  0.42321  0.00000  0.15359
      24     H     0.42283  0.42283  0.00000  0.15433
      25     H     0.42217  0.42217  0.00000  0.15566
      26     H     0.41915  0.41915  0.00000  0.16169
      27     H     0.42168  0.42168  0.00000  0.15665

   Total alpha = 37.00000, Total beta = 37.00000, Total charge = -0.00000
