  ==> Input File <==

--------------------------------------------------------------------------
set {
	reference rhf
	basis cc-pvtz
}

set_num_threads( 4 )
memory 2 gb

molecule MOL {
0 1

H	 3.889604	 0.356866	 -0.089510
N	 3.091268	 -0.241216	 -0.065538
C	 1.860978	 0.530248	 0.016256
H	 3.192566	 -0.835836	 0.730398
C	 0.644130	 -0.381765	 -0.031064
H	 1.835721	 1.204666	 -0.833114
H	 1.808789	 1.151975	 0.911067
C	 -0.678115	 0.376691	 0.025731
H	 0.693998	 -0.977147	 -0.936845
H	 0.693309	 -1.082142	 0.800523
C	 -1.027191	 0.878987	 1.423961
H	 -1.478046	 -0.268122	 -0.331034
H	 -0.642135	 1.221883	 -0.657810
C	 -2.352761	 1.631081	 1.477732
H	 -1.063161	 0.036143	 2.108515
H	 -0.231184	 1.526648	 1.781282
H	 -3.174792	 0.998632	 1.159122
H	 -2.570093	 1.973304	 2.483046
H	 -2.336315	 2.500646	 0.828947

	symmetry c1
}
set optking {
	frozen_dihedral = ("
		12 8 5 9
	")
}

ee = optimize('scf')
oeprop('DIPOLE', 'QUADRUPOLE', 'MULLIKEN_CHARGES')
f=open( 'psi4out.xyz', 'w' )
f.write( "19  " )
f.write( str(ee) + "\n" )
f.write( MOL.save_string_xyz() )
f.close()
--------------------------------------------------------------------------

    Molecular point group: c1
  Charge       = 0
  Multiplicity = 1
  Basis Set: CC-PVTZ
  Basis Set:
  @DF-RHF Final Energy:  -251.44565869717229
    Total Energy =                       -251.4456586971722345
    Molecular point group: c1
  Basis Set: CC-PVTZ
  Basis Set:
  Basis Set: CC-PVTZ
  Basis Set:
  @DF-RHF Final Energy:  -251.44592345413972
    Total Energy =                       -251.4459234541397450
  Basis Set: CC-PVTZ
  Basis Set:
  Basis Set: CC-PVTZ
  Basis Set:
  @DF-RHF Final Energy:  -251.44597082337674
    Total Energy =                       -251.4459708233767401
  Basis Set: CC-PVTZ
  Basis Set:
  Basis Set: CC-PVTZ
  Basis Set:
  @DF-RHF Final Energy:  -251.44597269917773
    Total Energy =                       -251.4459726991777870
  Basis Set: CC-PVTZ
  Basis Set:
  Charge       = 0
  Multiplicity = 1
  Basis Set: CC-PVTZ
  Basis Set:

    Orbital Energies (a.u.)
    -----------------------

    Doubly Occupied:

       1A    -15.526320     2A    -11.237600     3A    -11.212575
       4A    -11.210875     5A    -11.207955     6A    -11.206156
       7A     -1.178009     8A     -1.073730     9A     -0.998285
      10A     -0.900503    11A     -0.826549    12A     -0.780403
      13A     -0.658722    14A     -0.636354    15A     -0.630279
      16A     -0.589145    17A     -0.568582    18A     -0.549511
      19A     -0.529684    20A     -0.503532    21A     -0.481168
      22A     -0.463393    23A     -0.458990    24A     -0.451541
      25A     -0.383105

  @DF-RHF Final Energy:  -251.44597298842095

   => Energetics <=

    Nuclear Repulsion Energy =            248.8228242859372301
    One-Electron Energy =                -832.0116599949374177
    Two-Electron Energy =                 331.7428627205793532
    DFT Exchange-Correlation Energy =       0.0000000000000000
    Empirical Dispersion Energy =           0.0000000000000000
    PCM Polarization Energy =               0.0000000000000000
    EFP Energy =                            0.0000000000000000
    Total Energy =                       -251.4459729884208059
    Molecular point group: c1
  Basis Set: CC-PVTZ
  Basis Set:

  -Total Gradient:
     Atom            X                  Y                   Z
    ------   -----------------  -----------------  -----------------
       1        0.000019511642    -0.000009846995    -0.000003864900
       2        0.000018729098     0.000026285403    -0.000000825119
       3       -0.000015696844    -0.000042792612    -0.000013180520
       4       -0.000008885104     0.000009471010    -0.000001810606
       5        0.000571098988     0.001166101604    -0.000873562368
       6        0.000010646557     0.000007222971     0.000003782534
       7       -0.000013203360    -0.000008561198     0.000000650803
       8       -0.000267004289    -0.000655302878     0.001377997788
       9       -0.000443920897    -0.000850544011     0.000533905763
      10        0.000007844233    -0.000007365499     0.000006685108
      11       -0.000019026936    -0.000048470640    -0.000029981235
      12        0.000142682840     0.000374862929    -0.001007315247
      13       -0.000006045180     0.000015137360    -0.000010750745
      14        0.000003184314     0.000014972830     0.000014744051
      15        0.000000544683     0.000002638400     0.000007971979
      16        0.000000589110    -0.000003248056    -0.000013190665
      17        0.000012316117     0.000000296527     0.000004980018
      18       -0.000015416998     0.000015418615     0.000006116805
      19        0.000002052029    -0.000006275760    -0.000002353443

  **** Optimization is complete! (in 5 steps) ****
    Final optimized geometry and variables:
    Molecular point group: c1

    Geometry (in Angstrom), charge = 0, multiplicity = 1:

    H            3.622288698869    -0.159365801861    -0.608436272561
    N            2.811469447853    -0.740262741184    -0.578075242966
    C            1.599508167183     0.057672463366    -0.469042375493
    H            2.911973326969    -1.343818405963     0.211273019222
    C            0.365957418450    -0.834293720791    -0.508498403124
    H            1.572068385975     0.735678299046    -1.315620416600
    H            1.583458989727     0.675196171822     0.427881234404
    C           -0.963745849420    -0.080444675116    -0.431588263671
    H            0.402301323344    -1.418906941297    -1.420679407798
    H            0.418996578476    -1.551375251750     0.308879367623
    C           -1.335857974357     0.429277079477     0.959760048581
    H           -1.755023332446    -0.734096349481    -0.786855521645
    H           -0.941382836601     0.757025265527    -1.125935698245
    C           -2.678757266955     1.152087174833     0.985984543930
    H           -1.366471377894    -0.410549969273     1.648791878860
    H           -0.565856522955     1.098608760138     1.329476239261
    H           -3.480690266605     0.499391156788     0.657290895193
    H           -2.921051507857     1.496167817272     1.985017311785
    H           -2.670122115107     2.017419032442     0.331507852213

  Mulliken Charges: (a.u.)
   Center  Symbol    Alpha    Beta     Spin     Total
       1     H     0.43012  0.43012  0.00000  0.13976
       2     N     3.69008  3.69008  0.00000 -0.38016
       3     C     3.02474  3.02474  0.00000 -0.04948
       4     H     0.43045  0.43045  0.00000  0.13910
       5     C     3.09139  3.09139  0.00000 -0.18279
       6     H     0.45717  0.45717  0.00000  0.08565
       7     H     0.46629  0.46629  0.00000  0.06743
       8     C     3.10185  3.10185  0.00000 -0.20369
       9     H     0.44279  0.44279  0.00000  0.11442
      10     H     0.46045  0.46045  0.00000  0.07910
      11     C     3.08310  3.08310  0.00000 -0.16619
      12     H     0.44770  0.44770  0.00000  0.10460
      13     H     0.45538  0.45538  0.00000  0.08923
      14     C     3.14960  3.14960  0.00000 -0.29920
      15     H     0.45514  0.45514  0.00000  0.08972
      16     H     0.45533  0.45533  0.00000  0.08934
      17     H     0.45466  0.45466  0.00000  0.09067
      18     H     0.44873  0.44873  0.00000  0.10254
      19     H     0.45502  0.45502  0.00000  0.08996

   Total alpha = 25.00000, Total beta = 25.00000, Total charge = -0.00000
