                              Psi4 1.0.54 Driver

  ==> Input File <==

--------------------------------------------------------------------------
set {
	reference rhf
	basis cc-pvtz
}

set_num_threads( 4 )
memory 2 gb

molecule MOL {
0 1

H	 -3.337266	 0.886294	 1.115049
C	 -3.340071	 0.420940	 0.119899
C	 -2.475884	 1.107185	 -0.902912
O	 -3.998684	 -0.539686	 -0.081929
C	 -1.042241	 1.331618	 -0.413042
H	 -2.499192	 0.528774	 -1.817369
H	 -2.939420	 2.070372	 -1.104679
C	 -0.247837	 0.040196	 -0.230469
H	 -0.532447	 1.970610	 -1.125880
H	 -1.064275	 1.882593	 0.524047
C	 1.181757	 0.280428	 0.247371
H	 -0.228090	 -0.500362	 -1.173079
H	 -0.757751	 -0.608765	 0.476825
C	 2.151032	 -0.811012	 -0.202643
H	 1.515939	 1.247397	 -0.115449
H	 1.191514	 0.341223	 1.333422
C	 3.580021	 -0.656538	 0.320835
H	 2.170545	 -0.847575	 -1.289412
H	 1.766632	 -1.772905	 0.124928
C	 4.327657	 0.562694	 -0.213579
H	 4.138806	 -1.549270	 0.057813
H	 3.561991	 -0.620783	 1.406976
H	 4.355973	 0.557257	 -1.298551
H	 3.867136	 1.491650	 0.100501
H	 5.351524	 0.571613	 0.142204

	symmetry c1
}
set optking {
	frozen_dihedral = ("
		12 8 11 14
	")
}

ee,wfn = optimize('scf', return_wfn=True)
oeprop( wfn, 'DIPOLE', 'QUADRUPOLE', 'MULLIKEN_CHARGES')
f=open( 'psi4out.xyz', 'w' )
f.write( "25  " )
f.write( str(ee) + "\n" )
f.write( MOL.save_string_xyz() )
f.close()
--------------------------------------------------------------------------

    Molecular point group: c1
  Charge       = 0
  Multiplicity = 1
  Basis Set: CC-PVTZ
  Basis Set:
  @DF-RHF Final Energy:  -387.25794663211929
    Total Energy =                       -387.2579466321196833
    Molecular point group: c1
  Basis Set: CC-PVTZ
  Basis Set:
  Basis Set: CC-PVTZ
  Basis Set:
  @DF-RHF Final Energy:  -387.25809710556103
    Total Energy =                       -387.2580971055610917
  Basis Set: CC-PVTZ
  Basis Set:
  Basis Set: CC-PVTZ
  Basis Set:
  @DF-RHF Final Energy:  -387.25818038231000
    Total Energy =                       -387.2581803823102291
  Basis Set: CC-PVTZ
  Basis Set:
  Basis Set: CC-PVTZ
  Basis Set:
  @DF-RHF Final Energy:  -387.25787529996273
    Total Energy =                       -387.2578752999630751
  Basis Set: CC-PVTZ
  Basis Set:
  Basis Set: CC-PVTZ
  Basis Set:
  @DF-RHF Final Energy:  -387.25819887810911
    Total Energy =                       -387.2581988781087148
  Basis Set: CC-PVTZ
  Basis Set:
  Charge       = 0
  Multiplicity = 1
  Basis Set: CC-PVTZ
  Basis Set:

    Orbital Energies (a.u.)
    -----------------------

    Doubly Occupied:

       1A    -20.551440     2A    -11.321127     3A    -11.233956
       4A    -11.233260     5A    -11.221513     6A    -11.217620
       7A    -11.216360     8A    -11.215507     9A    -11.209090
      10A     -1.406369    11A     -1.104767    12A     -1.071095
      13A     -1.013970    14A     -0.943609    15A     -0.876473
      16A     -0.821887    17A     -0.789100    18A     -0.781879
      19A     -0.668773    20A     -0.658605    21A     -0.636528
      22A     -0.626377    23A     -0.606513    24A     -0.596486
      25A     -0.571707    26A     -0.557343    27A     -0.530759
      28A     -0.528229    29A     -0.513855    30A     -0.498729
      31A     -0.490474    32A     -0.478385    33A     -0.464142
      34A     -0.458397    35A     -0.442712    36A     -0.412034

  @DF-RHF Final Energy:  -387.25819858946301

   => Energetics <=

    Nuclear Repulsion Energy =            439.5783666742424316
    One-Electron Energy =               -1395.7349943307017384
    Two-Electron Energy =                 568.8984290669964139
    DFT Exchange-Correlation Energy =       0.0000000000000000
    Empirical Dispersion Energy =           0.0000000000000000
    PCM Polarization Energy =               0.0000000000000000
    EFP Energy =                            0.0000000000000000
    Total Energy =                       -387.2581985894628360
    Molecular point group: c1
  Basis Set: CC-PVTZ
  Basis Set:

  -Total Gradient:
     Atom            X                  Y                   Z
    ------   -----------------  -----------------  -----------------
       1        0.000142905137    -0.000061957010     0.000141565153
       2       -0.000358430124     0.000455769033    -0.000127678043
       3        0.000031590045    -0.000069334446     0.000003576730
       4       -0.000019076115    -0.000343586377     0.000023778857
       5        0.000059478305    -0.000051209050    -0.000009778975
       6       -0.000008511863    -0.000018273880    -0.000059771037
       7       -0.000030404179    -0.000006605103     0.000000765617
       8        0.000473148513     0.004999029392    -0.003576019975
       9        0.000073459688     0.000019312787    -0.000039320120
      10        0.000035486690     0.000011893106     0.000060585275
      11       -0.000886565674    -0.002934634016     0.003912771252
      12       -0.000116331184    -0.003488840039     0.002010098993
      13       -0.000005075169     0.000030623442     0.000042327599
      14        0.000529837556     0.001443636246    -0.002413748745
      15        0.000016386574     0.000036643120     0.000012446592
      16        0.000011312558    -0.000036906693     0.000035290931
      17        0.000042465577    -0.000037072550    -0.000032653031
      18       -0.000045530412    -0.000017320774    -0.000053005901
      19       -0.000049697158    -0.000006855052     0.000039328858
      20        0.000022007411     0.000046721404     0.000028780051
      21        0.000021494541     0.000002539936    -0.000011682438
      22        0.000012910651    -0.000040369315     0.000054808387
      23        0.000013159223     0.000006289964    -0.000058546425
      24       -0.000023747525     0.000015434490    -0.000007588537
      25        0.000057726928     0.000045071388     0.000023668929

  **** Optimization is complete! (in 6 steps) ****
    Final optimized geometry and variables:
    Molecular point group: c1

    Geometry (in Angstrom), charge = 0, multiplicity = 1:

    H           -3.299073243476     0.719398993761     1.317291875496
    C           -3.344382794642     0.239685040646     0.329852333049
    C           -2.524773474142     0.910755745478    -0.739025538563
    O           -4.008456613611    -0.725379077276     0.171007292000
    C           -1.073310414498     1.149363975521    -0.312383071264
    H           -2.582454072285     0.316247661497    -1.641729473762
    H           -3.000504072970     1.868406401855    -0.938867931119
    C           -0.263046967463    -0.133196812743    -0.150366647649
    H           -0.596818412553     1.783972771563    -1.051650038412
    H           -1.058630716369     1.709490813742     0.619853300370
    C            1.171857616025     0.104998416023     0.332520380959
    H           -0.250137379640    -0.686658314089    -1.085088001861
    H           -0.764146924950    -0.793486936549     0.553355406091
    C            2.135685369776    -0.999515141005    -0.098045084524
    H            1.522950125746     1.054202993556    -0.060675007761
    H            1.181679535651     0.203897054402     1.414479284929
    C            3.552054391515    -0.874160948113     0.465640663531
    H            2.181782897628    -1.022263546935    -1.184185362230
    H            1.727766604356    -1.959764241870     0.207180309255
    C            4.323365879948     0.353918074634    -0.012656695527
    H            4.109735301639    -1.763961679198     0.190421042654
    H            3.506322416233    -0.870452913078     1.551549013390
    H            4.378294579519     0.381840646898    -1.096422147479
    H            3.863221804293     1.276971621625     0.318935629392
    H            5.338315817644     0.342321518993     0.367919477911

  Mulliken Charges: (a.u.)
   Center  Symbol    Alpha    Beta     Spin     Total
       1     H     0.46425  0.46425  0.00000  0.07149
       2     C     2.90492  2.90492  0.00000  0.19016
       3     C     3.08868  3.08868  0.00000 -0.17735
       4     O     4.16614  4.16614  0.00000 -0.33229
       5     C     3.11622  3.11622  0.00000 -0.23245
       6     H     0.44286  0.44286  0.00000  0.11429
       7     H     0.44054  0.44054  0.00000  0.11892
       8     C     3.09264  3.09264  0.00000 -0.18527
       9     H     0.44313  0.44313  0.00000  0.11373
      10     H     0.44879  0.44879  0.00000  0.10242
      11     C     3.09383  3.09383  0.00000 -0.18765
      12     H     0.44921  0.44921  0.00000  0.10158
      13     H     0.44691  0.44691  0.00000  0.10618
      14     C     3.09512  3.09512  0.00000 -0.19023
      15     H     0.45387  0.45387  0.00000  0.09226
      16     H     0.45155  0.45155  0.00000  0.09691
      17     C     3.09084  3.09084  0.00000 -0.18168
      18     H     0.45343  0.45343  0.00000  0.09313
      19     H     0.44742  0.44742  0.00000  0.10515
      20     C     3.15322  3.15322  0.00000 -0.30643
      21     H     0.44778  0.44778  0.00000  0.10443
      22     H     0.45422  0.45422  0.00000  0.09155
      23     H     0.45473  0.45473  0.00000  0.09054
      24     H     0.45405  0.45405  0.00000  0.09191
      25     H     0.44565  0.44565  0.00000  0.10871

   Total alpha = 36.00000, Total beta = 36.00000, Total charge = -0.00000

*** Psi4 exiting successfully. Buy a developer a beer!
