  ==> Input File <==

--------------------------------------------------------------------------
set {
	reference rhf
	basis cc-pvtz
}

set_num_threads( 4 )
memory 2 gb

molecule MOL {
0 1

H	 -1.088256	 -1.364742	 0.152233
O	 -1.432053	 -0.565244	 -0.200812
C	 -0.727158	 0.534527	 0.310686
C	 0.680222	 0.664433	 -0.252229
H	 -1.306802	 1.408001	 0.044211
H	 -0.690821	 0.490158	 1.397609
C	 1.656857	 -0.381786	 0.276597
H	 0.627475	 0.602903	 -1.334201
H	 1.048006	 1.657478	 -0.008827
H	 1.353435	 -1.385598	 0.000154
H	 2.649593	 -0.225578	 -0.127910
H	 1.731841	 -0.338586	 1.358940

	symmetry c1
}
set optking {
	frozen_dihedral = ("
		8 4 3 2
	")
}

ee = optimize('scf')
oeprop('DIPOLE', 'QUADRUPOLE', 'MULLIKEN_CHARGES')
f=open( 'psi4out.xyz', 'w' )
f.write( "12  " )
f.write( str(ee) + "\n" )
f.write( MOL.save_string_xyz() )
f.close()
--------------------------------------------------------------------------

    Molecular point group: c1
  Charge       = 0
  Multiplicity = 1
  Basis Set: CC-PVTZ
  Basis Set:
  @DF-RHF Final Energy:  -193.19029872409939
    Total Energy =                       -193.1902987240994776
    Molecular point group: c1
  Basis Set: CC-PVTZ
  Basis Set:
  Basis Set: CC-PVTZ
  Basis Set:
  @DF-RHF Final Energy:  -193.19033813470602
    Total Energy =                       -193.1903381347060531
  Basis Set: CC-PVTZ
  Basis Set:
  Basis Set: CC-PVTZ
  Basis Set:
  @DF-RHF Final Energy:  -193.19034874581871
    Total Energy =                       -193.1903487458188238
  Basis Set: CC-PVTZ
  Basis Set:
  Charge       = 0
  Multiplicity = 1
  Basis Set: CC-PVTZ
  Basis Set:

    Orbital Energies (a.u.)
    -----------------------

    Doubly Occupied:

       1A    -20.546337     2A    -11.265873     3A    -11.216828
       4A    -11.215001     5A     -1.364214     6A     -1.052080
       7A     -0.927590     8A     -0.811100     9A     -0.698977
      10A     -0.638782    11A     -0.599133    12A     -0.590338
      13A     -0.543829    14A     -0.510640    15A     -0.492011
      16A     -0.469837    17A     -0.433200

  @DF-RHF Final Energy:  -193.19034890278431

   => Energetics <=

    Nuclear Repulsion Energy =            133.0020384256182524
    One-Electron Energy =                -525.6332410269790216
    Two-Electron Energy =                 199.4408536985764044
    DFT Exchange-Correlation Energy =       0.0000000000000000
    Empirical Dispersion Energy =           0.0000000000000000
    PCM Polarization Energy =               0.0000000000000000
    EFP Energy =                            0.0000000000000000
    Total Energy =                       -193.1903489027843648
    Molecular point group: c1
  Basis Set: CC-PVTZ
  Basis Set:

  -Total Gradient:
     Atom            X                  Y                   Z
    ------   -----------------  -----------------  -----------------
       1       -0.000001970768     0.000002445801     0.000000591135
       2       -0.000508112757     0.000855042230    -0.001116201106
       3        0.000756558589    -0.001576291817     0.001544980025
       4       -0.000457565236     0.002595535018    -0.000544838676
       5        0.000001621277     0.000008866952     0.000005233342
       6       -0.000000967781    -0.000008914104    -0.000005550160
       7       -0.000000668316     0.000007864026     0.000001493871
       8        0.000219732306    -0.001868242622     0.000095580663
       9       -0.000011539441    -0.000008927935     0.000003364935
      10       -0.000007700211     0.000000509539     0.000000367602
      11       -0.000005268966    -0.000001894692     0.000002104252
      12        0.000015881301    -0.000005992400     0.000012874116

  **** Optimization is complete! (in 4 steps) ****
    Final optimized geometry and variables:
    Molecular point group: c1

    Geometry (in Angstrom), charge = 0, multiplicity = 1:

    H           -1.083077375415    -1.395265569412     0.110034405572
    O           -1.435166282706    -0.598501482523    -0.241127835145
    C           -0.743253818031     0.508718432570     0.272616041720
    C            0.666099529720     0.646411128200    -0.284677187347
    H           -1.329529039462     1.373739388540    -0.006908130894
    H           -0.717071294681     0.473975985100     1.359937122139
    C            1.637924232392    -0.409739807323     0.235754461682
    H            0.610686520361     0.580383769384    -1.366029242331
    H            1.039694228952     1.635251378532    -0.036051518237
    H            1.318318843413    -1.411784708447    -0.031007275998
    H            2.627128651236    -0.269127235591    -0.183069310599
    H            1.727159507818    -0.363748255517     1.316489684299

  Mulliken Charges: (a.u.)
   Center  Symbol    Alpha    Beta     Spin     Total
       1     H     0.39321  0.39321  0.00000  0.21359
       2     O     4.20476  4.20476  0.00000 -0.40952
       3     C     2.97461  2.97461  0.00000  0.05079
       4     C     3.08535  3.08535  0.00000 -0.17070
       5     H     0.45007  0.45007  0.00000  0.09986
       6     H     0.47126  0.47126  0.00000  0.05748
       7     C     3.15588  3.15588  0.00000 -0.31175
       8     H     0.45060  0.45060  0.00000  0.09880
       9     H     0.45593  0.45593  0.00000  0.08814
      10     H     0.45925  0.45925  0.00000  0.08150
      11     H     0.44496  0.44496  0.00000  0.11008
      12     H     0.45414  0.45414  0.00000  0.09173

   Total alpha = 17.00000, Total beta = 17.00000, Total charge = -0.00000
