  ==> Input File <==

--------------------------------------------------------------------------
set {
	reference rhf
	basis cc-pvtz
}

set_num_threads( 4 )
memory 2 gb

molecule MOL {
0 1

H	 1.801459	 0.824581	 -2.733388
C	 1.686052	 0.611819	 -1.675939
C	 0.234552	 0.275098	 -1.362458
H	 1.998826	 1.482937	 -1.113582
H	 2.358113	 -0.201253	 -1.431027
N	 0.000297	 0.000045	 0.046090
H	 -0.374810	 1.120311	 -1.651265
H	 -0.095267	 -0.561819	 -1.984326
C	 -1.359159	 0.315706	 0.454404
C	 0.392970	 -1.348968	 0.420918
C	 -2.416729	 -0.286720	 -0.460525
H	 -1.478729	 1.390261	 0.442008
H	 -1.539692	 0.003361	 1.486761
C	 0.802245	 -1.471536	 1.882393
H	 1.236889	 -1.641063	 -0.188624
H	 -0.403458	 -2.064198	 0.197177
H	 -2.285276	 0.073129	 -1.473515
H	 -2.371743	 -1.368476	 -0.483209
H	 -3.408658	 -0.007405	 -0.121593
H	 1.637243	 -0.815201	 2.094313
H	 -0.004054	 -1.212767	 2.557448
H	 1.100204	 -2.490823	 2.103950

	symmetry c1
}
set optking {
	frozen_dihedral = ("
		3 6 9 11
	")
}

ee = optimize('scf')
oeprop('DIPOLE', 'QUADRUPOLE', 'MULLIKEN_CHARGES')
f=open( 'psi4out.xyz', 'w' )
f.write( "22  " )
f.write( str(ee) + "\n" )
f.write( MOL.save_string_xyz() )
f.close()
--------------------------------------------------------------------------

    Molecular point group: c1
  Charge       = 0
  Multiplicity = 1
  Basis Set: CC-PVTZ
  Basis Set:
  @DF-RHF Final Energy:  -290.47172143866931
    Total Energy =                       -290.4717214386690216
    Molecular point group: c1
  Basis Set: CC-PVTZ
  Basis Set:
  Basis Set: CC-PVTZ
  Basis Set:
  @DF-RHF Final Energy:  -290.47295027367682
    Total Energy =                       -290.4729502736769291
  Basis Set: CC-PVTZ
  Basis Set:
  Basis Set: CC-PVTZ
  Basis Set:
  @DF-RHF Final Energy:  -290.47392212377821
    Total Energy =                       -290.4739221237784363
  Basis Set: CC-PVTZ
  Basis Set:
  Basis Set: CC-PVTZ
  Basis Set:
  @DF-RHF Final Energy:  -290.47396182325531
    Total Energy =                       -290.4739618232552516
  Basis Set: CC-PVTZ
  Basis Set:
  Basis Set: CC-PVTZ
  Basis Set:
  @DF-RHF Final Energy:  -290.47398710984811
    Total Energy =                       -290.4739871098480535
  Basis Set: CC-PVTZ
  Basis Set:
  Basis Set: CC-PVTZ
  Basis Set:
  @DF-RHF Final Energy:  -290.47399193199414
    Total Energy =                       -290.4739919319943056
  Basis Set: CC-PVTZ
  Basis Set:
  Basis Set: CC-PVTZ
  Basis Set:
  @DF-RHF Final Energy:  -290.47399357992003
    Total Energy =                       -290.4739935799202613
  Basis Set: CC-PVTZ
  Basis Set:
  Charge       = 0
  Multiplicity = 1
  Basis Set: CC-PVTZ
  Basis Set:

    Orbital Energies (a.u.)
    -----------------------

    Doubly Occupied:

       1A    -15.530912     2A    -11.238656     3A    -11.238440
       4A    -11.237374     5A    -11.205477     6A    -11.202950
       7A    -11.202259     8A     -1.223323     9A     -1.024036
      10A     -1.021882    11A     -0.956158    12A     -0.858518
      13A     -0.847041    14A     -0.759214    15A     -0.659755
      16A     -0.643354    17A     -0.618081    18A     -0.596455
      19A     -0.574243    20A     -0.549987    21A     -0.544063
      22A     -0.518156    23A     -0.511617    24A     -0.508452
      25A     -0.493879    26A     -0.485959    27A     -0.463942
      28A     -0.462262    29A     -0.338297

  @DF-RHF Final Energy:  -290.47399381493216

   => Energetics <=

    Nuclear Repulsion Energy =            338.7699371401326403
    One-Electron Energy =               -1063.4583729458590824
    Two-Electron Energy =                 434.2144419907941142
    DFT Exchange-Correlation Energy =       0.0000000000000000
    Empirical Dispersion Energy =           0.0000000000000000
    PCM Polarization Energy =               0.0000000000000000
    EFP Energy =                            0.0000000000000000
    Total Energy =                       -290.4739938149322711
    Molecular point group: c1
  Basis Set: CC-PVTZ
  Basis Set:

  -Total Gradient:
     Atom            X                  Y                   Z
    ------   -----------------  -----------------  -----------------
       1        0.000002092066    -0.000001703147    -0.000009371360
       2        0.000006515412     0.000017830566     0.000016619007
       3       -0.000884325534    -0.002899055551    -0.000745670103
       4        0.000001262515     0.000002260047    -0.000004174408
       5        0.000003170331    -0.000001136574    -0.000014382520
       6        0.001357209807     0.005209975243     0.000486732625
       7        0.000003295010    -0.000009168242     0.000009670440
       8        0.000011274188    -0.000002307172    -0.000016257373
       9       -0.000541678065    -0.004748957386     0.002006689665
      10       -0.000089035572     0.000024654321    -0.000119654179
      11        0.000060903734     0.002431568314    -0.001592422847
      12        0.000008256185     0.000010038564     0.000011395634
      13        0.000030420769     0.000001256684    -0.000045453592
      14        0.000007529889    -0.000002537277     0.000012601814
      15        0.000004558098     0.000011061694    -0.000000077124
      16       -0.000003743715    -0.000016973365    -0.000001253199
      17       -0.000001134783     0.000000338649     0.000010269484
      18       -0.000003097305    -0.000018022166    -0.000001732138
      19        0.000016350903    -0.000001413282    -0.000000813026
      20        0.000000873904    -0.000001135197     0.000002687064
      21        0.000011425031    -0.000002757829    -0.000006618150
      22       -0.000002122867    -0.000003816894     0.000001214287

  **** Optimization is complete! (in 8 steps) ****
    Final optimized geometry and variables:
    Molecular point group: c1

    Geometry (in Angstrom), charge = 0, multiplicity = 1:

    H            1.979849217541     1.130005128743    -2.560707124751
    C            1.825338174273     0.878039450969    -1.516841306985
    C            0.359270244806     0.546240510286    -1.268622516466
    H            2.126214840312     1.723302129673    -0.910283306861
    H            2.480930485922     0.048750936600    -1.281875330285
    N            0.074474149816     0.250492946848     0.124126179297
    H           -0.227726077425     1.412055116879    -1.550945066419
    H            0.050210590585    -0.264243339710    -1.931936097927
    C           -1.289567306382     0.563069991061     0.524749882869
    C            0.502612456175    -1.078887854082     0.533704154034
    C           -2.418967430944     0.027438329678    -0.360343093697
    H           -1.383373554619     1.643756321807     0.574505897192
    H           -1.432428640546     0.204739729595     1.535049550444
    C            0.957449138299    -1.137456114855     1.986408748680
    H            1.332827675210    -1.379236487151    -0.090206003652
    H           -0.279160767113    -1.821710383509     0.366120110130
    H           -2.390739169473     0.453461166971    -1.354875380655
    H           -2.385519103397    -1.051742530073    -0.458547614562
    H           -3.375784104682     0.286776617467     0.079568683917
    H            1.782073546708    -0.454760394575     2.150280586127
    H            0.163608939117    -0.870756635649     2.673167129103
    H            1.284672523281    -2.140945085675     2.237955836741

  Mulliken Charges: (a.u.)
   Center  Symbol    Alpha    Beta     Spin     Total
       1     H     0.45301  0.45301  0.00000  0.09398
       2     C     3.14366  3.14366  0.00000 -0.28731
       3     C     3.03970  3.03970  0.00000 -0.07941
       4     H     0.45169  0.45169  0.00000  0.09662
       5     H     0.45635  0.45635  0.00000  0.08730
       6     N     3.61899  3.61899  0.00000 -0.23797
       7     H     0.45263  0.45263  0.00000  0.09474
       8     H     0.46290  0.46290  0.00000  0.07421
       9     C     3.05649  3.05649  0.00000 -0.11298
      10     C     3.04763  3.04763  0.00000 -0.09526
      11     C     3.15438  3.15438  0.00000 -0.30876
      12     H     0.44935  0.44935  0.00000  0.10131
      13     H     0.45112  0.45112  0.00000  0.09776
      14     C     3.13789  3.13789  0.00000 -0.27578
      15     H     0.44910  0.44910  0.00000  0.10180
      16     H     0.46115  0.46115  0.00000  0.07769
      17     H     0.45189  0.45189  0.00000  0.09623
      18     H     0.45253  0.45253  0.00000  0.09493
      19     H     0.44682  0.44682  0.00000  0.10635
      20     H     0.45179  0.45179  0.00000  0.09642
      21     H     0.45641  0.45641  0.00000  0.08718
      22     H     0.45452  0.45452  0.00000  0.09096

   Total alpha = 29.00000, Total beta = 29.00000, Total charge =  0.00000
