                              Psi4 1.0.54 Driver

  ==> Input File <==

--------------------------------------------------------------------------
set {
	reference rhf
	basis cc-pvtz
}

set_num_threads( 4 )
memory 2 gb

molecule MOL {
0 1

H	 -0.583492	 2.436837	 -1.754023
C	 0.170813	 2.223500	 -0.984380
C	 0.062554	 0.862911	 -0.350953
O	 0.988942	 3.033677	 -0.717113
C	 -1.339253	 0.577611	 0.196911
H	 0.815452	 0.781871	 0.422398
H	 0.298052	 0.137474	 -1.126424
C	 -1.813142	 -0.849710	 -0.061612
H	 -2.032833	 1.276441	 -0.256032
H	 -1.357249	 0.782269	 1.263793
H	 -1.839268	 -1.063526	 -1.124230
H	 -2.810118	 -1.001930	 0.334000
H	 -1.159274	 -1.579980	 0.402282

	symmetry c1
}
set optking {
	frozen_dihedral = ("
		6 3 5 9
	")
}

ee,wfn = optimize('scf', return_wfn=True)
oeprop( wfn, 'DIPOLE', 'QUADRUPOLE', 'MULLIKEN_CHARGES')
f=open( 'psi4out.xyz', 'w' )
f.write( "13  " )
f.write( str(ee) + "\n" )
f.write( MOL.save_string_xyz() )
f.close()
--------------------------------------------------------------------------

    Molecular point group: c1
  Charge       = 0
  Multiplicity = 1
  Basis Set: CC-PVTZ
  Basis Set:
  @DF-RHF Final Energy:  -231.06759745084480
    Total Energy =                       -231.0675974508447439
    Molecular point group: c1
  Basis Set: CC-PVTZ
  Basis Set:
  Basis Set: CC-PVTZ
  Basis Set:
  @DF-RHF Final Energy:  -231.06787316722381
    Total Energy =                       -231.0678731672238087
  Basis Set: CC-PVTZ
  Basis Set:
  Basis Set: CC-PVTZ
  Basis Set:
  @DF-RHF Final Energy:  -231.06773002117967
    Total Energy =                       -231.0677300211796705
  Basis Set: CC-PVTZ
  Basis Set:
  Basis Set: CC-PVTZ
  Basis Set:
  @DF-RHF Final Energy:  -231.06797511090653
    Total Energy =                       -231.0679751109067013
  Basis Set: CC-PVTZ
  Basis Set:
  Basis Set: CC-PVTZ
  Basis Set:
  @DF-RHF Final Energy:  -231.06798463082436
    Total Energy =                       -231.0679846308242986
  Basis Set: CC-PVTZ
  Basis Set:
  Basis Set: CC-PVTZ
  Basis Set:
  @DF-RHF Final Energy:  -231.06798610171884
    Total Energy =                       -231.0679861017187022
  Basis Set: CC-PVTZ
  Basis Set:
  Charge       = 0
  Multiplicity = 1
  Basis Set: CC-PVTZ
  Basis Set:

    Orbital Energies (a.u.)
    -----------------------

    Doubly Occupied:

       1A    -20.552529     2A    -11.321856     3A    -11.237341
       4A    -11.234781     5A    -11.222855     6A     -1.407697
       7A     -1.086776     8A     -0.977996     9A     -0.842662
      10A     -0.794564    11A     -0.678940    12A     -0.647335
      13A     -0.623032    14A     -0.591164    15A     -0.571716
      16A     -0.529062    17A     -0.515815    18A     -0.490254
      19A     -0.485709    20A     -0.413151

  @DF-RHF Final Energy:  -231.06798682438009

   => Energetics <=

    Nuclear Repulsion Energy =            170.7065693625405913
    One-Electron Energy =                -651.0986460394951791
    Two-Electron Energy =                 249.3240898525743319
    DFT Exchange-Correlation Energy =       0.0000000000000000
    Empirical Dispersion Energy =           0.0000000000000000
    PCM Polarization Energy =               0.0000000000000000
    EFP Energy =                            0.0000000000000000
    Total Energy =                       -231.0679868243802844
    Molecular point group: c1
  Basis Set: CC-PVTZ
  Basis Set:

  -Total Gradient:
     Atom            X                  Y                   Z
    ------   -----------------  -----------------  -----------------
       1       -0.000023420064     0.000006311443     0.000056542321
       2        0.000125569187     0.000074640662     0.000045126212
       3        0.000470210654    -0.004134368632    -0.000310858982
       4       -0.000046184398    -0.000088579992    -0.000081706987
       5       -0.000798212057    -0.002055968492    -0.003295890837
       6       -0.000409934379     0.003735733185     0.000791893472
       7        0.000064829644    -0.000000253876    -0.000012787658
       8       -0.000036480022     0.000082593324     0.000080655423
       9        0.000590456605     0.002409704431     0.002769483806
      10       -0.000023363871    -0.000024885904     0.000015343929
      11       -0.000001694972     0.000014881025    -0.000036598456
      12        0.000082816694    -0.000000886960    -0.000030948852
      13        0.000005406979    -0.000018920212     0.000009746607

  **** Optimization is complete! (in 7 steps) ****
    Final optimized geometry and variables:
    Molecular point group: c1

    Geometry (in Angstrom), charge = 0, multiplicity = 1:

    H           -0.153711621436     1.300973244477    -1.381248168031
    C            0.574341039481     1.065757820494    -0.593389384149
    C            0.452670139339    -0.315646452466    -0.006464516347
    O            1.373807336205     1.872095920159    -0.265964645982
    C           -0.962817149773    -0.588320795674     0.534394491448
    H            1.200388237484    -0.397534505594     0.770134865472
    H            0.693879929734    -1.018256422750    -0.800030061723
    C           -1.429429276798    -2.023856318816     0.328047323011
    H           -1.670859349524     0.103029949733     0.086301240676
    H           -0.974891863355    -0.354026943740     1.592975790148
    H           -1.489510104000    -2.267331603579    -0.727205825463
    H           -2.409089719013    -2.181625928441     0.762636027035
    H           -0.743902674978    -2.725450748650     0.790898763436

  Mulliken Charges: (a.u.)
   Center  Symbol    Alpha    Beta     Spin     Total
       1     H     0.46687  0.46687  0.00000  0.06626
       2     C     2.90345  2.90345  0.00000  0.19310
       3     C     3.08189  3.08189  0.00000 -0.16378
       4     O     4.16385  4.16385  0.00000 -0.32771
       5     C     3.09553  3.09553  0.00000 -0.19107
       6     H     0.44118  0.44118  0.00000  0.11763
       7     H     0.45040  0.45040  0.00000  0.09920
       8     C     3.14669  3.14669  0.00000 -0.29337
       9     H     0.45274  0.45274  0.00000  0.09452
      10     H     0.44481  0.44481  0.00000  0.11038
      11     H     0.45488  0.45488  0.00000  0.09025
      12     H     0.44651  0.44651  0.00000  0.10698
      13     H     0.45120  0.45120  0.00000  0.09760

   Total alpha = 20.00000, Total beta = 20.00000, Total charge = -0.00000

*** Psi4 exiting successfully. Buy a developer a beer!
