                              Psi4 1.0.54 Driver

  ==> Input File <==

--------------------------------------------------------------------------
set {
	reference rhf
	basis cc-pvtz
}

set_num_threads( 4 )
memory 2 gb

molecule MOL {
0 1

O	 -1.757385	 -0.772361	 -0.206090
C	 -1.081510	 0.147522	 0.122720
C	 0.327029	 -0.064006	 0.641890
C	 -1.591290	 1.567541	 0.059958
C	 1.349460	 -0.017068	 -0.500215
H	 0.399029	 -1.014606	 1.159950
H	 0.538021	 0.726928	 1.350471
C	 2.779782	 -0.209014	 -0.009215
H	 1.115007	 -0.782959	 -1.233891
H	 1.259071	 0.936707	 -1.006644
H	 3.481860	 -0.160270	 -0.833072
H	 2.903471	 -1.171535	 0.475559
H	 3.052569	 0.559584	 0.705428
H	 -1.423316	 2.076458	 1.002584
H	 -2.642830	 1.574748	 -0.182338
H	 -1.040208	 2.111556	 -0.700443

	symmetry c1
}
set optking {
	frozen_dihedral = ("
		4 2 3 5
	")
}

ee,wfn = optimize('scf', return_wfn=True)
oeprop( wfn, 'DIPOLE', 'QUADRUPOLE', 'MULLIKEN_CHARGES')
f=open( 'psi4out.xyz', 'w' )
f.write( "16  " )
f.write( str(ee) + "\n" )
f.write( MOL.save_string_xyz() )
f.close()
--------------------------------------------------------------------------

    Molecular point group: c1
  Charge       = 0
  Multiplicity = 1
  Basis Set: CC-PVTZ
  Basis Set:
  @DF-RHF Final Energy:  -270.12836836564537
    Total Energy =                       -270.1283683656454855
    Molecular point group: c1
  Basis Set: CC-PVTZ
  Basis Set:
  Basis Set: CC-PVTZ
  Basis Set:
  @DF-RHF Final Energy:  -270.12715033792676
    Total Energy =                       -270.1271503379266505
  Basis Set: CC-PVTZ
  Basis Set:
  Basis Set: CC-PVTZ
  Basis Set:
  @DF-RHF Final Energy:  -270.12879285772067
    Total Energy =                       -270.1287928577206117
  Basis Set: CC-PVTZ
  Basis Set:
  Basis Set: CC-PVTZ
  Basis Set:
  @DF-RHF Final Energy:  -270.12926883019003
    Total Energy =                       -270.1292688301898579
  Basis Set: CC-PVTZ
  Basis Set:
  @DF-RHF Final Energy:  -270.12935183110255
    Total Energy =                       -270.1293518311025537
  @DF-RHF Final Energy:  -270.12923027506520
    Total Energy =                       -270.1292302750654244
  Basis Set: CC-PVTZ
  Basis Set:
  @DF-RHF Final Energy:  -270.12941187650529
    Total Energy =                       -270.1294118765054009
  Basis Set: CC-PVTZ
  Basis Set:
  Basis Set: CC-PVTZ
  Basis Set:
  @DF-RHF Final Energy:  -270.12942761777481
    Total Energy =                       -270.1294276177750930
  Basis Set: CC-PVTZ
  Basis Set:
  Basis Set: CC-PVTZ
  Basis Set:
  @DF-RHF Final Energy:  -270.12943412504956
    Total Energy =                       -270.1294341250494426
  Basis Set: CC-PVTZ
  Basis Set:
  Charge       = 0
  Multiplicity = 1
  Basis Set: CC-PVTZ
  Basis Set:

    Orbital Energies (a.u.)
    -----------------------

    Doubly Occupied:

       1A    -20.537476     2A    -11.319773     3A    -11.232184
       4A    -11.228542     5A    -11.227200     6A    -11.218023
       7A     -1.397467     8A     -1.084464     9A     -1.013846
      10A     -0.950773    11A     -0.830279    12A     -0.736676
      13A     -0.661294    14A     -0.651443    15A     -0.613767
      16A     -0.610349    17A     -0.577156    18A     -0.559078
      19A     -0.536850    20A     -0.520542    21A     -0.506038
      22A     -0.485446    23A     -0.474964    24A     -0.400592

  @DF-RHF Final Energy:  -270.12943424322577

   => Energetics <=

    Nuclear Repulsion Energy =            237.5249025785473407
    One-Electron Energy =                -836.5602271376289991
    Two-Electron Energy =                 328.9058903158558564
    DFT Exchange-Correlation Energy =       0.0000000000000000
    Empirical Dispersion Energy =           0.0000000000000000
    PCM Polarization Energy =               0.0000000000000000
    EFP Energy =                            0.0000000000000000
    Total Energy =                       -270.1294342432258304
    Molecular point group: c1
  Basis Set: CC-PVTZ
  Basis Set:

  -Total Gradient:
     Atom            X                  Y                   Z
    ------   -----------------  -----------------  -----------------
       1       -0.000000539274    -0.000012542212    -0.000001429275
       2       -0.000104966953     0.000063275521     0.000291310095
       3        0.000022547718    -0.000256142646    -0.000127473833
       4        0.000068871020     0.000026953530    -0.000193825035
       5        0.000000218925     0.000198326901     0.000026899890
       6       -0.000001203844    -0.000001105712     0.000002127640
       7       -0.000003418403    -0.000005407953    -0.000002102469
       8        0.000020404964    -0.000007870858     0.000004700772
       9        0.000003009565     0.000006632576     0.000005756273
      10       -0.000002090941    -0.000004929267    -0.000001102486
      11        0.000004286311    -0.000000827794     0.000002108737
      12        0.000000808722     0.000007790243    -0.000001388178
      13       -0.000002748815    -0.000006399767    -0.000006582714
      14       -0.000002650656    -0.000003569947    -0.000007129682
      15        0.000007206066     0.000006726507     0.000005408575
      16       -0.000009734409    -0.000010909122     0.000002721691

  **** Optimization is complete! (in 10 steps) ****
    Final optimized geometry and variables:
    Molecular point group: c1

    Geometry (in Angstrom), charge = 0, multiplicity = 1:

    O           -1.766706828509    -0.884864740630    -0.158247209998
    C           -1.091121347752     0.046100006927     0.138483411134
    C            0.330855835475    -0.142226117331     0.627630766355
    C           -1.605201957653     1.462417335104     0.029797443007
    C            1.326832521955    -0.143517712148    -0.538834142951
    H            0.376629901584    -1.090879081767     1.146586300976
    H            0.591262324058     0.644469840545     1.328617372513
    C            2.764349028388    -0.349682266636    -0.074926295450
    H            1.049121371418    -0.929315627324    -1.232024078851
    H            1.256258906158     0.792559298458    -1.084543122981
    H            3.446206258128    -0.354664664006    -0.916980152407
    H            2.873568103250    -1.294076539787     0.446502242707
    H            3.076367564332     0.439978634578     0.600171126742
    H           -1.732131091738     1.871105706324     1.027266245735
    H           -2.553308973282     1.473983459873    -0.485439235895
    H           -0.892836840418     2.094536647074    -0.487501558433

  Mulliken Charges: (a.u.)
   Center  Symbol    Alpha    Beta     Spin     Total
       1     O     4.17649  4.17649  0.00000 -0.35298
       2     C     2.85782  2.85782  0.00000  0.28436
       3     C     3.09756  3.09756  0.00000 -0.19512
       4     C     3.15514  3.15514  0.00000 -0.31027
       5     C     3.09270  3.09270  0.00000 -0.18540
       6     H     0.43899  0.43899  0.00000  0.12202
       7     H     0.45048  0.45048  0.00000  0.09905
       8     C     3.14885  3.14885  0.00000 -0.29770
       9     H     0.44191  0.44191  0.00000  0.11618
      10     H     0.45220  0.45220  0.00000  0.09560
      11     H     0.44613  0.44613  0.00000  0.10774
      12     H     0.45145  0.45145  0.00000  0.09711
      13     H     0.45490  0.45490  0.00000  0.09020
      14     H     0.44842  0.44842  0.00000  0.10315
      15     H     0.43592  0.43592  0.00000  0.12816
      16     H     0.45105  0.45105  0.00000  0.09790

   Total alpha = 24.00000, Total beta = 24.00000, Total charge = -0.00000

*** Psi4 exiting successfully. Buy a developer a beer!
