                              Psi4 1.0.54 Driver

  ==> Input File <==

--------------------------------------------------------------------------
set {
	reference rhf
	basis cc-pvtz
}

set_num_threads( 4 )
memory 2 gb

molecule MOL {
0 1

O	 2.434597	 2.023958	 0.343123
C	 1.503761	 2.233550	 1.050035
C	 0.250776	 1.382341	 1.013915
C	 1.508811	 3.374769	 2.041912
C	 0.288398	 0.247429	 0.000314
H	 0.087664	 0.997168	 2.017958
H	 -0.589630	 2.044904	 0.819663
C	 -0.993089	 -0.581367	 -0.000217
H	 1.139353	 -0.389971	 0.211767
H	 0.461599	 0.658735	 -0.987594
C	 -2.258482	 0.271340	 0.000669
H	 -1.002280	 -1.233920	 -0.870484
H	 -1.002061	 -1.235367	 0.868958
C	 -3.544441	 -0.550271	 -0.000253
H	 -2.250545	 0.925250	 -0.867923
H	 -2.250598	 0.923423	 0.870642
C	 -4.804551	 0.308747	 0.000556
H	 -3.553737	 -1.201524	 -0.870151
H	 -3.553831	 -1.203282	 0.868313
H	 -4.842050	 0.949078	 -0.874436
H	 -5.698404	 -0.304480	 -0.000254
H	 -4.842277	 0.947103	 0.876982
H	 1.368631	 2.996216	 3.048438
H	 2.444783	 3.908330	 1.981407
H	 0.688048	 4.052900	 1.835690

	symmetry c1
}
set optking {
	frozen_dihedral = ("
		9 5 8 12
	")
}

ee,wfn = optimize('scf', return_wfn=True)
oeprop( wfn, 'DIPOLE', 'QUADRUPOLE', 'MULLIKEN_CHARGES')
f=open( 'psi4out.xyz', 'w' )
f.write( "25  " )
f.write( str(ee) + "\n" )
f.write( MOL.save_string_xyz() )
f.close()
--------------------------------------------------------------------------

    Molecular point group: c1
  Charge       = 0
  Multiplicity = 1
  Basis Set: CC-PVTZ
  Basis Set:
  @DF-RHF Final Energy:  -387.26938448010361
    Total Energy =                       -387.2693844801038949
    Molecular point group: c1
  Basis Set: CC-PVTZ
  Basis Set:
  Basis Set: CC-PVTZ
  Basis Set:
  @DF-RHF Final Energy:  -387.26888444848106
    Total Energy =                       -387.2688844484812307
  Basis Set: CC-PVTZ
  Basis Set:
  Basis Set: CC-PVTZ
  Basis Set:
  @DF-RHF Final Energy:  -387.27138350628377
    Total Energy =                       -387.2713835062833141
  Basis Set: CC-PVTZ
  Basis Set:
  Basis Set: CC-PVTZ
  Basis Set:
  @DF-RHF Final Energy:  -387.27134040075680
    Total Energy =                       -387.2713404007569125
  Basis Set: CC-PVTZ
  Basis Set:
  @DF-RHF Final Energy:  -387.27066234338542
    Total Energy =                       -387.2706623433855384
  Basis Set: CC-PVTZ
  Basis Set:
  @DF-RHF Final Energy:  -387.27155299768674
    Total Energy =                       -387.2715529976865128
  Basis Set: CC-PVTZ
  Basis Set:
  Basis Set: CC-PVTZ
  Basis Set:
  @DF-RHF Final Energy:  -387.27157183259203
    Total Energy =                       -387.2715718325915759
  Basis Set: CC-PVTZ
  Basis Set:
  Basis Set: CC-PVTZ
  Basis Set:
  @DF-RHF Final Energy:  -387.27157776197464
    Total Energy =                       -387.2715777619741857
  Basis Set: CC-PVTZ
  Basis Set:
  Charge       = 0
  Multiplicity = 1
  Basis Set: CC-PVTZ
  Basis Set:

    Orbital Energies (a.u.)
    -----------------------

    Doubly Occupied:

       1A    -20.538658     2A    -11.320233     3A    -11.229327
       4A    -11.226366     5A    -11.215724     6A    -11.215601
       7A    -11.215104     8A    -11.214432     9A    -11.208975
      10A     -1.398738    11A     -1.096127    12A     -1.056852
      13A     -1.015372    14A     -0.968644    15A     -0.899673
      16A     -0.817167    17A     -0.787291    18A     -0.730444
      19A     -0.660766    20A     -0.655360    21A     -0.636779
      22A     -0.623503    23A     -0.598261    24A     -0.582861
      25A     -0.568681    26A     -0.565008    27A     -0.544164
      28A     -0.528714    29A     -0.518722    30A     -0.495376
      31A     -0.491439    32A     -0.477693    33A     -0.462424
      34A     -0.459369    35A     -0.447665    36A     -0.402701

  @DF-RHF Final Energy:  -387.27157872648502

   => Energetics <=

    Nuclear Repulsion Energy =            446.2772749666188474
    One-Electron Energy =               -1409.3492900397320682
    Two-Electron Energy =                 575.8004363466279756
    DFT Exchange-Correlation Energy =       0.0000000000000000
    Empirical Dispersion Energy =           0.0000000000000000
    PCM Polarization Energy =               0.0000000000000000
    EFP Energy =                            0.0000000000000000
    Total Energy =                       -387.2715787264852452
    Molecular point group: c1
  Basis Set: CC-PVTZ
  Basis Set:

  -Total Gradient:
     Atom            X                  Y                   Z
    ------   -----------------  -----------------  -----------------
       1        0.000001797122    -0.000004607056    -0.000002763263
       2       -0.000020110146     0.000005191481     0.000019763535
       3        0.000011113226     0.000015850736    -0.000014529015
       4        0.000012274981     0.000001041239    -0.000014343886
       5        0.000120665967    -0.000275131122    -0.005353378039
       6       -0.000004092427     0.000000946328    -0.000006181377
       7        0.000001796551    -0.000002459476     0.000005526955
       8        0.002206958288    -0.003315891945     0.003491773998
       9       -0.000448594255     0.000716677020     0.003985166674
      10        0.000001615681    -0.000007739508     0.000004925692
      11       -0.000007243282     0.000010415310     0.000030133230
      12       -0.001885023766     0.002858096434    -0.002141648563
      13       -0.000000578952     0.000005895613    -0.000004857760
      14        0.000008159053    -0.000008910567    -0.000002336521
      15        0.000012143298    -0.000000623375     0.000000263229
      16       -0.000004748248     0.000005449570    -0.000002315249
      17        0.000012300472     0.000002439000    -0.000004364496
      18       -0.000014729423     0.000002835157     0.000006381858
      19       -0.000002978380     0.000002334871    -0.000004529317
      20        0.000003998305     0.000004733861    -0.000002580355
      21       -0.000003931650    -0.000012434436    -0.000002070497
      22        0.000005877616    -0.000002953193     0.000003538809
      23        0.000002611810     0.000004148041    -0.000004927794
      24       -0.000009375232    -0.000004853045     0.000003356177
      25        0.000000093389    -0.000000450935     0.000009995975

  **** Optimization is complete! (in 9 steps) ****
    Final optimized geometry and variables:
    Molecular point group: c1

    Geometry (in Angstrom), charge = 0, multiplicity = 1:

    O            3.148136189307     0.940061628976    -0.042416291475
    C            2.221300362131     1.222828059509     0.643866192342
    C            0.893764472604     0.495910975097     0.558924185962
    C            2.305095715215     2.342047430926     1.657468449655
    C            0.866281837486    -0.626411603532    -0.473628778663
    H            0.668462066532     0.111966600345     1.551905910811
    H            0.132982192394     1.243898303308     0.358476057332
    C           -0.416624055122    -1.464045652664    -0.463540821924
    H            1.707165312159    -1.275231052786    -0.262574461846
    H            1.031310510802    -0.207072730734    -1.458881174121
    C           -1.721920395059    -0.668720403145    -0.514158748888
    H           -0.397638418726    -2.106655446755    -1.338763467396
    H           -0.425788674031    -2.112202759523     0.408523153017
    C           -2.952170414376    -1.557603470842    -0.677508325549
    H           -1.681309056333     0.038565443413    -1.340273349912
    H           -1.837818309052    -0.077041915133     0.389056832423
    C           -4.259573108962    -0.773255075529    -0.710397410600
    H           -2.857277426421    -2.137149898117    -1.591420335237
    H           -2.984578405238    -2.277167135986     0.136244298508
    H           -4.271167129417    -0.066197199880    -1.533315111387
    H           -5.110856247318    -1.433415575340    -0.830519187980
    H           -4.403535577740    -0.212564287606     0.207353927145
    H            2.098723990610     1.962360790175     2.652077863428
    H            3.289132342210     2.784307502714     1.634329002625
    H            1.559671465898     3.099239453197     1.440619363939

  Mulliken Charges: (a.u.)
   Center  Symbol    Alpha    Beta     Spin     Total
       1     O     4.17016  4.17016  0.00000 -0.34032
       2     C     2.86231  2.86231  0.00000  0.27539
       3     C     3.11694  3.11694  0.00000 -0.23389
       4     C     3.15103  3.15103  0.00000 -0.30205
       5     C     3.09187  3.09187  0.00000 -0.18373
       6     H     0.44473  0.44473  0.00000  0.11055
       7     H     0.44227  0.44227  0.00000  0.11546
       8     C     3.09969  3.09969  0.00000 -0.19939
       9     H     0.44047  0.44047  0.00000  0.11906
      10     H     0.44473  0.44473  0.00000  0.11054
      11     C     3.09215  3.09215  0.00000 -0.18431
      12     H     0.44751  0.44751  0.00000  0.10499
      13     H     0.45158  0.45158  0.00000  0.09684
      14     C     3.08470  3.08470  0.00000 -0.16939
      15     H     0.45350  0.45350  0.00000  0.09300
      16     H     0.45420  0.45420  0.00000  0.09161
      17     C     3.14979  3.14979  0.00000 -0.29958
      18     H     0.45269  0.45269  0.00000  0.09461
      19     H     0.45453  0.45453  0.00000  0.09093
      20     H     0.45492  0.45492  0.00000  0.09015
      21     H     0.44780  0.44780  0.00000  0.10440
      22     H     0.45602  0.45602  0.00000  0.08795
      23     H     0.45067  0.45067  0.00000  0.09866
      24     H     0.43515  0.43515  0.00000  0.12969
      25     H     0.45059  0.45059  0.00000  0.09881

   Total alpha = 36.00000, Total beta = 36.00000, Total charge = -0.00000

*** Psi4 exiting successfully. Buy a developer a beer!
