  ==> Input File <==

--------------------------------------------------------------------------
set {
	reference rhf
	basis 6-31G*
}

set_num_threads( 4 )
memory 2 gb

molecule MOL {
0 1

H	 -2.365627	 -1.312883	 -0.379134
C	 -1.358347	 -1.274295	 0.019669
C	 -0.681945	 0.000119	 -0.470601
H	 -0.826096	 -2.155117	 -0.321105
H	 -1.409554	 -1.292283	 1.100109
C	 -1.357790	 1.274691	 0.020220
N	 0.739525	 -0.000142	 0.006128
H	 -0.594190	 0.000341	 -1.545128
H	 -2.364980	 1.313977	 -0.378631
H	 -0.825080	 2.155361	 -0.320114
H	 -1.409060	 1.292170	 1.100671
O	 1.044872	 -0.810325	 0.825242
O	 1.475999	 0.812351	 -0.465955

	symmetry c1
}
set optking {
	frozen_dihedral = ("
		12 7 3 8
	")
}

ee = optimize('scf')
oeprop('DIPOLE', 'QUADRUPOLE', 'MULLIKEN_CHARGES')
f=open( 'psi4out.xyz', 'w' )
f.write( "13  " )
f.write( str(ee) + "\n" )
f.write( MOL.save_string_xyz() )
f.close()
--------------------------------------------------------------------------

    Molecular point group: c1
  Charge       = 0
  Multiplicity = 1
  Basis Set: 6-31G*
  Basis Set:
  @DF-RHF Final Energy:  -321.73743946274044
    Total Energy =                       -321.7374394627406673
    Molecular point group: c1
  Basis Set: 6-31G*
  Basis Set:
  Basis Set: 6-31G*
  Basis Set:
  @DF-RHF Final Energy:  -321.73763534666563
    Total Energy =                       -321.7376353466654564
  Basis Set: 6-31G*
  Basis Set:
  Basis Set: 6-31G*
  Basis Set:
  @DF-RHF Final Energy:  -321.73816935830672
    Total Energy =                       -321.7381693583067204
  Basis Set: 6-31G*
  Basis Set:
  Basis Set: 6-31G*
  Basis Set:
  @DF-RHF Final Energy:  -321.73805449427869
    Total Energy =                       -321.7380544942786287
  Basis Set: 6-31G*
  Basis Set:
  Basis Set: 6-31G*
  Basis Set:
  @DF-RHF Final Energy:  -321.73820894617046
    Total Energy =                       -321.7382089461706300
  Basis Set: 6-31G*
  Basis Set:
  Basis Set: 6-31G*
  Basis Set:
  @DF-RHF Final Energy:  -321.73827533656362
    Total Energy =                       -321.7382753365635608
  Basis Set: 6-31G*
  Basis Set:
  Basis Set: 6-31G*
  Basis Set:
  @DF-RHF Final Energy:  -321.73827836919531
    Total Energy =                       -321.7382783691953136
  Basis Set: 6-31G*
  Basis Set:
  Charge       = 0
  Multiplicity = 1
  Basis Set: 6-31G*
  Basis Set:

    Orbital Energies (a.u.)
    -----------------------

    Doubly Occupied:

       1A    -20.602542     2A    -20.596478     3A    -15.843885
       4A    -11.307341     5A    -11.246786     6A    -11.240595
       7A     -1.629136     8A     -1.414381     9A     -1.142605
      10A     -0.971142    11A     -0.958472    12A     -0.813235
      13A     -0.757804    14A     -0.725638    15A     -0.721375
      16A     -0.644549    17A     -0.592990    18A     -0.587748
      19A     -0.571624    20A     -0.527182    21A     -0.521908
      22A     -0.481490    23A     -0.471153    24A     -0.446731

  @DF-RHF Final Energy:  -321.73827872025731

   => Energetics <=

    Nuclear Repulsion Energy =            256.7807082490448920
    One-Electron Energy =                -947.4043938530526248
    Two-Electron Energy =                 368.8854068837503632
    DFT Exchange-Correlation Energy =       0.0000000000000000
    Empirical Dispersion Energy =           0.0000000000000000
    PCM Polarization Energy =               0.0000000000000000
    EFP Energy =                            0.0000000000000000
    Total Energy =                       -321.7382787202573695
    Molecular point group: c1
  Basis Set: 6-31G*
  Basis Set:

  -Total Gradient:
     Atom            X                  Y                   Z
    ------   -----------------  -----------------  -----------------
       1       -0.000007940354     0.000008559319     0.000003011852
       2       -0.000003093625     0.000011690740    -0.000017628926
       3        0.000080810064     0.000841653204    -0.000218068963
       4       -0.000001008092     0.000004374219    -0.000004338792
       5        0.000005213620    -0.000002104240     0.000002314478
       6       -0.000023879484     0.000013339757    -0.000043492333
       7       -0.000295652076     0.000655941556     0.000961446688
       8        0.000010648256    -0.000940018918    -0.000000528882
       9       -0.000008515899     0.000009736505     0.000011051586
      10       -0.000009649861    -0.000011813076    -0.000004158751
      11        0.000001479543    -0.000009133713     0.000006653078
      12        0.000234812991    -0.000595174936    -0.000700496353
      13        0.000016774909     0.000012949582     0.000004235319

  **** Optimization is complete! (in 8 steps) ****
    Final optimized geometry and variables:
    Molecular point group: c1

    Geometry (in Angstrom), charge = 0, multiplicity = 1:

    H           -2.384351869568    -1.302228500590    -0.413912102143
    C           -1.387074455190    -1.290636427793     0.012316147573
    C           -0.683862102374    -0.028021735242    -0.454723995596
    H           -0.864980533705    -2.180177488713    -0.314243145121
    H           -1.470735330154    -1.320500245025     1.090439116621
    C           -1.354364396594     1.258858880782     0.019821165922
    N            0.745523323096     0.001850934768     0.012773385218
    H           -0.589312933249    -0.020414471129    -1.531409708215
    H           -2.371470130237     1.285227312010    -0.353151601600
    H           -0.827524676615     2.129177221058    -0.345336115820
    H           -1.388746128342     1.294634482285     1.103382146555
    O            1.100911698960    -0.793870308568     0.824736529263
    O            1.439805838251     0.844314376428    -0.470724944554

  Mulliken Charges: (a.u.)
   Center  Symbol    Alpha    Beta     Spin     Total
       1     H     0.41244  0.41244  0.00000  0.17512
       2     C     3.24216  3.24216  0.00000 -0.48432
       3     C     3.02453  3.02453  0.00000 -0.04907
       4     H     0.40133  0.40133  0.00000  0.19734
       5     H     0.40179  0.40179  0.00000  0.19641
       6     C     3.24989  3.24989  0.00000 -0.49978
       7     N     3.21802  3.21802  0.00000  0.56395
       8     H     0.38659  0.38659  0.00000  0.22682
       9     H     0.40713  0.40713  0.00000  0.18574
      10     H     0.39229  0.39229  0.00000  0.21542
      11     H     0.40560  0.40560  0.00000  0.18880
      12     O     4.22748  4.22748  0.00000 -0.45495
      13     O     4.23074  4.23074  0.00000 -0.46149

   Total alpha = 24.00000, Total beta = 24.00000, Total charge = -0.00000
