                              Psi4 1.0.54 Driver

  ==> Input File <==

--------------------------------------------------------------------------
set {
	reference rhf
	basis cc-pvtz
}

set_num_threads( 4 )
memory 2 gb

molecule MOL {
0 1

H	 -4.024094	 -0.454727	 0.000004
C	 -2.962215	 -0.297920	 0.000004
C	 -2.454736	 0.988978	 0.000025
C	 -2.105837	 -1.382632	 -0.000016
H	 -3.120052	 1.830438	 0.000041
C	 -1.090106	 1.189676	 0.000026
H	 -2.500390	 -2.380229	 -0.000033
C	 -0.739175	 -1.183302	 -0.000016
H	 -0.680214	 2.179144	 0.000042
C	 -0.227341	 0.104540	 0.000006
H	 -0.073209	 -2.021168	 -0.000032
C	 1.238974	 0.374429	 0.000004
O	 1.823700	 0.059924	 -1.140684
O	 1.826512	 0.825162	 0.925649
C	 3.217117	 0.281729	 -1.234238
H	 3.445263	 1.327502	 -1.093941
H	 3.500614	 -0.032726	 -2.225367
H	 3.744517	 -0.298687	 -0.492373

	symmetry c1
}
set optking {
	frozen_dihedral = ("
		13 12 10 6
	")
}

ee,wfn = optimize('scf', return_wfn=True)
oeprop( wfn, 'DIPOLE', 'QUADRUPOLE', 'MULLIKEN_CHARGES')
f=open( 'psi4out.xyz', 'w' )
f.write( "18  " )
f.write( str(ee) + "\n" )
f.write( MOL.save_string_xyz() )
f.close()
--------------------------------------------------------------------------

    Molecular point group: c1
  Charge       = 0
  Multiplicity = 1
  Basis Set: CC-PVTZ
  Basis Set:
  @DF-RHF Final Energy:  -457.50022331259748
    Total Energy =                       -457.5002233125978819
    Molecular point group: c1
  Basis Set: CC-PVTZ
  Basis Set:
  Basis Set: CC-PVTZ
  Basis Set:
  @DF-RHF Final Energy:  -457.49854498960116
    Total Energy =                       -457.4985449896014416
  Basis Set: CC-PVTZ
  Basis Set:
  Basis Set: CC-PVTZ
  Basis Set:
  @DF-RHF Final Energy:  -457.50044462868021
    Total Energy =                       -457.5004446286802704
  Basis Set: CC-PVTZ
  Basis Set:
  Basis Set: CC-PVTZ
  Basis Set:
  @DF-RHF Final Energy:  -457.50066771292921
    Total Energy =                       -457.5006677129289301
  Basis Set: CC-PVTZ
  Basis Set:
  Basis Set: CC-PVTZ
  Basis Set:
  @DF-RHF Final Energy:  -457.50067739195350
    Total Energy =                       -457.5006773919535590
  Basis Set: CC-PVTZ
  Basis Set:
  Charge       = 0
  Multiplicity = 1
  Basis Set: CC-PVTZ
  Basis Set:

    Orbital Energies (a.u.)
    -----------------------

    Doubly Occupied:

       1A    -20.603868     2A    -20.540382     3A    -11.374422
       4A    -11.282423     5A    -11.250068     6A    -11.242092
       7A    -11.241413     8A    -11.238888     9A    -11.237755
      10A    -11.236993    11A     -1.479797    12A     -1.372390
      13A     -1.171772    14A     -1.052570    15A     -1.029674
      16A     -0.982270    17A     -0.862725    18A     -0.841961
      19A     -0.783712    20A     -0.742736    21A     -0.688661
      22A     -0.684633    23A     -0.681878    24A     -0.635730
      25A     -0.632392    26A     -0.600292    27A     -0.594201
      28A     -0.553115    29A     -0.539003    30A     -0.521689
      31A     -0.512827    32A     -0.504986    33A     -0.465035
      34A     -0.449509    35A     -0.347700    36A     -0.347452

  @DF-RHF Final Energy:  -457.50067871362342

   => Energetics <=

    Nuclear Repulsion Energy =            492.9275979680882074
    One-Electron Energy =               -1600.2025284934709362
    Two-Electron Energy =                 649.7742518117589725
    DFT Exchange-Correlation Energy =       0.0000000000000000
    Empirical Dispersion Energy =           0.0000000000000000
    PCM Polarization Energy =               0.0000000000000000
    EFP Energy =                            0.0000000000000000
    Total Energy =                       -457.5006787136238700
    Molecular point group: c1
  Basis Set: CC-PVTZ
  Basis Set:

  -Total Gradient:
     Atom            X                  Y                   Z
    ------   -----------------  -----------------  -----------------
       1       -0.000000733774     0.000008518348    -0.000006498795
       2        0.000014525549    -0.000118342478     0.000020295223
       3        0.000087836677     0.000078035705    -0.000002142824
       4       -0.000123244628     0.000027381889    -0.000009383864
       5       -0.000009162263    -0.000003093128    -0.000001338386
       6       -0.000124313200     0.000018927011    -0.003956119382
       7        0.000004801831    -0.000000328603     0.000002061507
       8        0.000070696480     0.000101990448     0.000007443694
       9        0.000003064223    -0.000004497888     0.000003269549
      10       -0.000263158519     0.001015432193     0.005267474857
      11       -0.000010844271    -0.000002627525     0.000001617767
      12        0.000982011702    -0.004703388662    -0.000053033160
      13       -0.000722191993     0.003624408683    -0.001229751479
      14        0.000027326749    -0.000039562255    -0.000031025723
      15        0.000065898120    -0.000019975398    -0.000027219490
      16       -0.000009798047     0.000011821122    -0.000000411057
      17        0.000007022119     0.000010737463     0.000004345183
      18        0.000000263260    -0.000005436925     0.000010416380

  **** Optimization is complete! (in 6 steps) ****
    Final optimized geometry and variables:
    Molecular point group: c1

    Geometry (in Angstrom), charge = 0, multiplicity = 1:

    H           -3.994724659345    -0.607072696203     0.127651054209
    C           -2.935722606989    -0.434278542307     0.141544495158
    C           -2.446115807417     0.857905771302     0.158739014352
    C           -2.060416446352    -1.503888315019     0.138489283739
    H           -3.123057220533     1.690342094718     0.154130389124
    C           -1.083206130828     1.081827394811     0.184812024499
    H           -2.437461890570    -2.508285670058     0.122241912046
    C           -0.697056474256    -1.282377295143     0.145734097092
    H           -0.700872543894     2.083858441838     0.213342357974
    C           -0.208727643123     0.010717946760     0.188313304646
    H           -0.017868459082    -2.112872754441     0.122661480133
    C            1.265982050304     0.271487366792     0.184684905362
    O            1.824624816250    -0.059167525846    -0.963156883247
    O            1.858773695102     0.755112419307     1.086844013035
    C            3.220003546940     0.144944412514    -1.085108633470
    H            3.461179625453     1.190816291242    -0.968323338516
    H            3.482314438178    -0.190995912604    -2.074793552524
    H            3.754641160659    -0.426541908312    -0.341086515813

  Mulliken Charges: (a.u.)
   Center  Symbol    Alpha    Beta     Spin     Total
       1     H     0.42141  0.42141  0.00000  0.15718
       2     C     3.08279  3.08279  0.00000 -0.16559
       3     C     3.06575  3.06575  0.00000 -0.13151
       4     C     3.06557  3.06557  0.00000 -0.13114
       5     H     0.42156  0.42156  0.00000  0.15687
       6     C     3.09355  3.09355  0.00000 -0.18711
       7     H     0.42175  0.42175  0.00000  0.15650
       8     C     3.09169  3.09169  0.00000 -0.18338
       9     H     0.41979  0.41979  0.00000  0.16041
      10     C     2.92127  2.92127  0.00000  0.15745
      11     H     0.42388  0.42388  0.00000  0.15224
      12     C     2.84272  2.84272  0.00000  0.31456
      13     O     4.14284  4.14284  0.00000 -0.28567
      14     O     4.19822  4.19822  0.00000 -0.39643
      15     C     3.03731  3.03731  0.00000 -0.07463
      16     H     0.45268  0.45268  0.00000  0.09464
      17     H     0.44308  0.44308  0.00000  0.11384
      18     H     0.45411  0.45411  0.00000  0.09177

   Total alpha = 36.00000, Total beta = 36.00000, Total charge =  0.00000

*** Psi4 exiting successfully. Buy a developer a beer!
