  ==> Input File <==

--------------------------------------------------------------------------
set {
	reference rhf
	basis 6-31G*
}

set_num_threads( 4 )
memory 2 gb

molecule MOL {
0 1

H	 -2.798360	 -0.862255	 -0.071053
N	 -1.863561	 -0.715187	 0.256814
C	 -1.344686	 0.554728	 -0.219830
H	 -1.300452	 -1.461917	 -0.101532
C	 0.107469	 0.402012	 -0.621150
H	 -1.894904	 0.962891	 -1.068750
H	 -1.405826	 1.279143	 0.586561
O	 0.171566	 -0.472295	 -1.711363
H	 0.526970	 1.370452	 -0.892777
H	 0.678179	 0.004593	 0.215261
C	 1.464171	 -0.771094	 -2.132626
H	 1.387199	 -1.447391	 -2.973098
H	 1.996372	 0.124036	 -2.449624
H	 2.038140	 -1.252580	 -1.343613

	symmetry c1
}
set optking {
	frozen_dihedral = ("
		6 3 2 4
	")
}

ee = optimize('scf')
oeprop('DIPOLE', 'QUADRUPOLE', 'MULLIKEN_CHARGES')
f=open( 'psi4out.xyz', 'w' )
f.write( "14  " )
f.write( str(ee) + "\n" )
f.write( MOL.save_string_xyz() )
f.close()
--------------------------------------------------------------------------

    Molecular point group: c1
  Charge       = 0
  Multiplicity = 1
  Basis Set: 6-31G*
  Basis Set:
  @DF-RHF Final Energy:  -248.12121657511804
    Total Energy =                       -248.1212165751179555
    Molecular point group: c1
  Basis Set: 6-31G*
  Basis Set:
  Basis Set: 6-31G*
  Basis Set:
  @DF-RHF Final Energy:  -248.12160976829196
    Total Energy =                       -248.1216097682920463
  Basis Set: 6-31G*
  Basis Set:
  Basis Set: 6-31G*
  Basis Set:
  @DF-RHF Final Energy:  -248.12171861070146
    Total Energy =                       -248.1217186107015777
  Basis Set: 6-31G*
  Basis Set:
  Basis Set: 6-31G*
  Basis Set:
  @DF-RHF Final Energy:  -248.12172098356396
    Total Energy =                       -248.1217209835639324
  Basis Set: 6-31G*
  Basis Set:
  Charge       = 0
  Multiplicity = 1
  Basis Set: 6-31G*
  Basis Set:

    Orbital Energies (a.u.)
    -----------------------

    Doubly Occupied:

       1A    -20.561904     2A    -15.524890     3A    -11.271693
       4A    -11.270002     5A    -11.240913     6A     -1.386158
       7A     -1.170463     8A     -1.001393     9A     -0.911194
      10A     -0.819761    11A     -0.688629    12A     -0.669337
      13A     -0.652518    14A     -0.619917    15A     -0.589281
      16A     -0.548750    17A     -0.535896    18A     -0.502443
      19A     -0.472933    20A     -0.422026    21A     -0.374494

  @DF-RHF Final Energy:  -248.12172123935022

   => Energetics <=

    Nuclear Repulsion Energy =            194.5335019084256487
    One-Electron Energy =                -722.8412553128700893
    Two-Electron Energy =                 280.1860321650939909
    DFT Exchange-Correlation Energy =       0.0000000000000000
    Empirical Dispersion Energy =           0.0000000000000000
    PCM Polarization Energy =               0.0000000000000000
    EFP Energy =                            0.0000000000000000
    Total Energy =                       -248.1217212393503928
    Molecular point group: c1
  Basis Set: 6-31G*
  Basis Set:

  -Total Gradient:
     Atom            X                  Y                   Z
    ------   -----------------  -----------------  -----------------
       1       -0.000019796103    -0.000008237741    -0.000010478953
       2       -0.003792726115     0.000426402238    -0.003280562610
       3        0.003491030372    -0.002429405658    -0.002469941767
       4        0.002555638340     0.000061886210     0.003250290238
       5       -0.000042521842    -0.000005115364     0.000000691814
       6       -0.002190665091     0.001925944208     0.002507894903
       7        0.000006197869     0.000008969171     0.000010644053
       8        0.000003101529     0.000003529920     0.000002608564
       9        0.000010738390     0.000019362095    -0.000008585468
      10       -0.000016870703     0.000003963816    -0.000001663853
      11       -0.000004286051    -0.000004014227    -0.000004735273
      12        0.000003969836    -0.000002832434     0.000001364528
      13       -0.000002388539     0.000001030532     0.000001587052
      14       -0.000001421894    -0.000001482764     0.000000886777

  **** Optimization is complete! (in 5 steps) ****
    Final optimized geometry and variables:
    Molecular point group: c1

    Geometry (in Angstrom), charge = 0, multiplicity = 1:

    H           -2.573912062972    -0.587481170957     0.876368960470
    N           -1.618684853140    -0.484501409447     1.151059630032
    C           -1.055555066595     0.773762003988     0.682755118444
    H           -1.107141373118    -1.255467610572     0.771266403430
    C            0.394277209657     0.616784862149     0.273617724792
    H           -1.622230543272     1.203406954611    -0.141093687245
    H           -1.090611280288     1.504455119362     1.487831096124
    O            0.474645652540    -0.277049542602    -0.797858457031
    H            0.804875258226     1.585290909358    -0.008248391771
    H            0.974434978664     0.242219421070     1.116588794719
    C            1.771908393896    -0.529571909100    -1.236976649772
    H            1.709099334521    -1.231593822673    -2.057041862274
    H            2.256533076118     0.379366367735    -1.588062531185
    H            2.382468453582    -0.962867902972    -0.447140304558

  Mulliken Charges: (a.u.)
   Center  Symbol    Alpha    Beta     Spin     Total
       1     H     0.33098  0.33098  0.00000  0.33804
       2     N     3.93362  3.93362  0.00000 -0.86723
       3     C     3.05407  3.05407  0.00000 -0.10814
       4     H     0.32298  0.32298  0.00000  0.35404
       5     C     3.00588  3.00588  0.00000 -0.01175
       6     H     0.42418  0.42418  0.00000  0.15164
       7     H     0.42151  0.42151  0.00000  0.15699
       8     O     4.30680  4.30680  0.00000 -0.61359
       9     H     0.42697  0.42697  0.00000  0.14606
      10     H     0.42454  0.42454  0.00000  0.15093
      11     C     3.08027  3.08027  0.00000 -0.16054
      12     H     0.41125  0.41125  0.00000  0.17749
      13     H     0.42863  0.42863  0.00000  0.14274
      14     H     0.42834  0.42834  0.00000  0.14332

   Total alpha = 21.00000, Total beta = 21.00000, Total charge =  0.00000
