                              Psi4 1.0.54 Driver

  ==> Input File <==

--------------------------------------------------------------------------
set {
	reference rhf
	basis cc-pvtz
}

set_num_threads( 4 )
memory 2 gb

molecule MOL {
0 1

H	 2.077927	 -0.165540	 -1.041236
O	 2.063695	 -0.083403	 -0.105237
C	 0.742924	 0.005675	 0.350750
H	 0.731380	 0.039219	 1.440080
C	 -0.064076	 -1.193495	 -0.124425
C	 -0.047832	 1.190568	 -0.194462
H	 0.194729	 -1.376165	 -1.161308
H	 0.163013	 -2.094508	 0.429933
C	 -1.533112	 -0.752002	 0.006102
H	 0.148003	 1.266545	 -1.259275
H	 0.226235	 2.136493	 0.259722
C	 -1.506634	 0.799189	 0.067162
H	 -2.124360	 -1.110499	 -0.826089
H	 -1.983103	 -1.158030	 0.903403
H	 -2.183808	 1.252169	 -0.644677
H	 -1.813926	 1.138698	 1.049457

	symmetry c1
}
set optking {
	frozen_dihedral = ("
		1 2 3 6
	")
}

ee,wfn = optimize('scf', return_wfn=True)
oeprop( wfn, 'DIPOLE', 'QUADRUPOLE', 'MULLIKEN_CHARGES')
f=open( 'psi4out.xyz', 'w' )
f.write( "16  " )
f.write( str(ee) + "\n" )
f.write( MOL.save_string_xyz() )
f.close()
--------------------------------------------------------------------------

    Molecular point group: c1
  Charge       = 0
  Multiplicity = 1
  Basis Set: CC-PVTZ
  Basis Set:
  @DF-RHF Final Energy:  -270.11456842511922
    Total Energy =                       -270.1145684251193870
    Molecular point group: c1
  Basis Set: CC-PVTZ
  Basis Set:
  Basis Set: CC-PVTZ
  Basis Set:
  @DF-RHF Final Energy:  -270.11630649946596
    Total Energy =                       -270.1163064994659635
  Basis Set: CC-PVTZ
  Basis Set:
  Basis Set: CC-PVTZ
  Basis Set:
  @DF-RHF Final Energy:  -270.11655418236774
    Total Energy =                       -270.1165541823677358
  Basis Set: CC-PVTZ
  Basis Set:
  Basis Set: CC-PVTZ
  Basis Set:
  @DF-RHF Final Energy:  -270.11655901218097
    Total Energy =                       -270.1165590121808577
  Basis Set: CC-PVTZ
  Basis Set:
  Charge       = 0
  Multiplicity = 1
  Basis Set: CC-PVTZ
  Basis Set:

    Orbital Energies (a.u.)
    -----------------------

    Doubly Occupied:

       1A    -20.545542     2A    -11.267637     3A    -11.216982
       4A    -11.216437     5A    -11.212429     6A    -11.212243
       7A     -1.366327     8A     -1.116517     9A     -0.969496
      10A     -0.949811    11A     -0.805628    12A     -0.783608
      13A     -0.683864    14A     -0.663405    15A     -0.610216
      16A     -0.585551    17A     -0.579610    18A     -0.551335
      19A     -0.506651    20A     -0.484441    21A     -0.473735
      22A     -0.459999    23A     -0.455424    24A     -0.414700

  @DF-RHF Final Energy:  -270.11655986873393

   => Energetics <=

    Nuclear Repulsion Energy =            255.4796578728524992
    One-Electron Energy =                -872.9292559933128359
    Two-Electron Energy =                 347.3330382517264638
    DFT Exchange-Correlation Energy =       0.0000000000000000
    Empirical Dispersion Energy =           0.0000000000000000
    PCM Polarization Energy =               0.0000000000000000
    EFP Energy =                            0.0000000000000000
    Total Energy =                       -270.1165598687338729
    Molecular point group: c1
  Basis Set: CC-PVTZ
  Basis Set:

  -Total Gradient:
     Atom            X                  Y                   Z
    ------   -----------------  -----------------  -----------------
       1       -0.000037364877     0.000013755768     0.000022244068
       2       -0.000026315273    -0.000039561331    -0.000004137957
       3        0.000007115305     0.000043867595    -0.000016327155
       4        0.000000916256     0.000011004133     0.000009690066
       5        0.000081934490     0.000039357817    -0.000058107051
       6        0.000014838502    -0.000034111256    -0.000005909534
       7        0.000001941614    -0.000017434228     0.000015654793
       8        0.000008435632     0.000021532039     0.000011084633
       9       -0.000050736506     0.000027728883     0.000061788381
      10        0.000017476151    -0.000007234873    -0.000004431237
      11        0.000017358661    -0.000006524778     0.000000440704
      12        0.000003980627    -0.000035897372    -0.000028318506
      13       -0.000001736984     0.000009432466    -0.000022739812
      14       -0.000030112618    -0.000002068106    -0.000023263711
      15       -0.000014973904    -0.000017549001     0.000023184673
      16        0.000007242924    -0.000006297757     0.000019147645

  **** Optimization is complete! (in 5 steps) ****
    Final optimized geometry and variables:
    Molecular point group: c1

    Geometry (in Angstrom), charge = 0, multiplicity = 1:

    H            2.150928659280    -0.069343173623    -1.009911030271
    O            2.093937950476    -0.049513602625    -0.071110100622
    C            0.753278913565    -0.011764721012     0.322440491447
    H            0.776782074018     0.006996778365     1.406408633217
    C           -0.088438079711    -1.196878484765    -0.145670341255
    C           -0.038059903978     1.191301165019    -0.179880007299
    H            0.121387159694    -1.374571893990    -1.197651981092
    H            0.145111927674    -2.110298636470     0.385256702781
    C           -1.545228458337    -0.736713204343     0.039943000460
    H            0.120076866397     1.291025958198    -1.251865790752
    H            0.269713895712     2.120742254837     0.281237460623
    C           -1.493857252212     0.814159909037     0.114602242889
    H           -2.172550357991    -1.078789149130    -0.772615708997
    H           -1.966810609868    -1.145359246612     0.949522427411
    H           -2.185576828539     1.281940655997    -0.573190016511
    H           -1.768477837417     1.147817320636     1.108263003160

  Mulliken Charges: (a.u.)
   Center  Symbol    Alpha    Beta     Spin     Total
       1     H     0.39503  0.39503  0.00000  0.20994
       2     O     4.20678  4.20678  0.00000 -0.41357
       3     C     2.93449  2.93449  0.00000  0.13102
       4     H     0.44356  0.44356  0.00000  0.11289
       5     C     3.10552  3.10552  0.00000 -0.21105
       6     C     3.10087  3.10087  0.00000 -0.20174
       7     H     0.45967  0.45967  0.00000  0.08066
       8     H     0.44227  0.44227  0.00000  0.11546
       9     C     3.11118  3.11118  0.00000 -0.22237
      10     H     0.46116  0.46116  0.00000  0.07768
      11     H     0.44305  0.44305  0.00000  0.11389
      12     C     3.11228  3.11228  0.00000 -0.22456
      13     H     0.44534  0.44534  0.00000  0.10932
      14     H     0.44677  0.44677  0.00000  0.10646
      15     H     0.44352  0.44352  0.00000  0.11296
      16     H     0.44850  0.44850  0.00000  0.10300

   Total alpha = 24.00000, Total beta = 24.00000, Total charge =  0.00000

*** Psi4 exiting successfully. Buy a developer a beer!
