  ==> Input File <==

--------------------------------------------------------------------------
set {
	reference rhf
	basis 6-31G*
}

set_num_threads( 4 )
memory 2 gb

molecule MOL {
0 1

H	 2.434224	 0.961992	 0.564485
O	 1.521779	 1.066854	 0.792446
C	 0.702312	 0.627605	 -0.264544
C	 -0.714990	 0.596302	 0.266387
H	 0.991144	 -0.369375	 -0.586201
H	 0.770463	 1.300749	 -1.116457
O	 -1.405996	 -0.526611	 -0.195820
H	 -1.257453	 1.468809	 -0.075599
H	 -0.688972	 0.618407	 1.353696
H	 -0.890587	 -1.292708	 0.022039

	symmetry c1
}
set optking {
	frozen_dihedral = ("
		5 3 4 7
	")
}

ee = optimize('scf')
oeprop('DIPOLE', 'QUADRUPOLE', 'MULLIKEN_CHARGES')
f=open( 'psi4out.xyz', 'w' )
f.write( "10  " )
f.write( str(ee) + "\n" )
f.write( MOL.save_string_xyz() )
f.close()
--------------------------------------------------------------------------

    Molecular point group: c1
  Charge       = 0
  Multiplicity = 1
  Basis Set: 6-31G*
  Basis Set:
  @DF-RHF Final Energy:  -228.91530320237601
    Total Energy =                       -228.9153032023760375
    Molecular point group: c1
  Basis Set: 6-31G*
  Basis Set:
  Basis Set: 6-31G*
  Basis Set:
  @DF-RHF Final Energy:  -228.91685071279130
    Total Energy =                       -228.9168507127912449
  Basis Set: 6-31G*
  Basis Set:
  Basis Set: 6-31G*
  Basis Set:
  @DF-RHF Final Energy:  -228.91743285825928
    Total Energy =                       -228.9174328582594171
  Basis Set: 6-31G*
  Basis Set:
  Basis Set: 6-31G*
  Basis Set:
  @DF-RHF Final Energy:  -228.91746894270977
    Total Energy =                       -228.9174689427097746
  Basis Set: 6-31G*
  Basis Set:
  Charge       = 0
  Multiplicity = 1
  Basis Set: 6-31G*
  Basis Set:

    Orbital Energies (a.u.)
    -----------------------

    Doubly Occupied:

       1A    -20.563333     2A    -20.557369     3A    -11.273761
       4A    -11.268947     5A     -1.374763     6A     -1.360065
       7A     -0.995409     8A     -0.847158     9A     -0.726995
      10A     -0.668654    11A     -0.653829    12A     -0.609878
      13A     -0.573195    14A     -0.525744    15A     -0.493254
      16A     -0.444758    17A     -0.435136

  @DF-RHF Final Energy:  -228.91747021938755

   => Energetics <=

    Nuclear Repulsion Energy =            131.1739951481025059
    One-Electron Energy =                -573.4384342628088689
    Two-Electron Energy =                 213.3469688953188097
    DFT Exchange-Correlation Energy =       0.0000000000000000
    Empirical Dispersion Energy =           0.0000000000000000
    PCM Polarization Energy =               0.0000000000000000
    EFP Energy =                            0.0000000000000000
    Total Energy =                       -228.9174702193875532
    Molecular point group: c1
  Basis Set: 6-31G*
  Basis Set:

  -Total Gradient:
     Atom            X                  Y                   Z
    ------   -----------------  -----------------  -----------------
       1       -0.000016005097    -0.000002761445     0.000000218770
       2       -0.000034060894    -0.000027301578    -0.000044206381
       3        0.001869073955    -0.001746817386     0.005241212411
       4       -0.001492877439     0.002598019141    -0.004064810996
       5       -0.001234658298     0.000968227999    -0.003541250319
       6        0.000014669485    -0.000000043068    -0.000012015389
       7        0.000867056404    -0.001787779101     0.002414189091
       8        0.000041401935     0.000033063128     0.000018542267
       9        0.000001791038     0.000015615145     0.000007953554
      10       -0.000016391090    -0.000050222837    -0.000019833005

  **** Optimization is complete! (in 5 steps) ****
    Final optimized geometry and variables:
    Molecular point group: c1

    Geometry (in Angstrom), charge = 0, multiplicity = 1:

    H            2.377761937796     0.768836585654     0.363878362927
    O            1.496509617353     0.619293674019     0.675074581132
    C            0.681123994051     0.202335165752    -0.386770160487
    C           -0.767607840294     0.165178282265     0.106040491361
    H            0.957210803722    -0.785073533539    -0.752098743064
    H            0.775926281645     0.880440300878    -1.232071240248
    O           -1.487255978409    -0.915921658917    -0.423647057676
    H           -1.300817949298     1.058684505031    -0.186199581396
    H           -0.751050676347     0.129125970639     1.191212307656
    H           -1.176144021631    -1.720232115189    -0.032458282859

  Mulliken Charges: (a.u.)
   Center  Symbol    Alpha    Beta     Spin     Total
       1     H     0.27885  0.27885  0.00000  0.44229
       2     O     4.37184  4.37184  0.00000 -0.74368
       3     C     3.01032  3.01032  0.00000 -0.02064
       4     C     3.00749  3.00749  0.00000 -0.01499
       5     H     0.42810  0.42810  0.00000  0.14379
       6     H     0.42571  0.42571  0.00000  0.14858
       7     O     4.37121  4.37121  0.00000 -0.74243
       8     H     0.41124  0.41124  0.00000  0.17752
       9     H     0.41398  0.41398  0.00000  0.17203
      10     H     0.28124  0.28124  0.00000  0.43752

   Total alpha = 17.00000, Total beta = 17.00000, Total charge =  0.00000
