  ==> Input File <==

--------------------------------------------------------------------------
set {
	reference rhf
	basis 6-31G*
}

set_num_threads( 1 )
memory 2 gb

molecule MOL {
0 1

H	 3.463771	 0.168298	 -0.756243
C	 2.752674	 -0.045734	 0.033351
C	 1.322923	 0.120767	 -0.479465
H	 2.934561	 -1.059086	 0.377456
H	 2.958358	 0.631174	 0.856809
C	 0.306652	 -0.176050	 0.621399
H	 1.144658	 -0.551717	 -1.312180
H	 1.166477	 1.131798	 -0.836680
N	 -1.068537	 -0.011044	 0.085269
H	 0.372515	 -1.192590	 0.973735
H	 0.391664	 0.520566	 1.441230
O	 -1.891569	 -0.803234	 0.426479
O	 -1.247138	 0.888316	 -0.678458

	symmetry c1
}
set optking {
	frozen_dihedral = ("
		7 3 6 9
	")
}

ee = energy('scf')
oeprop('DIPOLE', 'QUADRUPOLE', 'MULLIKEN_CHARGES')
f=open( 'psi4out.xyz', 'w' )
f.write( "13  " )
f.write( str(ee) + "\n" )
f.write( MOL.save_string_xyz() )
f.close()
--------------------------------------------------------------------------

    Molecular point group: c1

    Geometry (in Angstrom), charge = 0, multiplicity = 1:

       Center              X                  Y                   Z               Mass
    ------------   -----------------  -----------------  -----------------  -----------------
           H          3.464331153162     0.172343951277    -0.756434081276     1.007825032070
           C          2.753234153162    -0.041688048723     0.033159918724    12.000000000000
           C          1.323483153162     0.124812951277    -0.479656081276    12.000000000000
           H          2.935121153162    -1.055040048723     0.377264918724     1.007825032070
           H          2.958918153162     0.635219951277     0.856617918724     1.007825032070
           C          0.307212153162    -0.172004048723     0.621207918724    12.000000000000
           H          1.145218153162    -0.547671048723    -1.312371081276     1.007825032070
           H          1.167037153162     1.135843951277    -0.836871081276     1.007825032070
           N         -1.067976846838    -0.006998048723     0.085077918724    14.003074004780
           H          0.373075153162    -1.188544048723     0.973543918724     1.007825032070
           H          0.392224153162     0.524611951277     1.441038918724     1.007825032070
           O         -1.891008846838    -0.799188048723     0.426287918724    15.994914619560
           O         -1.246577846838     0.892361951277    -0.678649081276    15.994914619560

  Charge       = 0
  Multiplicity = 1
  Basis Set: 6-31G*
  Basis Set:

    Orbital Energies (a.u.)
    -----------------------

    Doubly Occupied:

       1A    -20.602841     2A    -20.600801     3A    -15.848323
       4A    -11.299842     5A    -11.250117     6A    -11.236499
       7A     -1.631861     8A     -1.417633     9A     -1.133964
      10A     -1.026603    11A     -0.883057    12A     -0.827283
      13A     -0.761548    14A     -0.743716    15A     -0.725750
      16A     -0.662913    17A     -0.604511    18A     -0.583262
      19A     -0.549160    20A     -0.520045    21A     -0.510801
      22A     -0.484131    23A     -0.473223    24A     -0.449609

  @DF-RHF Final Energy:  -321.73431887043876

   => Energetics <=

    Nuclear Repulsion Energy =            247.9769355060944065
    One-Electron Energy =                -929.7675779892845185
    Two-Electron Energy =                 360.0563236127513846
    DFT Exchange-Correlation Energy =       0.0000000000000000
    Empirical Dispersion Energy =           0.0000000000000000
    PCM Polarization Energy =               0.0000000000000000
    EFP Energy =                            0.0000000000000000
    Total Energy =                       -321.7343188704387558

  Mulliken Charges: (a.u.)
   Center  Symbol    Alpha    Beta     Spin     Total
       1     H     0.40795  0.40795  0.00000  0.18411
       2     C     3.24864  3.24864  0.00000 -0.49728
       3     C     3.17033  3.17033  0.00000 -0.34066
       4     H     0.41669  0.41669  0.00000  0.16662
       5     H     0.41653  0.41653  0.00000  0.16694
       6     C     3.09019  3.09019  0.00000 -0.18039
       7     H     0.40618  0.40618  0.00000  0.18765
       8     H     0.39291  0.39291  0.00000  0.21418
       9     N     3.22094  3.22094  0.00000  0.55813
      10     H     0.38550  0.38550  0.00000  0.22900
      11     H     0.38628  0.38628  0.00000  0.22745
      12     O     4.22891  4.22891  0.00000 -0.45782
      13     O     4.22896  4.22896  0.00000 -0.45792

   Total alpha = 24.00000, Total beta = 24.00000, Total charge =  0.00000
