  ==> Input File <==

--------------------------------------------------------------------------
set {
	reference rhf
	basis 6-31G*
}

set_num_threads( 4 )
memory 2 gb

molecule MOL {
0 1

H	 -3.161837	 0.500524	 -0.000234
C	 -2.367097	 -0.232926	 -0.000000
O	 -1.158440	 0.455814	 -0.000122
H	 -2.468853	 -0.861886	 -0.882833
H	 -2.468942	 -0.861421	 0.883154
C	 -0.029776	 -0.365156	 0.000148
C	 1.212217	 0.508981	 0.000007
H	 -0.036772	 -1.013236	 -0.877259
H	 -0.036869	 -1.012778	 0.877897
C	 2.414820	 -0.184424	 -0.638598
H	 0.985367	 1.429273	 -0.529392
H	 1.439062	 0.785047	 1.025204
H	 2.216969	 -0.447631	 -1.673973
H	 3.286432	 0.461291	 -0.624807
H	 2.673518	 -1.096945	 -0.108708

	symmetry c1
}
set optking {
	frozen_dihedral = ("
		11 7 6 8
	")
}

ee = optimize('scf')
oeprop('DIPOLE', 'QUADRUPOLE', 'MULLIKEN_CHARGES')
f=open( 'psi4out.xyz', 'w' )
f.write( "15  " )
f.write( str(ee) + "\n" )
f.write( MOL.save_string_xyz() )
f.close()
--------------------------------------------------------------------------

    Molecular point group: c1
  Charge       = 0
  Multiplicity = 1
  Basis Set: 6-31G*
  Basis Set:
  @DF-RHF Final Energy:  -232.13680899575922
    Total Energy =                       -232.1368089957591110
    Molecular point group: c1
  Basis Set: 6-31G*
  Basis Set:
  Basis Set: 6-31G*
  Basis Set:
  @DF-RHF Final Energy:  -232.13707042999221
    Total Energy =                       -232.1370704299922068
  Basis Set: 6-31G*
  Basis Set:
  Basis Set: 6-31G*
  Basis Set:
  @DF-RHF Final Energy:  -232.13713369348702
    Total Energy =                       -232.1371336934871579
  Basis Set: 6-31G*
  Basis Set:
  Basis Set: 6-31G*
  Basis Set:
  @DF-RHF Final Energy:  -232.13713500058705
    Total Energy =                       -232.1371350005869090
  Basis Set: 6-31G*
  Basis Set:
  Charge       = 0
  Multiplicity = 1
  Basis Set: 6-31G*
  Basis Set:

    Orbital Energies (a.u.)
    -----------------------

    Doubly Occupied:

       1A    -20.554354     2A    -11.266334     3A    -11.264227
       4A    -11.213996     5A    -11.212776     6A     -1.379137
       7A     -1.055947     8A     -0.955433     9A     -0.878011
      10A     -0.809671    11A     -0.672474    12A     -0.655899
      13A     -0.631409    14A     -0.603513    15A     -0.566973
      16A     -0.542497    17A     -0.501996    18A     -0.489896
      19A     -0.476154    20A     -0.461641    21A     -0.412697

  @DF-RHF Final Energy:  -232.13713510656729

   => Energetics <=

    Nuclear Repulsion Energy =            189.6550949264710368
    One-Electron Energy =                -690.3743927272919336
    Two-Electron Energy =                 268.5821626942535545
    DFT Exchange-Correlation Energy =       0.0000000000000000
    Empirical Dispersion Energy =           0.0000000000000000
    PCM Polarization Energy =               0.0000000000000000
    EFP Energy =                            0.0000000000000000
    Total Energy =                       -232.1371351065673139
    Molecular point group: c1
  Basis Set: 6-31G*
  Basis Set:

  -Total Gradient:
     Atom            X                  Y                   Z
    ------   -----------------  -----------------  -----------------
       1        0.000001921702     0.000002908600    -0.000002067834
       2        0.000009998788    -0.000005035909     0.000000360850
       3       -0.000003414363     0.000000602689     0.000000935659
       4       -0.000004285645     0.000000512673    -0.000003565371
       5       -0.000002055610     0.000000785204     0.000002060351
       6       -0.002961414508     0.004362247307    -0.002031157346
       7        0.002169252398    -0.003090786945    -0.004070125656
       8        0.002157656827    -0.003149020006     0.002297244539
       9       -0.000009148710     0.000006740247     0.000011078037
      10       -0.000004989832     0.000010432900    -0.000000528417
      11       -0.001344206115     0.001858937109     0.003778534301
      12       -0.000003135862    -0.000005014611     0.000011435372
      13        0.000004929447     0.000008540588     0.000005317252
      14       -0.000000706205    -0.000002740783    -0.000000137679
      15       -0.000010402309     0.000000890935     0.000000615942

  **** Optimization is complete! (in 5 steps) ****
    Final optimized geometry and variables:
    Molecular point group: c1

    Geometry (in Angstrom), charge = 0, multiplicity = 1:

    H           -3.153102116667     0.467081255094     0.180503607606
    C           -2.355056130141    -0.262634258230     0.166512176614
    O           -1.150343407945     0.431594532521     0.118893466034
    H           -2.480430353854    -0.904476025958    -0.703878987848
    H           -2.425777782665    -0.878897820037     1.061136060490
    C           -0.020105752202    -0.384307565722     0.088932348645
    C            1.231516880348     0.486056406661     0.106830432428
    H           -0.026907962674    -1.031133366634    -0.789902744544
    H           -0.020823788365    -1.053090556345     0.950990917749
    C            2.454580085355    -0.213620731832    -0.480311934923
    H            1.008968307604     1.407104406735    -0.421690089021
    H            1.435907379131     0.782857634779     1.132094499853
    H            2.306198000136    -0.451601548614    -1.529505122345
    H            3.336158461686     0.414037997242    -0.403798013734
    H            2.667515070389    -1.142419849207     0.042570353263

  Mulliken Charges: (a.u.)
   Center  Symbol    Alpha    Beta     Spin     Total
       1     H     0.41207  0.41207  0.00000  0.17586
       2     C     3.07974  3.07974  0.00000 -0.15948
       3     O     4.30490  4.30490  0.00000 -0.60981
       4     H     0.43017  0.43017  0.00000  0.13967
       5     H     0.43012  0.43012  0.00000  0.13975
       6     C     2.98352  2.98352  0.00000  0.03296
       7     C     3.16262  3.16262  0.00000 -0.32524
       8     H     0.43278  0.43278  0.00000  0.13445
       9     H     0.43300  0.43300  0.00000  0.13401
      10     C     3.24711  3.24711  0.00000 -0.49422
      11     H     0.40888  0.40888  0.00000  0.18223
      12     H     0.41777  0.41777  0.00000  0.16447
      13     H     0.41929  0.41929  0.00000  0.16141
      14     H     0.41618  0.41618  0.00000  0.16764
      15     H     0.42185  0.42185  0.00000  0.15630

   Total alpha = 21.00000, Total beta = 21.00000, Total charge = -0.00000
