                              Psi4 1.0.54 Driver

  ==> Input File <==

--------------------------------------------------------------------------
set {
	reference rhf
	basis cc-pvtz
}

set_num_threads( 4 )
memory 2 gb

molecule MOL {
0 1

H	 1.466675	 3.717623	 -2.236078
N	 0.698658	 3.083197	 -2.293258
C	 0.653694	 2.208972	 -1.131721
H	 0.815060	 2.554774	 -3.132644
C	 -0.565446	 1.300243	 -1.183058
H	 0.596024	 2.835209	 -0.247747
H	 1.551671	 1.598906	 -1.024898
C	 -0.678115	 0.376691	 0.025731
H	 -1.453549	 1.918375	 -1.264244
H	 -0.523419	 0.701394	 -2.090855
C	 -1.900706	 -0.535531	 -0.022488
H	 -0.715907	 0.975164	 0.933121
H	 0.218943	 -0.233511	 0.101974
C	 -3.220513	 0.226854	 0.028039
H	 -1.865036	 -1.134397	 -0.928236
H	 -1.857948	 -1.236381	 0.806820
H	 -3.309098	 0.911849	 -0.808725
H	 -4.066838	 -0.449485	 -0.008086
H	 -3.301685	 0.809374	 0.939860

	symmetry c1
}
set optking {
	frozen_dihedral = ("
		12 8 11 15
	")
}

ee,wfn = optimize('scf', return_wfn=True)
oeprop( wfn, 'DIPOLE', 'QUADRUPOLE', 'MULLIKEN_CHARGES')
f=open( 'psi4out.xyz', 'w' )
f.write( "19  " )
f.write( str(ee) + "\n" )
f.write( MOL.save_string_xyz() )
f.close()
--------------------------------------------------------------------------

    Molecular point group: c1
  Charge       = 0
  Multiplicity = 1
  Basis Set: CC-PVTZ
  Basis Set:
  @DF-RHF Final Energy:  -251.44592736824706
    Total Energy =                       -251.4459273682469984
    Molecular point group: c1
  Basis Set: CC-PVTZ
  Basis Set:
  Basis Set: CC-PVTZ
  Basis Set:
  @DF-RHF Final Energy:  -251.44606645056317
    Total Energy =                       -251.4460664505633645
  Basis Set: CC-PVTZ
  Basis Set:
  Basis Set: CC-PVTZ
  Basis Set:
  @DF-RHF Final Energy:  -251.44647933255797
    Total Energy =                       -251.4464793325579990
  Basis Set: CC-PVTZ
  Basis Set:
  Basis Set: CC-PVTZ
  Basis Set:
  @DF-RHF Final Energy:  -251.44649301852400
    Total Energy =                       -251.4464930185238245
  Basis Set: CC-PVTZ
  Basis Set:
  Basis Set: CC-PVTZ
  Basis Set:
  @DF-RHF Final Energy:  -251.44649416683177
    Total Energy =                       -251.4464941668317124
  Basis Set: CC-PVTZ
  Basis Set:
  Charge       = 0
  Multiplicity = 1
  Basis Set: CC-PVTZ
  Basis Set:

    Orbital Energies (a.u.)
    -----------------------

    Doubly Occupied:

       1A    -15.526420     2A    -11.237882     3A    -11.212243
       4A    -11.210698     5A    -11.207190     6A    -11.204011
       7A     -1.178164     8A     -1.073528     9A     -0.996253
      10A     -0.904159    11A     -0.822632    12A     -0.777916
      13A     -0.664159    14A     -0.642045    15A     -0.604989
      16A     -0.596413    17A     -0.588589    18A     -0.537544
      19A     -0.519307    20A     -0.509950    21A     -0.485530
      22A     -0.460920    23A     -0.455963    24A     -0.450710
      25A     -0.383929

  @DF-RHF Final Energy:  -251.44649424062922

   => Energetics <=

    Nuclear Repulsion Energy =            249.1466186231082531
    One-Electron Energy =                -832.6839361317784096
    Two-Electron Energy =                 332.0908232680409355
    DFT Exchange-Correlation Energy =       0.0000000000000000
    Empirical Dispersion Energy =           0.0000000000000000
    PCM Polarization Energy =               0.0000000000000000
    EFP Energy =                            0.0000000000000000
    Total Energy =                       -251.4464942406292494
    Molecular point group: c1
  Basis Set: CC-PVTZ
  Basis Set:

  -Total Gradient:
     Atom            X                  Y                   Z
    ------   -----------------  -----------------  -----------------
       1       -0.000002672958    -0.000002595033     0.000002362400
       2       -0.000006317067     0.000006469407    -0.000001383492
       3        0.000009850078    -0.000010403736    -0.000003146391
       4       -0.000000032178    -0.000001005540     0.000003831253
       5        0.000002941373    -0.000000173597    -0.000004316150
       6       -0.000001403353     0.000000818241    -0.000001895544
       7       -0.000000079985    -0.000000120803     0.000001650344
       8        0.000005968746    -0.000011552467     0.000012077373
       9       -0.000004428392    -0.000002380026    -0.000002697215
      10        0.000001736555     0.000004332737    -0.000001148264
      11        0.000011897941    -0.000013653655     0.000009788698
      12       -0.000012431354     0.000013748592    -0.000007621785
      13       -0.000004146746    -0.000001247747     0.000001009299
      14        0.000003391125    -0.000000633152     0.000003446808
      15       -0.000009138249     0.000019389951    -0.000012280311
      16       -0.000003164085    -0.000002203849     0.000000094542
      17        0.000002852518    -0.000002078856    -0.000000470020
      18        0.000005509528     0.000001915609     0.000002165098
      19       -0.000000333498     0.000001373917    -0.000001466642

  **** Optimization is complete! (in 6 steps) ****
    Final optimized geometry and variables:
    Molecular point group: c1

    Geometry (in Angstrom), charge = 0, multiplicity = 1:

    H            2.362451270770     2.547862116805    -1.446698999354
    N            1.568646287451     1.945881223912    -1.502762001185
    C            1.503137920139     1.056547398673    -0.353784305979
    H            1.652932236360     1.426008973579    -2.351300105793
    C            0.246503138547     0.199487394174    -0.401723556704
    H            1.482505067175     1.671045711935     0.540109491011
    H            2.376705728749     0.408978056802    -0.268185211120
    C            0.113349709023    -0.724857453187     0.806231251909
    H           -0.609503394418     0.858820295625    -0.479224943706
    H            0.260211453880    -0.398981866472    -1.311106350691
    C           -1.090871314706    -1.667092603973     0.760512233162
    H            0.062206851435    -0.125899699353     1.712819754660
    H            1.015415580705    -1.324944900815     0.890484993403
    C           -2.447518359234    -0.970704803415     0.833286068837
    H           -1.041894322843    -2.266701870947    -0.144687867696
    H           -1.012839462532    -2.364229526650     1.589183983194
    H           -2.620240391337    -0.328926528218    -0.021951715030
    H           -3.251218335923    -1.697636233555     0.862804430219
    H           -2.523365493640    -0.358985586277     1.726616111278

  Mulliken Charges: (a.u.)
   Center  Symbol    Alpha    Beta     Spin     Total
       1     H     0.43027  0.43027  0.00000  0.13946
       2     N     3.68905  3.68905  0.00000 -0.37810
       3     C     3.02705  3.02705  0.00000 -0.05410
       4     H     0.43112  0.43112  0.00000  0.13776
       5     C     3.08553  3.08553  0.00000 -0.17107
       6     H     0.45696  0.45696  0.00000  0.08607
       7     H     0.46743  0.46743  0.00000  0.06514
       8     C     3.09966  3.09966  0.00000 -0.19932
       9     H     0.44707  0.44707  0.00000  0.10586
      10     H     0.46011  0.46011  0.00000  0.07977
      11     C     3.08979  3.08979  0.00000 -0.17959
      12     H     0.45411  0.45411  0.00000  0.09179
      13     H     0.45136  0.45136  0.00000  0.09727
      14     C     3.15174  3.15174  0.00000 -0.30349
      15     H     0.45521  0.45521  0.00000  0.08959
      16     H     0.44888  0.44888  0.00000  0.10224
      17     H     0.45234  0.45234  0.00000  0.09532
      18     H     0.44713  0.44713  0.00000  0.10574
      19     H     0.45517  0.45517  0.00000  0.08965

   Total alpha = 25.00000, Total beta = 25.00000, Total charge =  0.00000

*** Psi4 exiting successfully. Buy a developer a beer!
