  ==> Input File <==

--------------------------------------------------------------------------
set {
	reference rhf
	basis cc-pvtz
}

set_num_threads( 4 )
memory 2 gb

molecule MOL {
0 1

H	 1.166964	 -1.062386	 0.758429
O	 1.324748	 -0.612467	 -0.052206
C	 0.706474	 0.636793	 -0.025501
C	 1.569812	 1.751341	 0.494172
H	 -0.164746	 0.534277	 0.610714
H	 0.338504	 0.908579	 -1.013139
C	 2.774699	 1.617816	 1.002824
H	 1.125889	 2.731063	 0.428393
H	 3.243370	 0.657235	 1.100818
H	 3.326897	 2.469819	 1.351004

	symmetry c1
}
set optking {
	frozen_dihedral = ("
		5 3 2 1
	")
}

ee = optimize('scf')
oeprop('DIPOLE', 'QUADRUPOLE', 'MULLIKEN_CHARGES')
f=open( 'psi4out.xyz', 'w' )
f.write( "10  " )
f.write( str(ee) + "\n" )
f.write( MOL.save_string_xyz() )
f.close()
--------------------------------------------------------------------------

    Molecular point group: c1
  Charge       = 0
  Multiplicity = 1
  Basis Set: CC-PVTZ
  Basis Set:
  @DF-RHF Final Energy:  -191.99627569198563
    Total Energy =                       -191.9962756919856304
    Molecular point group: c1
  Basis Set: CC-PVTZ
  Basis Set:
  Basis Set: CC-PVTZ
  Basis Set:
  @DF-RHF Final Energy:  -191.99753647136134
    Total Energy =                       -191.9975364713613999
  Basis Set: CC-PVTZ
  Basis Set:
  Basis Set: CC-PVTZ
  Basis Set:
  @DF-RHF Final Energy:  -191.99790443052166
    Total Energy =                       -191.9979044305217144
  Basis Set: CC-PVTZ
  Basis Set:
  Basis Set: CC-PVTZ
  Basis Set:
  @DF-RHF Final Energy:  -191.99791394038982
    Total Energy =                       -191.9979139403897079
  Basis Set: CC-PVTZ
  Basis Set:
  Basis Set: CC-PVTZ
  Basis Set:
  @DF-RHF Final Energy:  -191.99791539088324
    Total Energy =                       -191.9979153908831790
  Basis Set: CC-PVTZ
  Basis Set:
  Charge       = 0
  Multiplicity = 1
  Basis Set: CC-PVTZ
  Basis Set:

    Orbital Energies (a.u.)
    -----------------------

    Doubly Occupied:

       1A    -20.554224     2A    -11.278561     3A    -11.225749
       4A    -11.211523     5A     -1.374132     6A     -1.059399
       7A     -0.929670     8A     -0.765735     9A     -0.700964
      10A     -0.659619    11A     -0.617218    12A     -0.576721
      13A     -0.524433    14A     -0.506165    15A     -0.449494
      16A     -0.364913

  @DF-RHF Final Energy:  -191.99791543478634

   => Energetics <=

    Nuclear Repulsion Energy =            119.4197229928594481
    One-Electron Energy =                -497.2382354132145110
    Two-Electron Energy =                 185.8205969855687556
    DFT Exchange-Correlation Energy =       0.0000000000000000
    Empirical Dispersion Energy =           0.0000000000000000
    PCM Polarization Energy =               0.0000000000000000
    EFP Energy =                            0.0000000000000000
    Total Energy =                       -191.9979154347863357
    Molecular point group: c1
  Basis Set: CC-PVTZ
  Basis Set:

  -Total Gradient:
     Atom            X                  Y                   Z
    ------   -----------------  -----------------  -----------------
       1       -0.001369376847    -0.000705224660    -0.000764413074
       2        0.001894120043     0.000955978773     0.001293416692
       3       -0.001262356300    -0.000660440442    -0.001748010190
       4        0.000005599385     0.000011519579    -0.000041955077
       5        0.000720396809     0.000377433110     0.001240352274
       6        0.000009784691     0.000017798873     0.000005814138
       7        0.000009595749     0.000006160164    -0.000024984571
       8       -0.000001356086     0.000001460329     0.000012978025
       9       -0.000002096445    -0.000001057194     0.000010469824
      10       -0.000004310998    -0.000003628530     0.000016331961

  **** Optimization is complete! (in 6 steps) ****
    Final optimized geometry and variables:
    Molecular point group: c1

    Geometry (in Angstrom), charge = 0, multiplicity = 1:

    H           -0.446103277299    -1.839011174741     0.430822191514
    O           -0.235591407692    -1.382219944852    -0.361817371650
    C           -0.860980421006    -0.133254149192    -0.379622468391
    C           -0.011839234308     0.980127137470     0.166694039210
    H           -1.795353192515    -0.158596100613     0.176396704721
    H           -1.115422413014     0.086721319062    -1.410300071653
    C            1.217475863340     0.856812775630     0.613928469584
    H           -0.488371908115     1.946960759609     0.171652461662
    H            1.722173137576    -0.089725329818     0.610399499119
    H            1.758321834176     1.704989581890     0.988694683881

  Mulliken Charges: (a.u.)
   Center  Symbol    Alpha    Beta     Spin     Total
       1     H     0.39091  0.39091  0.00000  0.21817
       2     O     4.19885  4.19885  0.00000 -0.39771
       3     C     2.95133  2.95133  0.00000  0.09734
       4     C     3.08220  3.08220  0.00000 -0.16440
       5     H     0.46948  0.46948  0.00000  0.06105
       6     H     0.45580  0.45580  0.00000  0.08840
       7     C     3.17707  3.17707  0.00000 -0.35413
       8     H     0.42393  0.42393  0.00000  0.15213
       9     H     0.42162  0.42162  0.00000  0.15677
      10     H     0.42881  0.42881  0.00000  0.14237

   Total alpha = 16.00000, Total beta = 16.00000, Total charge =  0.00000
