  ==> Input File <==

--------------------------------------------------------------------------
set {
	reference rhf
	basis 6-31G*
}

set_num_threads( 1 )
memory 2 gb

molecule MOL {
0 1

O	 -1.276010	 1.052711	 -0.768302
C	 -1.204840	 0.067374	 -0.106123
C	 -2.388195	 -0.672128	 0.458071
O	 -0.067104	 -0.527208	 0.221609
H	 -2.388023	 -1.694060	 0.097175
H	 -3.300579	 -0.174919	 0.164318
H	 -2.315377	 -0.706351	 1.539059
C	 0.889689	 -0.815855	 -0.807545
C	 1.710023	 -1.987372	 -0.297458
C	 1.728760	 0.420521	 -1.090351
H	 0.345512	 -1.099244	 -1.696403
H	 1.073290	 -2.840756	 -0.093609
H	 2.446803	 -2.278685	 -1.038825
H	 2.229685	 -1.722304	 0.617060
H	 2.470224	 0.201993	 -1.852252
H	 1.107875	 1.232650	 -1.446615
H	 2.246200	 0.741235	 -0.191793

	symmetry c1
}
set optking {
	frozen_dihedral = ("
		11 8 4 2
	")
}

ee = energy('scf')
oeprop('DIPOLE', 'QUADRUPOLE', 'MULLIKEN_CHARGES')
f=open( 'psi4out.xyz', 'w' )
f.write( "17  " )
f.write( str(ee) + "\n" )
f.write( MOL.save_string_xyz() )
f.close()
--------------------------------------------------------------------------

    Molecular point group: c1

    Geometry (in Angstrom), charge = 0, multiplicity = 1:

       Center              X                  Y                   Z               Mass
    ------------   -----------------  -----------------  -----------------  -----------------
           O         -1.190660103949     1.403945683317    -0.427376635445    15.994914619560
           C         -1.119490103949     0.418608683317     0.234802364555    12.000000000000
           C         -2.302845103949    -0.320893316683     0.798996364555    12.000000000000
           O          0.018245896051    -0.175973316683     0.562534364555    15.994914619560
           H         -2.302673103949    -1.342825316683     0.438100364555     1.007825032070
           H         -3.215229103949     0.176315683317     0.505243364555     1.007825032070
           H         -2.230027103949    -0.355116316683     1.879984364555     1.007825032070
           C          0.975038896051    -0.464620316683    -0.466619635445    12.000000000000
           C          1.795372896051    -1.636137316683     0.043467364555    12.000000000000
           C          1.814109896051     0.771755683317    -0.749425635445    12.000000000000
           H          0.430861896051    -0.748009316683    -1.355477635445     1.007825032070
           H          1.158639896051    -2.489521316683     0.247316364555     1.007825032070
           H          2.532152896051    -1.927450316683    -0.697899635445     1.007825032070
           H          2.315034896051    -1.371069316683     0.957985364555     1.007825032070
           H          2.555573896051     0.553227683317    -1.511326635445     1.007825032070
           H          1.193224896051     1.583884683317    -1.105689635445     1.007825032070
           H          2.331549896051     1.092469683317     0.149132364555     1.007825032070

  Charge       = 0
  Multiplicity = 1
  Basis Set: 6-31G*
  Basis Set:

    Orbital Energies (a.u.)
    -----------------------

    Doubly Occupied:

       1A    -20.588077     2A    -20.548884     3A    -11.375646
       4A    -11.297898     5A    -11.232645     6A    -11.222157
       7A    -11.209626     8A     -1.462789     9A     -1.363449
      10A     -1.077678    11A     -1.005764    12A     -0.946598
      13A     -0.848801    14A     -0.770273    15A     -0.690882
      16A     -0.676123    17A     -0.652523    18A     -0.610165
      19A     -0.588144    20A     -0.581178    21A     -0.556876
      22A     -0.551204    23A     -0.547290    24A     -0.513710
      25A     -0.497737    26A     -0.488407    27A     -0.444317
      28A     -0.433072

  @DF-RHF Final Energy:  -344.90252035040061

   => Energetics <=

    Nuclear Repulsion Energy =            323.3227646044786638
    One-Electron Energy =               -1110.8868081767056992
    Two-Electron Energy =                 442.6615232218255755
    DFT Exchange-Correlation Energy =       0.0000000000000000
    Empirical Dispersion Energy =           0.0000000000000000
    PCM Polarization Energy =               0.0000000000000000
    EFP Energy =                            0.0000000000000000
    Total Energy =                       -344.9025203504015167

  Mulliken Charges: (a.u.)
   Center  Symbol    Alpha    Beta     Spin     Total
       1     O     4.27249  4.27249  0.00000 -0.54498
       2     C     2.62131  2.62131  0.00000  0.75738
       3     C     3.28113  3.28113  0.00000 -0.56225
       4     O     4.31580  4.31580  0.00000 -0.63160
       5     H     0.40494  0.40494  0.00000  0.19012
       6     H     0.39904  0.39904  0.00000  0.20192
       7     H     0.39949  0.39949  0.00000  0.20102
       8     C     2.92821  2.92821  0.00000  0.14359
       9     C     3.24034  3.24034  0.00000 -0.48068
      10     C     3.24810  3.24810  0.00000 -0.49621
      11     H     0.41545  0.41545  0.00000  0.16910
      12     H     0.41362  0.41362  0.00000  0.17276
      13     H     0.41734  0.41734  0.00000  0.16531
      14     H     0.41095  0.41095  0.00000  0.17811
      15     H     0.42366  0.42366  0.00000  0.15268
      16     H     0.39214  0.39214  0.00000  0.21572
      17     H     0.41600  0.41600  0.00000  0.16801

   Total alpha = 28.00000, Total beta = 28.00000, Total charge =  0.00000
