  ==> Input File <==

--------------------------------------------------------------------------
set {
	reference rhf
	basis 6-31G*
}

set_num_threads( 1 )
memory 2 gb

molecule MOL {
0 1

O	 -0.486920	 -1.867955	 1.385980
C	 -1.431230	 -1.554099	 0.734529
C	 -2.700990	 -2.361760	 0.652899
O	 -1.481751	 -0.454642	 0.000584
H	 -3.107809	 -2.472271	 1.650971
H	 -3.432461	 -1.898456	 0.007346
H	 -2.460284	 -3.352237	 0.285618
C	 -0.334255	 0.388708	 0.000906
C	 0.891947	 -0.504646	 0.000751
H	 -0.365390	 1.025305	 -0.873475
H	 -0.365484	 1.024911	 0.875569
C	 2.191998	 0.301789	 0.000897
H	 0.855148	 -1.151283	 -0.871571
H	 0.855132	 -1.151660	 0.872805
C	 3.441114	 -0.581407	 0.000108
H	 2.215074	 0.954890	 -0.869742
H	 2.215465	 0.953923	 0.872248
C	 4.739576	 0.224112	 -0.001102
H	 3.419457	 -1.233487	 -0.870178
H	 3.420834	 -1.233096	 0.870717
H	 4.804918	 0.861552	 -0.878265
H	 5.606527	 -0.429058	 -0.001824
H	 4.806469	 0.861674	 0.875853

	symmetry c1
}
set optking {
	frozen_dihedral = ("
		13 9 8 10,
		16 12 9 13,
		19 15 12 16,
		1 2 4 8
	")
}

ee = energy('scf')
oeprop('DIPOLE', 'QUADRUPOLE', 'MULLIKEN_CHARGES')
f=open( 'psi4out.xyz', 'w' )
f.write( "23  " )
f.write( str(ee) + "\n" )
f.write( MOL.save_string_xyz() )
f.close()
--------------------------------------------------------------------------

    Molecular point group: c1

    Geometry (in Angstrom), charge = 0, multiplicity = 1:

       Center              X                  Y                   Z               Mass
    ------------   -----------------  -----------------  -----------------  -----------------
           O         -1.014987859637    -1.149324998576     1.072318789868    15.994914619560
           C         -1.959297859637    -0.835468998576     0.420867789868    12.000000000000
           C         -3.229057859637    -1.643129998576     0.339237789868    12.000000000000
           O         -2.009818859637     0.263988001424    -0.313077210132    15.994914619560
           H         -3.635876859637    -1.753640998576     1.337309789868     1.007825032070
           H         -3.960528859637    -1.179825998576    -0.306315210132     1.007825032070
           H         -2.988351859637    -2.633606998576    -0.028043210132     1.007825032070
           C         -0.862322859637     1.107338001424    -0.312755210132    12.000000000000
           C          0.363879140363     0.213984001424    -0.312910210132    12.000000000000
           H         -0.893457859637     1.743935001424    -1.187136210132     1.007825032070
           H         -0.893551859637     1.743541001424     0.561907789868     1.007825032070
           C          1.663930140363     1.020419001424    -0.312764210132    12.000000000000
           H          0.327080140363    -0.432652998576    -1.185232210132     1.007825032070
           H          0.327064140363    -0.433029998576     0.559143789868     1.007825032070
           C          2.913046140363     0.137223001424    -0.313553210132    12.000000000000
           H          1.687006140363     1.673520001424    -1.183403210132     1.007825032070
           H          1.687397140363     1.672553001424     0.558586789868     1.007825032070
           C          4.211508140363     0.942742001424    -0.314763210132    12.000000000000
           H          2.891389140363    -0.514856998576    -1.183839210132     1.007825032070
           H          2.892766140363    -0.514465998576     0.557055789868     1.007825032070
           H          4.276850140363     1.580182001424    -1.191926210132     1.007825032070
           H          5.078459140363     0.289572001424    -0.315485210132     1.007825032070
           H          4.278401140363     1.580304001424     0.562191789868     1.007825032070

  Charge       = 0
  Multiplicity = 1
  Basis Set: 6-31G*
  Basis Set:

    Orbital Energies (a.u.)
    -----------------------

    Doubly Occupied:

       1A    -20.606627     2A    -20.542014     3A    -11.383252
       4A    -11.281703     5A    -11.236272     6A    -11.209565
       7A    -11.207181     8A    -11.203978     9A    -11.188247
      10A     -1.477523    11A     -1.370940    12A     -1.081790
      13A     -1.040208    14A     -0.995807    15A     -0.927099
      16A     -0.849920    17A     -0.791763    18A     -0.766230
      19A     -0.709372    20A     -0.689530    21A     -0.661023
      22A     -0.635737    23A     -0.604701    24A     -0.588753
      25A     -0.577529    26A     -0.564784    27A     -0.556760
      28A     -0.532182    29A     -0.525225    30A     -0.519416
      31A     -0.492839    32A     -0.470597    33A     -0.461532
      34A     -0.456958    35A     -0.435736    36A     -0.392091

  @DF-RHF Final Energy:  -422.93748085828554

   => Energetics <=

    Nuclear Repulsion Energy =            469.5905120002851163
    One-Electron Energy =               -1506.9859768152577999
    Two-Electron Energy =                 614.4579839566850978
    DFT Exchange-Correlation Energy =       0.0000000000000000
    Empirical Dispersion Energy =           0.0000000000000000
    PCM Polarization Energy =               0.0000000000000000
    EFP Energy =                            0.0000000000000000
    Total Energy =                       -422.9374808582875858

  Mulliken Charges: (a.u.)
   Center  Symbol    Alpha    Beta     Spin     Total
       1     O     4.29315  4.29315  0.00000 -0.58631
       2     C     2.60328  2.60328  0.00000  0.79344
       3     C     3.28761  3.28761  0.00000 -0.57522
       4     O     4.31392  4.31392  0.00000 -0.62783
       5     H     0.39677  0.39677  0.00000  0.20646
       6     H     0.39803  0.39803  0.00000  0.20394
       7     H     0.39720  0.39720  0.00000  0.20561
       8     C     2.99645  2.99645  0.00000  0.00710
       9     C     3.20532  3.20532  0.00000 -0.41065
      10     H     0.40787  0.40787  0.00000  0.18427
      11     H     0.41436  0.41436  0.00000  0.17127
      12     C     3.15374  3.15374  0.00000 -0.30748
      13     H     0.42527  0.42527  0.00000  0.14946
      14     H     0.35123  0.35123  0.00000  0.29753
      15     C     3.14986  3.14986  0.00000 -0.29971
      16     H     0.43124  0.43124  0.00000  0.13751
      17     H     0.42633  0.42633  0.00000  0.14734
      18     C     3.23905  3.23905  0.00000 -0.47810
      19     H     0.42373  0.42373  0.00000  0.15253
      20     H     0.42018  0.42018  0.00000  0.15965
      21     H     0.42289  0.42289  0.00000  0.15422
      22     H     0.42007  0.42007  0.00000  0.15987
      23     H     0.42245  0.42245  0.00000  0.15511

   Total alpha = 36.00000, Total beta = 36.00000, Total charge = -0.00000
