                              Psi4 1.0.54 Driver

  ==> Input File <==

--------------------------------------------------------------------------
set {
	reference rhf
	basis cc-pvtz
}

set_num_threads( 4 )
memory 2 gb

molecule MOL {
0 1

O	 -2.463822	 1.132254	 -0.138305
C	 -2.139471	 -0.001627	 0.005022
C	 -0.897019	 -0.550523	 -0.668084
C	 -2.931540	 -0.947817	 0.875724
C	 0.358027	 -0.244388	 0.158950
H	 -0.815585	 -0.079775	 -1.639616
H	 -0.990238	 -1.621401	 -0.814357
C	 1.630207	 -0.772146	 -0.501001
H	 0.419634	 0.827509	 0.298480
H	 0.261030	 -0.684056	 1.148688
C	 2.907848	 -0.545876	 0.309149
H	 1.740549	 -0.313317	 -1.480429
H	 1.516143	 -1.838460	 -0.675838
C	 3.373802	 0.906639	 0.372125
H	 3.699140	 -1.146831	 -0.127906
H	 2.764321	 -0.923458	 1.318191
H	 3.519798	 1.311927	 -0.623875
H	 4.316899	 0.983758	 0.900700
H	 2.661122	 1.540651	 0.885346
H	 -3.394191	 -1.705024	 0.250752
H	 -3.696052	 -0.407585	 1.412604
H	 -2.280158	 -1.462547	 1.573108

	symmetry c1
}
set optking {
	frozen_dihedral = ("
		12 8 11 15
	")
}

ee,wfn = optimize('scf', return_wfn=True)
oeprop( wfn, 'DIPOLE', 'QUADRUPOLE', 'MULLIKEN_CHARGES')
f=open( 'psi4out.xyz', 'w' )
f.write( "22  " )
f.write( str(ee) + "\n" )
f.write( MOL.save_string_xyz() )
f.close()
--------------------------------------------------------------------------

    Molecular point group: c1
  Charge       = 0
  Multiplicity = 1
  Basis Set: CC-PVTZ
  Basis Set:
  @DF-RHF Final Energy:  -348.22341123598147
    Total Energy =                       -348.2234112359816436
    Molecular point group: c1
  Basis Set: CC-PVTZ
  Basis Set:
  Basis Set: CC-PVTZ
  Basis Set:
  @DF-RHF Final Energy:  -348.22340704205749
    Total Energy =                       -348.2234070420573175
  Basis Set: CC-PVTZ
  Basis Set:
  Basis Set: CC-PVTZ
  Basis Set:
  @DF-RHF Final Energy:  -348.22339482511700
    Total Energy =                       -348.2233948251171114
  Basis Set: CC-PVTZ
  Basis Set:
  Basis Set: CC-PVTZ
  Basis Set:
  @DF-RHF Final Energy:  -348.22343985699234
    Total Energy =                       -348.2234398569922860
  Basis Set: CC-PVTZ
  Basis Set:
  Basis Set: CC-PVTZ
  Basis Set:
  @DF-RHF Final Energy:  -348.22342800688267
    Total Energy =                       -348.2234280068821590
  Basis Set: CC-PVTZ
  Basis Set:
  Basis Set: CC-PVTZ
  Basis Set:
  @DF-RHF Final Energy:  -348.22344124532054
    Total Energy =                       -348.2234412453205437
  Basis Set: CC-PVTZ
  Basis Set:
  Charge       = 0
  Multiplicity = 1
  Basis Set: CC-PVTZ
  Basis Set:

    Orbital Energies (a.u.)
    -----------------------

    Doubly Occupied:

       1A    -20.536730     2A    -11.319261     3A    -11.227976
       4A    -11.227378     5A    -11.226884     6A    -11.220618
       7A    -11.218983     8A    -11.209527     9A     -1.396849
      10A     -1.097348    11A     -1.045767    12A     -1.000316
      13A     -0.938972    14A     -0.857745    15A     -0.788343
      16A     -0.734205    17A     -0.664198    18A     -0.646590
      19A     -0.627349    20A     -0.623069    21A     -0.598584
      22A     -0.583743    23A     -0.564450    24A     -0.541891
      25A     -0.535911    26A     -0.519249    27A     -0.500201
      28A     -0.490587    29A     -0.472294    30A     -0.464611
      31A     -0.462108    32A     -0.398475

  @DF-RHF Final Energy:  -348.22344148398861

   => Energetics <=

    Nuclear Repulsion Energy =            373.4411622177410663
    One-Electron Energy =               -1211.8487769127416414
    Two-Electron Energy =                 490.1841732110113981
    DFT Exchange-Correlation Energy =       0.0000000000000000
    Empirical Dispersion Energy =           0.0000000000000000
    PCM Polarization Energy =               0.0000000000000000
    EFP Energy =                            0.0000000000000000
    Total Energy =                       -348.2234414839891770
    Molecular point group: c1
  Basis Set: CC-PVTZ
  Basis Set:

  -Total Gradient:
     Atom            X                  Y                   Z
    ------   -----------------  -----------------  -----------------
       1        0.000010464400    -0.000009543529     0.000012219305
       2       -0.000013014628    -0.000011755630    -0.000017119175
       3        0.000006672845     0.000007090914     0.000001072656
       4       -0.000008717493     0.000004720749    -0.000008774518
       5       -0.000003158276    -0.000006167076     0.000000848798
       6       -0.000008304518    -0.000002976570     0.000000936486
       7       -0.000002941693     0.000008820395     0.000004046054
       8        0.000333440202    -0.000975803331    -0.000224289541
       9        0.000000539287    -0.000006913556    -0.000000554558
      10        0.000002336718     0.000000188347     0.000002443503
      11        0.000158758153     0.000895237397    -0.000540343802
      12       -0.000304221486     0.000681496592     0.000279999144
      13        0.000000882788     0.000006372920     0.000001292072
      14        0.000008034030     0.000002617195     0.000002731506
      15       -0.000193414559    -0.000593131050     0.000487990372
      16       -0.000001819670     0.000006723662    -0.000004167531
      17       -0.000006210826    -0.000005943577     0.000008031861
      18       -0.000001219770    -0.000000695232    -0.000003145689
      19        0.000003936227    -0.000009034316    -0.000004300221
      20        0.000006400477     0.000003822256     0.000002763047
      21        0.000006855504     0.000000534551    -0.000002670814
      22        0.000004702287     0.000004338889     0.000000991046

  **** Optimization is complete! (in 7 steps) ****
    Final optimized geometry and variables:
    Molecular point group: c1

    Geometry (in Angstrom), charge = 0, multiplicity = 1:

    O           -2.425962270258     1.272614114525    -0.211417531794
    C           -2.116390308050     0.135147120868    -0.064204485411
    C           -0.877539516500    -0.430438011611    -0.729733830688
    C           -2.925209990012    -0.799474157143     0.803430557741
    C            0.376678107750    -0.140328294553     0.104285085952
    H           -0.784647349139     0.038292809152    -1.701132050930
    H           -0.984019597861    -1.500174976193    -0.875531438061
    C            1.646076688360    -0.688042414529    -0.545482690985
    H            0.453143190981     0.931028328763     0.241887514611
    H            0.267317039423    -0.575923641357     1.094375720445
    C            2.922087082188    -0.448271996170     0.264022694699
    H            1.757852630055    -0.243568725565    -1.531278317781
    H            1.525558909264    -1.756345836186    -0.700977624043
    C            3.378978303734     1.007335000499     0.312368844062
    H            3.717345809120    -1.053264042245    -0.159905162088
    H            2.776706056787    -0.815191004658     1.276849180341
    H            3.545622690473     1.395563694642    -0.687037932669
    H            4.308956195780     1.099951406576     0.861285647097
    H            2.650407810302     1.645791582825     0.797213142095
    H           -3.395393816286    -1.550305370802     0.176424351627
    H           -3.684711799205    -0.248384904581     1.336328525455
    H           -2.284473237766    -1.322998253413     1.504094592364

  Mulliken Charges: (a.u.)
   Center  Symbol    Alpha    Beta     Spin     Total
       1     O     4.17781  4.17781  0.00000 -0.35562
       2     C     2.85844  2.85844  0.00000  0.28311
       3     C     3.09731  3.09731  0.00000 -0.19463
       4     C     3.15520  3.15520  0.00000 -0.31041
       5     C     3.10373  3.10373  0.00000 -0.20747
       6     H     0.43895  0.43895  0.00000  0.12211
       7     H     0.44874  0.44874  0.00000  0.10252
       8     C     3.09636  3.09636  0.00000 -0.19272
       9     H     0.43888  0.43888  0.00000  0.12224
      10     H     0.45232  0.45232  0.00000  0.09536
      11     C     3.09079  3.09079  0.00000 -0.18158
      12     H     0.45148  0.45148  0.00000  0.09704
      13     H     0.44846  0.44846  0.00000  0.10307
      14     C     3.15048  3.15048  0.00000 -0.30097
      15     H     0.44745  0.44745  0.00000  0.10511
      16     H     0.45523  0.45523  0.00000  0.08954
      17     H     0.45411  0.45411  0.00000  0.09177
      18     H     0.44648  0.44648  0.00000  0.10703
      19     H     0.45260  0.45260  0.00000  0.09479
      20     H     0.44835  0.44835  0.00000  0.10331
      21     H     0.43606  0.43606  0.00000  0.12787
      22     H     0.45074  0.45074  0.00000  0.09852

   Total alpha = 32.00000, Total beta = 32.00000, Total charge =  0.00000

*** Psi4 exiting successfully. Buy a developer a beer!
