  ==> Input File <==

--------------------------------------------------------------------------
set {
	reference rhf
	basis 6-31G*
}

set_num_threads( 4 )
memory 2 gb

molecule MOL {
0 1

O	 3.225979	 0.970355	 -0.599647
C	 2.701189	 0.057885	 -0.047330
C	 1.245376	 -0.013843	 0.345420
O	 3.347903	 -1.046386	 0.304773
C	 0.455112	 1.231400	 -0.050772
H	 0.838542	 -0.913825	 -0.103701
H	 1.208210	 -0.175333	 1.419774
C	 -0.998893	 1.219485	 0.433193
H	 0.482531	 1.345121	 -1.130325
H	 0.957290	 2.103070	 0.354729
C	 -1.883438	 0.145884	 -0.207175
H	 -1.431207	 2.195402	 0.224832
H	 -1.019646	 1.105716	 1.516076
C	 -3.347647	 0.245583	 0.225435
H	 -1.822183	 0.231698	 -1.291012
H	 -1.510341	 -0.844814	 0.042401
C	 -3.778665	 -0.878419	 1.169350
H	 -3.984949	 0.236679	 -0.657176
H	 -3.515002	 1.205576	 0.711340
C	 -5.243168	 -0.773684	 1.593571
H	 -3.611162	 -1.838476	 0.685745
H	 -3.145603	 -0.868403	 2.054173
H	 -5.518436	 -1.583746	 2.261877
H	 -5.904611	 -0.815931	 0.732813
H	 -5.435490	 0.161904	 2.111220
C	 4.728119	 -1.109107	 -0.004993
H	 4.882018	 -1.033965	 -1.071845
H	 5.068212	 -2.067527	 0.355250
H	 5.265056	 -0.311663	 0.488280

	symmetry c1
}
set optking {
	frozen_dihedral = ("
		17 14 11 15
	")
}

ee = optimize('scf')
oeprop('DIPOLE', 'QUADRUPOLE', 'MULLIKEN_CHARGES')
f=open( 'psi4out.xyz', 'w' )
f.write( "29  " )
f.write( str(ee) + "\n" )
f.write( MOL.save_string_xyz() )
f.close()
--------------------------------------------------------------------------

    Molecular point group: c1
  Charge       = 0
  Multiplicity = 1
  Basis Set: 6-31G*
  Basis Set:
  @DF-RHF Final Energy:  -501.03880135430165
    Total Energy =                       -501.0388013543006309
    Molecular point group: c1
  Basis Set: 6-31G*
  Basis Set:
  Basis Set: 6-31G*
  Basis Set:
  @DF-RHF Final Energy:  -501.03902414235313
    Total Energy =                       -501.0390241423536963
  Basis Set: 6-31G*
  Basis Set:
  Basis Set: 6-31G*
  Basis Set:
  @DF-RHF Final Energy:  -501.03908329008914
    Total Energy =                       -501.0390832900893656
  Basis Set: 6-31G*
  Basis Set:
  Basis Set: 6-31G*
  Basis Set:
  @DF-RHF Final Energy:  -501.03914982165190
    Total Energy =                       -501.0391498216508808
  Basis Set: 6-31G*
  Basis Set:
  Basis Set: 6-31G*
  Basis Set:
  @DF-RHF Final Energy:  -501.03913345375929
    Total Energy =                       -501.0391334537589501
  Basis Set: 6-31G*
  Basis Set:
  Basis Set: 6-31G*
  Basis Set:
  @DF-RHF Final Energy:  -501.03914121610160
    Total Energy =                       -501.0391412161013704
  Basis Set: 6-31G*
  Basis Set:
  Basis Set: 6-31G*
  Basis Set:
  @DF-RHF Final Energy:  -501.03915507930060
    Total Energy =                       -501.0391550793001443
  Basis Set: 6-31G*
  Basis Set:
  Charge       = 0
  Multiplicity = 1
  Basis Set: 6-31G*
  Basis Set:

    Orbital Energies (a.u.)
    -----------------------

    Doubly Occupied:

       1A    -20.603395     2A    -20.545218     3A    -11.372041
       4A    -11.280680     5A    -11.234818     6A    -11.219033
       7A    -11.218068     8A    -11.216542     9A    -11.215611
      10A    -11.214195    11A    -11.209121    12A     -1.469094
      13A     -1.362538    14A     -1.097146    15A     -1.065940
      16A     -1.018895    17A     -0.976492    18A     -0.928334
      19A     -0.862062    20A     -0.805262    21A     -0.787439
      22A     -0.763903    23A     -0.700521    24A     -0.682303
      25A     -0.671979    26A     -0.634782    27A     -0.633237
      28A     -0.612440    29A     -0.595263    30A     -0.580364
      31A     -0.562421    32A     -0.555165    33A     -0.539547
      34A     -0.525524    35A     -0.516219    36A     -0.509750
      37A     -0.495233    38A     -0.478605    39A     -0.474549
      40A     -0.460040    41A     -0.456276    42A     -0.449685
      43A     -0.442542    44A     -0.435820

  @DF-RHF Final Energy:  -501.03915491053590

   => Energetics <=

    Nuclear Repulsion Energy =            613.6736700207313788
    One-Electron Energy =               -1898.4694646865518735
    Two-Electron Energy =                 783.7566397552843682
    DFT Exchange-Correlation Energy =       0.0000000000000000
    Empirical Dispersion Energy =           0.0000000000000000
    PCM Polarization Energy =               0.0000000000000000
    EFP Energy =                            0.0000000000000000
    Total Energy =                       -501.0391549105361264
    Molecular point group: c1
  Basis Set: 6-31G*
  Basis Set:

  -Total Gradient:
     Atom            X                  Y                   Z
    ------   -----------------  -----------------  -----------------
       1       -0.000009526895    -0.000006388986    -0.000017814389
       2        0.000016127565     0.000010107421     0.000042681313
       3        0.000001004286    -0.000012873442    -0.000007935524
       4       -0.000004709235    -0.000008985384    -0.000012611296
       5       -0.000009216763     0.000002250307    -0.000011622570
       6        0.000000089940    -0.000006113887     0.000003862601
       7        0.000010629773     0.000000801558    -0.000004711750
       8        0.000023314034     0.000039659431     0.000015076371
       9        0.000013245332     0.000018373129    -0.000016048563
      10       -0.000019279483    -0.000017622030     0.000002687535
      11        0.000115032674     0.002414837409    -0.000275418436
      12       -0.000027748103     0.000002058499     0.000014591557
      13        0.000004779800     0.000005845992     0.000010341156
      14        0.000477297334     0.000756868953     0.001759493608
      15       -0.000131954929    -0.002283580111    -0.000186584452
      16        0.000004017734    -0.000000743290    -0.000038105755
      17       -0.000473088582    -0.000921091480    -0.001272517513
      18       -0.000000426583     0.000000108009     0.000029065077
      19       -0.000029415571     0.000006712265    -0.000022526291
      20        0.000019413761     0.000012663263    -0.000027227938
      21       -0.000017073609    -0.000007737243     0.000010429766
      22        0.000019878087    -0.000012264027     0.000015085661
      23        0.000020305041    -0.000001364552    -0.000015202903
      24       -0.000005295089     0.000007747400    -0.000004826741
      25        0.000003592954     0.000000343997     0.000009806716
      26       -0.000000046372     0.000001055265     0.000001067154
      27        0.000000275366    -0.000000117987    -0.000000513520
      28       -0.000000938008    -0.000000177157    -0.000000285835
      29       -0.000000284468    -0.000000373321    -0.000000235037

  **** Optimization is complete! (in 8 steps) ****
    Final optimized geometry and variables:
    Molecular point group: c1

    Geometry (in Angstrom), charge = 0, multiplicity = 1:

    O            3.147865673213     0.964308467714    -0.877973185985
    C            2.609431031884     0.061477671286    -0.322967508058
    C            1.149201510726     0.006133837393     0.055839466488
    O            3.242552389169    -1.045479200811     0.045030912468
    C            0.374083707040     1.254701907796    -0.359895286801
    H            0.739495301860    -0.894946992198    -0.388245639013
    H            1.100196094534    -0.144407284797     1.131293783911
    C           -1.085142364651     1.261372128978     0.107277837789
    H            0.414775196381     1.359472007766    -1.440034933793
    H            0.879828716648     2.125011669938     0.044063662411
    C           -1.979375869407     0.205564331140    -0.549916292314
    H           -1.502006123360     2.243939178769    -0.100289461505
    H           -1.121189392997     1.141684916302     1.189559746099
    C           -3.447376421807     0.264497559208    -0.074021286420
    H           -1.932149372737     0.315483837302    -1.630447127314
    H           -1.585450351123    -0.786832718723    -0.345361558731
    C           -3.836656997572    -0.887916932697     0.855700870086
    H           -4.113357982177     0.251319065675    -0.933224024901
    H           -3.633402273575     1.210195838836     0.430320166874
    C           -5.277214788021    -0.792492133756     1.355291826296
    H           -3.697413682065    -1.830537286221     0.331067056181
    H           -3.159631446658    -0.910985264725     1.707882950382
    H           -5.526202952278    -1.628501624030     2.001617553282
    H           -5.980048684638    -0.794273710080     0.526740611332
    H           -5.436747503835     0.121574234183     1.920348179116
    C            4.625153958287    -1.123316786988    -0.250350010245
    H            4.790325420058    -1.058776809139    -1.316214163095
    H            4.952876889854    -2.081619870266     0.121461228164
    H            5.164393953897    -0.326524898596     0.241462103638

  Mulliken Charges: (a.u.)
   Center  Symbol    Alpha    Beta     Spin     Total
       1     O     4.28594  4.28594  0.00000 -0.57188
       2     C     2.60482  2.60482  0.00000  0.79037
       3     C     3.20958  3.20958  0.00000 -0.41916
       4     O     4.30745  4.30745  0.00000 -0.61490
       5     C     3.15449  3.15449  0.00000 -0.30899
       6     H     0.39891  0.39891  0.00000  0.20218
       7     H     0.40123  0.40123  0.00000  0.19753
       8     C     3.15799  3.15799  0.00000 -0.31597
       9     H     0.41298  0.41298  0.00000  0.17405
      10     H     0.40871  0.40871  0.00000  0.18258
      11     C     3.15887  3.15887  0.00000 -0.31773
      12     H     0.41757  0.41757  0.00000  0.16486
      13     H     0.42393  0.42393  0.00000  0.15214
      14     C     3.15366  3.15366  0.00000 -0.30732
      15     H     0.41968  0.41968  0.00000  0.16063
      16     H     0.42149  0.42149  0.00000  0.15701
      17     C     3.15300  3.15300  0.00000 -0.30600
      18     H     0.42070  0.42070  0.00000  0.15861
      19     H     0.42111  0.42111  0.00000  0.15778
      20     C     3.23998  3.23998  0.00000 -0.47996
      21     H     0.42256  0.42256  0.00000  0.15488
      22     H     0.42389  0.42389  0.00000  0.15222
      23     H     0.41927  0.41927  0.00000  0.16146
      24     H     0.42157  0.42157  0.00000  0.15685
      25     H     0.42149  0.42149  0.00000  0.15702
      26     C     3.09241  3.09241  0.00000 -0.18481
      27     H     0.40908  0.40908  0.00000  0.18184
      28     H     0.40851  0.40851  0.00000  0.18299
      29     H     0.40913  0.40913  0.00000  0.18175

   Total alpha = 44.00000, Total beta = 44.00000, Total charge =  0.00000
