  ==> Input File <==

--------------------------------------------------------------------------
set {
	reference rhf
	basis cc-pvtz
}

set_num_threads( 4 )
memory 2 gb

molecule MOL {
0 1

H	 -0.000342	 -0.223902	 -3.352295
C	 -0.027146	 0.371068	 -2.446756
C	 0.024493	 -0.518541	 -1.216015
H	 -0.932586	 0.964979	 -2.449855
H	 0.819708	 1.049865	 -2.473332
N	 -0.042516	 0.263377	 -0.000000
H	 -0.822211	 -1.197105	 -1.225584
H	 0.921114	 -1.142847	 -1.255206
C	 0.024493	 -0.518541	 1.216015
H	 0.682568	 0.950412	 -0.000000
C	 1.321473	 -1.306308	 1.293859
H	 -0.034010	 0.164122	 2.057441
H	 -0.823213	 -1.202031	 1.313271
H	 2.174667	 -0.641244	 1.245800
H	 1.373692	 -1.870104	 2.218042
H	 1.399216	 -2.012028	 0.472549

	symmetry c1
}
set optking {
	frozen_dihedral = ("
		12 9 6 3
	")
}

ee = optimize('scf')
oeprop('DIPOLE', 'QUADRUPOLE', 'MULLIKEN_CHARGES')
f=open( 'psi4out.xyz', 'w' )
f.write( "16  " )
f.write( str(ee) + "\n" )
f.write( MOL.save_string_xyz() )
f.close()
--------------------------------------------------------------------------

    Molecular point group: c1
  Charge       = 0
  Multiplicity = 1
  Basis Set: CC-PVTZ
  Basis Set:
  @DF-RHF Final Energy:  -212.38838939037464
    Total Energy =                       -212.3883893903745275
    Molecular point group: c1
  Basis Set: CC-PVTZ
  Basis Set:
  Basis Set: CC-PVTZ
  Basis Set:
  @DF-RHF Final Energy:  -212.39042156476700
    Total Energy =                       -212.3904215647672800
  Basis Set: CC-PVTZ
  Basis Set:
  Basis Set: CC-PVTZ
  Basis Set:
  @DF-RHF Final Energy:  -212.39177070748448
    Total Energy =                       -212.3917707074846248
  Basis Set: CC-PVTZ
  Basis Set:
  Basis Set: CC-PVTZ
  Basis Set:
  @DF-RHF Final Energy:  -212.39185988652201
    Total Energy =                       -212.3918598865220702
  Basis Set: CC-PVTZ
  Basis Set:
  Basis Set: CC-PVTZ
  Basis Set:
  @DF-RHF Final Energy:  -212.39186713335846
    Total Energy =                       -212.3918671333584030
  Basis Set: CC-PVTZ
  Basis Set:
  Charge       = 0
  Multiplicity = 1
  Basis Set: CC-PVTZ
  Basis Set:

    Orbital Energies (a.u.)
    -----------------------

    Doubly Occupied:

       1A    -15.527678     2A    -11.239515     3A    -11.238353
       4A    -11.205962     5A    -11.204930     6A     -1.204397
       7A     -1.024937     8A     -0.966481     9A     -0.849209
      10A     -0.807746    11A     -0.659294    12A     -0.626661
      13A     -0.611935    14A     -0.572656    15A     -0.551034
      16A     -0.533599    17A     -0.511645    18A     -0.489162
      19A     -0.482480    20A     -0.474708    21A     -0.357452

  @DF-RHF Final Energy:  -212.39186768681438

   => Energetics <=

    Nuclear Repulsion Energy =            191.3907119347730088
    One-Electron Energy =                -665.2854937305731937
    Two-Electron Energy =                 261.5029141089856921
    DFT Exchange-Correlation Energy =       0.0000000000000000
    Empirical Dispersion Energy =           0.0000000000000000
    PCM Polarization Energy =               0.0000000000000000
    EFP Energy =                            0.0000000000000000
    Total Energy =                       -212.3918676868145212
    Molecular point group: c1
  Basis Set: CC-PVTZ
  Basis Set:

  -Total Gradient:
     Atom            X                  Y                   Z
    ------   -----------------  -----------------  -----------------
       1       -0.000001859728     0.000003925823     0.000008146414
       2        0.000004503359    -0.000001690937    -0.000007948852
       3        0.001171846602     0.000129963356     0.000046242314
       4       -0.000004184155     0.000002852920    -0.000004260614
       5        0.000002838812     0.000000952144    -0.000004766737
       6       -0.001307795894    -0.000168545534    -0.000000617303
       7       -0.000008159001    -0.000008358351    -0.000007249838
       8        0.000006872999    -0.000009934666     0.000002506819
       9       -0.001314808464    -0.000051248942    -0.000042745853
      10       -0.000015290118     0.000014573036    -0.000017401143
      11        0.000009090078     0.000004612356    -0.000013193581
      12        0.001472806914     0.000107495822     0.000026657354
      13       -0.000008759816    -0.000029773326     0.000032583093
      14        0.000002362712    -0.000000510287     0.000000519212
      15       -0.000011681668     0.000013322641    -0.000012433713
      16        0.000002217368    -0.000007636054    -0.000006037574

  **** Optimization is complete! (in 6 steps) ****
    Final optimized geometry and variables:
    Molecular point group: c1

    Geometry (in Angstrom), charge = 0, multiplicity = 1:

    H           -0.377435774664     0.182959782815    -3.154865996023
    C           -0.412338505967     0.752675688757    -2.233150292512
    C           -0.193095515384    -0.151540977136    -1.030995063688
    H           -1.372295238524     1.248900771505    -2.167012367171
    H            0.356592121431     1.517059819914    -2.289158190671
    N           -0.262706780589     0.605563164319     0.201585065380
    H           -0.972062784610    -0.907269089496    -1.001723460762
    H            0.750491074757    -0.683836343440    -1.153585173465
    C           -0.218366919548    -0.156831035379     1.433675221804
    H            0.444367869949     1.310317390874     0.209194849181
    C            1.011712662756    -1.038780803686     1.651745043401
    H           -0.280057917567     0.552388400324     2.251312911873
    H           -1.112780789859    -0.769548735588     1.484321704525
    H            1.924540460593    -0.453528953430     1.595435201409
    H            0.972132440178    -1.498670580332     2.633383831956
    H            1.079215885893    -1.834341864942     0.919852221839

  Mulliken Charges: (a.u.)
   Center  Symbol    Alpha    Beta     Spin     Total
       1     H     0.45523  0.45523  0.00000  0.08953
       2     C     3.14036  3.14036  0.00000 -0.28073
       3     C     3.02347  3.02347  0.00000 -0.04694
       4     H     0.44962  0.44962  0.00000  0.10076
       5     H     0.45934  0.45934  0.00000  0.08132
       6     N     3.63880  3.63880  0.00000 -0.27761
       7     H     0.45867  0.45867  0.00000  0.08265
       8     H     0.47080  0.47080  0.00000  0.05840
       9     C     3.04334  3.04334  0.00000 -0.08669
      10     H     0.44502  0.44502  0.00000  0.10995
      11     C     3.14945  3.14945  0.00000 -0.29889
      12     H     0.45035  0.45035  0.00000  0.09930
      13     H     0.45455  0.45455  0.00000  0.09091
      14     H     0.45807  0.45807  0.00000  0.08386
      15     H     0.44955  0.44955  0.00000  0.10091
      16     H     0.45337  0.45337  0.00000  0.09326

   Total alpha = 21.00000, Total beta = 21.00000, Total charge = -0.00000
