  ==> Input File <==

--------------------------------------------------------------------------
set {
	reference rhf
	basis cc-pvtz
}

set_num_threads( 4 )
memory 2 gb

molecule MOL {
0 1

H	 1.469870	 -0.241055	 2.045377
C	 1.767348	 -0.017584	 1.012312
C	 0.692262	 0.592428	 0.156232
O	 2.864886	 -0.261774	 0.647053
C	 -0.554654	 -0.292621	 0.086567
H	 1.100979	 0.775872	 -0.828723
H	 0.429779	 1.551627	 0.597727
C	 -1.846385	 0.513195	 -0.016346
H	 -0.473986	 -0.956115	 -0.769708
H	 -0.597929	 -0.929215	 0.966651
C	 -3.089953	 -0.365049	 -0.098564
H	 -1.798267	 1.154820	 -0.891143
H	 -1.925398	 1.173265	 0.842889
H	 -3.055079	 -1.012299	 -0.968245
H	 -3.988403	 0.236438	 -0.170014
H	 -3.183055	 -0.995885	 0.779079

	symmetry c1
}
set optking {
	frozen_dihedral = ("
		6 3 5 9
	")
}

ee = optimize('scf')
oeprop('DIPOLE', 'QUADRUPOLE', 'MULLIKEN_CHARGES')
f=open( 'psi4out.xyz', 'w' )
f.write( "16  " )
f.write( str(ee) + "\n" )
f.write( MOL.save_string_xyz() )
f.close()
--------------------------------------------------------------------------

    Molecular point group: c1
  Charge       = 0
  Multiplicity = 1
  Basis Set: CC-PVTZ
  Basis Set:
  @DF-RHF Final Energy:  -270.11656148267525
    Total Energy =                       -270.1165614826750243
    Molecular point group: c1
  Basis Set: CC-PVTZ
  Basis Set:
  Basis Set: CC-PVTZ
  Basis Set:
  @DF-RHF Final Energy:  -270.11674793257839
    Total Energy =                       -270.1167479325781642
  Basis Set: CC-PVTZ
  Basis Set:
  Basis Set: CC-PVTZ
  Basis Set:
  @DF-RHF Final Energy:  -270.11675334505696
    Total Energy =                       -270.1167533450567362
  Basis Set: CC-PVTZ
  Basis Set:
  Basis Set: CC-PVTZ
  Basis Set:
  @DF-RHF Final Energy:  -270.11671115010336
    Total Energy =                       -270.1167111501031286
  Basis Set: CC-PVTZ
  Basis Set:
  Basis Set: CC-PVTZ
  Basis Set:
  @DF-RHF Final Energy:  -270.11680186910712
    Total Energy =                       -270.1168018691071211
  Basis Set: CC-PVTZ
  Basis Set:
  Charge       = 0
  Multiplicity = 1
  Basis Set: CC-PVTZ
  Basis Set:

    Orbital Energies (a.u.)
    -----------------------

    Doubly Occupied:

       1A    -20.552007     2A    -11.321286     3A    -11.234742
       4A    -11.234067     5A    -11.227740     6A    -11.216818
       7A     -1.407044     8A     -1.097052     9A     -1.019796
      10A     -0.907164    11A     -0.813764    12A     -0.794053
      13A     -0.677869    14A     -0.653677    15A     -0.628190
      16A     -0.605560    17A     -0.582301    18A     -0.555530
      19A     -0.533134    20A     -0.509230    21A     -0.486347
      22A     -0.482807    23A     -0.479916    24A     -0.411437

  @DF-RHF Final Energy:  -270.11680206480378

   => Energetics <=

    Nuclear Repulsion Energy =            229.2818570652228516
    One-Electron Energy =                -819.9342558216912948
    Two-Electron Energy =                 320.5355966916644093
    DFT Exchange-Correlation Energy =       0.0000000000000000
    Empirical Dispersion Energy =           0.0000000000000000
    PCM Polarization Energy =               0.0000000000000000
    EFP Energy =                            0.0000000000000000
    Total Energy =                       -270.1168020648040056
    Molecular point group: c1
  Basis Set: CC-PVTZ
  Basis Set:

  -Total Gradient:
     Atom            X                  Y                   Z
    ------   -----------------  -----------------  -----------------
       1       -0.000005512185    -0.000003740362    -0.000002917160
       2       -0.000001505281     0.000010414975     0.000011362310
       3       -0.003191208623     0.004493787956    -0.000936204492
       4        0.000007719084     0.000004897716    -0.000004635382
       5        0.002690455657    -0.003913538811     0.002774483702
       6        0.002208505549    -0.003138738863     0.000358478448
       7        0.000009611560     0.000011758269    -0.000003494397
       8        0.000021454984    -0.000005424552    -0.000021151498
       9       -0.001748034963     0.002545722869    -0.002187484419
      10        0.000009674133     0.000000592897    -0.000001351313
      11       -0.000003236466    -0.000006244605     0.000013063939
      12        0.000001455085     0.000010507763    -0.000001794108
      13       -0.000000118211    -0.000011718785    -0.000001033629
      14        0.000004853860     0.000004617652     0.000002467827
      15        0.000000598186     0.000001575252    -0.000000346531
      16       -0.000004712371    -0.000004469369     0.000000556703

  **** Optimization is complete! (in 6 steps) ****
    Final optimized geometry and variables:
    Molecular point group: c1

    Geometry (in Angstrom), charge = 0, multiplicity = 1:

    H            1.550531891213    -0.265933252880     1.739344309311
    C            1.819322817213    -0.040362583993     0.698633195482
    C            0.720737990670     0.581454973082    -0.121923316555
    O            2.903635565982    -0.289932287647     0.299952695955
    C           -0.533410193413    -0.306976856965    -0.161263495987
    H            1.119455950411     0.749788539769    -1.112752581489
    H            0.485544065451     1.540267205069     0.332657304037
    C           -1.827278404523     0.493927200062    -0.298468029675
    H           -0.457757763544    -0.980699497116    -1.007737989754
    H           -0.589403034072    -0.921013797143     0.733279720048
    C           -3.064726001055    -0.388977678997    -0.411623324648
    H           -1.758601498029     1.135176943094    -1.172779479043
    H           -1.930781445933     1.154942379228     0.557410507348
    H           -3.007504631558    -1.033796881619    -1.281956253232
    H           -3.964195187888     0.208545397720    -0.501510264814
    H           -3.174678612039    -1.023030733443     0.461864969244

  Mulliken Charges: (a.u.)
   Center  Symbol    Alpha    Beta     Spin     Total
       1     H     0.46693  0.46693  0.00000  0.06614
       2     C     2.90463  2.90463  0.00000  0.19073
       3     C     3.08052  3.08052  0.00000 -0.16103
       4     O     4.16422  4.16422  0.00000 -0.32845
       5     C     3.10141  3.10141  0.00000 -0.20282
       6     H     0.44136  0.44136  0.00000  0.11728
       7     H     0.44959  0.44959  0.00000  0.10083
       8     C     3.08589  3.08589  0.00000 -0.17179
       9     H     0.44498  0.44498  0.00000  0.11004
      10     H     0.45192  0.45192  0.00000  0.09616
      11     C     3.14935  3.14935  0.00000 -0.29870
      12     H     0.45077  0.45077  0.00000  0.09847
      13     H     0.45408  0.45408  0.00000  0.09183
      14     H     0.45333  0.45333  0.00000  0.09334
      15     H     0.44672  0.44672  0.00000  0.10656
      16     H     0.45429  0.45429  0.00000  0.09141

   Total alpha = 24.00000, Total beta = 24.00000, Total charge = -0.00000
