  ==> Input File <==

--------------------------------------------------------------------------
set {
	reference rhf
	basis 6-31G*
}

set_num_threads( 4 )
memory 2 gb

molecule MOL {
0 1

H	 -0.367348	 2.047014	 -0.308205
C	 0.352277	 1.337084	 0.083769
N	 -0.000016	 0.000074	 -0.335546
H	 1.328359	 1.600444	 -0.307950
H	 0.381933	 1.450534	 1.172486
C	 -1.310796	 -0.385525	 0.135027
C	 0.132441	 -0.170395	 -1.764375
H	 -1.510650	 -1.415838	 -0.136757
H	 -1.349867	 -0.311909	 1.216007
H	 -2.113252	 0.235504	 -0.276397
H	 1.146789	 0.060074	 -2.069917
H	 -0.070650	 -1.201137	 -2.032262
H	 -0.547465	 0.469117	 -2.336809

	symmetry c1
}
set optking {
	frozen_dihedral = ("
		6 3 2 1
	")
}

ee = optimize('scf')
oeprop('DIPOLE', 'QUADRUPOLE', 'MULLIKEN_CHARGES')
f=open( 'psi4out.xyz', 'w' )
f.write( "13  " )
f.write( str(ee) + "\n" )
f.write( MOL.save_string_xyz() )
f.close()
--------------------------------------------------------------------------

    Molecular point group: c1
  Charge       = 0
  Multiplicity = 1
  Basis Set: 6-31G*
  Basis Set:
  @DF-RHF Final Energy:  -173.26828993914356
    Total Energy =                       -173.2682899391435001
    Molecular point group: c1
  Basis Set: 6-31G*
  Basis Set:
  Basis Set: 6-31G*
  Basis Set:
  @DF-RHF Final Energy:  -173.26905656009953
    Total Energy =                       -173.2690565600996138
  Basis Set: 6-31G*
  Basis Set:
  Basis Set: 6-31G*
  Basis Set:
  @DF-RHF Final Energy:  -173.26916976896845
    Total Energy =                       -173.2691697689684247
  Basis Set: 6-31G*
  Basis Set:
  Charge       = 0
  Multiplicity = 1
  Basis Set: 6-31G*
  Basis Set:

    Orbital Energies (a.u.)
    -----------------------

    Doubly Occupied:

       1A    -15.543995     2A    -11.235847     3A    -11.235839
       4A    -11.235816     5A     -1.225565     6A     -0.951672
       7A     -0.951476     8A     -0.806542     9A     -0.641889
      10A     -0.630645    11A     -0.630325    12A     -0.544749
      13A     -0.543609    14A     -0.517334    15A     -0.501273
      16A     -0.500912    17A     -0.347245

  @DF-RHF Final Energy:  -173.26917088780752

   => Energetics <=

    Nuclear Repulsion Energy =            139.3014129353362307
    One-Electron Energy =                -509.0517061376735910
    Two-Electron Energy =                 196.4811223145297845
    DFT Exchange-Correlation Energy =       0.0000000000000000
    Empirical Dispersion Energy =           0.0000000000000000
    PCM Polarization Energy =               0.0000000000000000
    EFP Energy =                            0.0000000000000000
    Total Energy =                       -173.2691708878076042
    Molecular point group: c1
  Basis Set: 6-31G*
  Basis Set:

  -Total Gradient:
     Atom            X                  Y                   Z
    ------   -----------------  -----------------  -----------------
       1       -0.000481233664    -0.000092490395     0.000687503947
       2        0.000450970032     0.000171519361    -0.001151189866
       3        0.000212762233    -0.000390599615     0.000884233141
       4       -0.000008168413    -0.000058138543    -0.000021127215
       5       -0.000000193459    -0.000030360729     0.000006125937
       6       -0.000208274903     0.000283348695    -0.000488651922
       7        0.000057310187     0.000119260875     0.000051112247
       8        0.000006452194     0.000003707997    -0.000006864832
       9       -0.000029080360    -0.000003571026     0.000013656007
      10       -0.000001722826    -0.000003303312    -0.000001163357
      11        0.000028286126     0.000001808300    -0.000025814174
      12       -0.000011941932     0.000012277276     0.000058501912
      13       -0.000015165214    -0.000013458886    -0.000006321827

  **** Optimization is complete! (in 4 steps) ****
    Final optimized geometry and variables:
    Molecular point group: c1

    Geometry (in Angstrom), charge = 0, multiplicity = 1:

    H           -0.134229859637     1.888342045394     0.180412746967
    C            0.566489107788     1.135228592286     0.555267706397
    N            0.224457213865    -0.207866923379     0.145270085527
    H            1.558855181291     1.387859312348     0.200123644589
    H            0.573448019047     1.197479570442     1.637960342306
    C           -1.084546743635    -0.595498775102     0.619628874671
    C            0.350182288912    -0.383932229921    -1.284014624973
    H           -1.280383324394    -1.629001299165     0.357064659489
    H           -1.124246293119    -0.512363392626     1.699997744165
    H           -1.888922516284     0.019173189739     0.202666191094
    H            1.361987649776    -0.151257808394    -1.596261799779
    H            0.149483063882    -1.416772800835    -1.545500242470
    H           -0.335816074089     0.249661844845    -1.855646883098

  Mulliken Charges: (a.u.)
   Center  Symbol    Alpha    Beta     Spin     Total
       1     H     0.43502  0.43502  0.00000  0.12996
       2     C     3.14311  3.14311  0.00000 -0.28623
       3     N     3.76551  3.76551  0.00000 -0.53101
       4     H     0.41681  0.41681  0.00000  0.16638
       5     H     0.41651  0.41651  0.00000  0.16699
       6     C     3.14324  3.14324  0.00000 -0.28648
       7     C     3.14309  3.14309  0.00000 -0.28619
       8     H     0.41658  0.41658  0.00000  0.16683
       9     H     0.41667  0.41667  0.00000  0.16667
      10     H     0.43499  0.43499  0.00000  0.13002
      11     H     0.41665  0.41665  0.00000  0.16671
      12     H     0.41673  0.41673  0.00000  0.16655
      13     H     0.43511  0.43511  0.00000  0.12979

   Total alpha = 17.00000, Total beta = 17.00000, Total charge =  0.00000
