  ==> Input File <==

--------------------------------------------------------------------------
set {
	reference rhf
	basis cc-pvtz
}

set_num_threads( 4 )
memory 2 gb

molecule MOL {
0 1

O	 1.208452	 1.316793	 0.120464
C	 1.099200	 0.160300	 0.347728
C	 -0.193006	 -0.615318	 0.338718
O	 2.125571	 -0.619242	 0.646480
C	 -1.413045	 0.229353	 0.001137
H	 -0.072433	 -1.431155	 -0.366515
H	 -0.294639	 -1.080577	 1.313740
C	 -2.702562	 -0.586401	 0.000228
H	 -1.270757	 0.692446	 -0.968832
H	 -1.493611	 1.042927	 0.713283
C	 -3.953810	 0.284959	 -0.000782
H	 -2.717793	 -1.238567	 -0.869075
H	 -2.719108	 -1.238472	 0.869576
H	 -3.983727	 0.924403	 -0.876454
H	 -4.852989	 -0.320147	 -0.001515
H	 -3.985140	 0.924399	 0.874841
C	 3.404593	 -0.019670	 0.690500
H	 3.660954	 0.402825	 -0.269710
H	 4.094066	 -0.807735	 0.946329
H	 3.435022	 0.759431	 1.437694

	symmetry c1
}
set optking {
	frozen_dihedral = ("
		9 5 8 12
	")
}

ee = optimize('scf')
oeprop('DIPOLE', 'QUADRUPOLE', 'MULLIKEN_CHARGES')
f=open( 'psi4out.xyz', 'w' )
f.write( "20  " )
f.write( str(ee) + "\n" )
f.write( MOL.save_string_xyz() )
f.close()
--------------------------------------------------------------------------

    Molecular point group: c1
  Charge       = 0
  Multiplicity = 1
  Basis Set: CC-PVTZ
  Basis Set:
  @DF-RHF Final Energy:  -384.08252765552055
    Total Energy =                       -384.0825276555208347
    Molecular point group: c1
  Basis Set: CC-PVTZ
  Basis Set:
  Basis Set: CC-PVTZ
  Basis Set:
  @DF-RHF Final Energy:  -384.08262192568657
    Total Energy =                       -384.0826219256859986
  Basis Set: CC-PVTZ
  Basis Set:
  Basis Set: CC-PVTZ
  Basis Set:
  @DF-RHF Final Energy:  -384.08245944845675
    Total Energy =                       -384.0824594484568024
  Basis Set: CC-PVTZ
  Basis Set:
  Basis Set: CC-PVTZ
  Basis Set:
  @DF-RHF Final Energy:  -384.08264473915847
    Total Energy =                       -384.0826447391585816
  Basis Set: CC-PVTZ
  Basis Set:
  Charge       = 0
  Multiplicity = 1
  Basis Set: CC-PVTZ
  Basis Set:

    Orbital Energies (a.u.)
    -----------------------

    Doubly Occupied:

       1A    -20.596365     2A    -20.534204     3A    -11.364599
       4A    -11.278531     5A    -11.233822     6A    -11.218485
       7A    -11.217407     8A    -11.208656     9A     -1.472264
      10A     -1.365846    11A     -1.089777    12A     -1.025354
      13A     -0.969888    14A     -0.886108    15A     -0.804449
      16A     -0.769447    17A     -0.699233    18A     -0.686813
      19A     -0.675815    20A     -0.647104    21A     -0.598879
      22A     -0.593681    23A     -0.579663    24A     -0.541859
      25A     -0.536493    26A     -0.523985    27A     -0.502271
      28A     -0.477625    29A     -0.474879    30A     -0.472090
      31A     -0.459399    32A     -0.439969

  @DF-RHF Final Energy:  -384.08264722753194

   => Energetics <=

    Nuclear Repulsion Energy =            381.7251090027528448
    One-Electron Energy =               -1279.7255855262333171
    Two-Electron Energy =                 513.9178292959484224
    DFT Exchange-Correlation Energy =       0.0000000000000000
    Empirical Dispersion Energy =           0.0000000000000000
    PCM Polarization Energy =               0.0000000000000000
    EFP Energy =                            0.0000000000000000
    Total Energy =                       -384.0826472275321066
    Molecular point group: c1
  Basis Set: CC-PVTZ
  Basis Set:

  -Total Gradient:
     Atom            X                  Y                   Z
    ------   -----------------  -----------------  -----------------
       1       -0.000005337540    -0.000004351657     0.000017734836
       2        0.000016791301     0.000005774527    -0.000024829261
       3       -0.000041067468     0.000016189955    -0.000001264532
       4       -0.000007631564    -0.000005087750     0.000003189727
       5       -0.001981558793     0.003025475803     0.000649291640
       6        0.000003423229    -0.000004308832     0.000007107521
       7        0.000016225452    -0.000008449211     0.000010374288
       8        0.001792381821    -0.002805051166     0.001544041817
       9        0.001363600193    -0.002104480609    -0.000827657316
      10       -0.000002156521    -0.000000610167     0.000011345592
      11        0.000034854507    -0.000019646023     0.000015927128
      12       -0.001164097983     0.001887614439    -0.001416828509
      13       -0.000008202247    -0.000002633545     0.000011994743
      14       -0.000001556942     0.000001246918     0.000000808457
      15       -0.000002189575     0.000002446155    -0.000003712213
      16       -0.000014576975     0.000013784938     0.000001228008
      17        0.000002824364     0.000002708047     0.000000267090
      18       -0.000000808776    -0.000000551087     0.000000398793
      19       -0.000000869789    -0.000000071854     0.000000290648
      20       -0.000000046693     0.000000001120     0.000000291543

  **** Optimization is complete! (in 5 steps) ****
    Final optimized geometry and variables:
    Molecular point group: c1

    Geometry (in Angstrom), charge = 0, multiplicity = 1:

    O            1.227434395078     1.289328009388    -0.153971253050
    C            1.117763996202     0.133730607678     0.077749079408
    C           -0.176884927349    -0.637829720745     0.088317270256
    O            2.145664804957    -0.648000121683     0.365469633246
    C           -1.400252109891     0.210789318059    -0.232163198769
    H           -0.069607768336    -1.454340179001    -0.618591842710
    H           -0.265050404739    -1.102730930650     1.064673340815
    C           -2.684481485033    -0.615929228781    -0.258210172853
    H           -1.249452544181     0.680098476398    -1.197383707748
    H           -1.482764047394     1.010052484090     0.495049353800
    C           -3.939632814652     0.250541380663    -0.305009834531
    H           -2.676975280452    -1.260311560683    -1.132912350515
    H           -2.727324703804    -1.264164121115     0.612333692368
    H           -3.931354655553     0.902383396156    -1.172172060487
    H           -4.834951154187    -0.358152800841    -0.357259025942
    H           -4.015315914177     0.877496541360     0.576837321755
    C            3.426826135993    -0.052090913922     0.391546350773
    H            3.672232444050     0.366976824967    -0.573025541137
    H            4.117239400216    -0.841432988169     0.640838687311
    H            3.469031045251     0.729023458530     1.136072035783

  Mulliken Charges: (a.u.)
   Center  Symbol    Alpha    Beta     Spin     Total
       1     O     4.19686  4.19686  0.00000 -0.39371
       2     C     2.80663  2.80663  0.00000  0.38674
       3     C     3.10051  3.10051  0.00000 -0.20102
       4     O     4.14659  4.14659  0.00000 -0.29319
       5     C     3.08141  3.08141  0.00000 -0.16281
       6     H     0.44019  0.44019  0.00000  0.11963
       7     H     0.44031  0.44031  0.00000  0.11937
       8     C     3.08710  3.08710  0.00000 -0.17419
       9     H     0.44597  0.44597  0.00000  0.10806
      10     H     0.44736  0.44736  0.00000  0.10527
      11     C     3.14894  3.14894  0.00000 -0.29788
      12     H     0.45388  0.45388  0.00000  0.09224
      13     H     0.45597  0.45597  0.00000  0.08806
      14     H     0.45351  0.45351  0.00000  0.09298
      15     H     0.44866  0.44866  0.00000  0.10269
      16     H     0.45437  0.45437  0.00000  0.09126
      17     C     3.03769  3.03769  0.00000 -0.07537
      18     H     0.45435  0.45435  0.00000  0.09130
      19     H     0.44534  0.44534  0.00000  0.10931
      20     H     0.45437  0.45437  0.00000  0.09127

   Total alpha = 32.00000, Total beta = 32.00000, Total charge = -0.00000
