  ==> Input File <==

--------------------------------------------------------------------------
set {
	reference rhf
	basis cc-pvtz
}

set_num_threads( 4 )
memory 2 gb

molecule MOL {
0 1

H	 2.190573	 -0.629143	 -0.208718
O	 1.355408	 -0.529451	 0.208662
C	 0.700177	 0.619554	 -0.266242
C	 -0.713111	 0.588314	 0.266177
H	 0.678680	 0.627133	 -1.351786
H	 1.199747	 1.521489	 0.077736
O	 -1.421673	 -0.521378	 -0.196983
H	 -1.244794	 1.469161	 -0.069059
H	 -0.685100	 0.604721	 1.352683
H	 -0.846332	 -1.266360	 -0.194068

	symmetry c1
}
set optking {
	frozen_dihedral = ("
		10 7 4 3
	")
}

ee = optimize('scf')
oeprop('DIPOLE', 'QUADRUPOLE', 'MULLIKEN_CHARGES')
f=open( 'psi4out.xyz', 'w' )
f.write( "10  " )
f.write( str(ee) + "\n" )
f.write( MOL.save_string_xyz() )
f.close()
--------------------------------------------------------------------------

    Molecular point group: c1
  Charge       = 0
  Multiplicity = 1
  Basis Set: CC-PVTZ
  Basis Set:
  @DF-RHF Final Energy:  -229.02832326653814
    Total Energy =                       -229.0283232665380524
    Molecular point group: c1
  Basis Set: CC-PVTZ
  Basis Set:
  Basis Set: CC-PVTZ
  Basis Set:
  @DF-RHF Final Energy:  -229.02836512749303
    Total Energy =                       -229.0283651274930321
  Basis Set: CC-PVTZ
  Basis Set:
  Basis Set: CC-PVTZ
  Basis Set:
  @DF-RHF Final Energy:  -229.02840748057542
    Total Energy =                       -229.0284074805754813
  Basis Set: CC-PVTZ
  Basis Set:
  Charge       = 0
  Multiplicity = 1
  Basis Set: CC-PVTZ
  Basis Set:

    Orbital Energies (a.u.)
    -----------------------

    Doubly Occupied:

       1A    -20.563786     2A    -20.541091     3A    -11.276605
       4A    -11.266720     5A     -1.387909     6A     -1.355245
       7A     -1.004525     8A     -0.846904     9A     -0.731183
      10A     -0.677637    11A     -0.658106    12A     -0.606362
      13A     -0.577538    14A     -0.540407    15A     -0.489025
      16A     -0.458858    17A     -0.435836

  @DF-RHF Final Energy:  -229.02840781892587

   => Energetics <=

    Nuclear Repulsion Energy =            134.7547524117889566
    One-Electron Energy =                -580.7308454334724956
    Two-Electron Energy =                 216.9476852027575546
    DFT Exchange-Correlation Energy =       0.0000000000000000
    Empirical Dispersion Energy =           0.0000000000000000
    PCM Polarization Energy =               0.0000000000000000
    EFP Energy =                            0.0000000000000000
    Total Energy =                       -229.0284078189259844
    Molecular point group: c1
  Basis Set: CC-PVTZ
  Basis Set:

  -Total Gradient:
     Atom            X                  Y                   Z
    ------   -----------------  -----------------  -----------------
       1       -0.000005250323    -0.000003414328    -0.000004706174
       2       -0.000008751161    -0.000046565655     0.000011804449
       3        0.000440870356    -0.000704606302     0.001170771925
       4       -0.000462836704     0.001170503145    -0.002062252765
       5       -0.000015436456     0.000001414372     0.000002672786
       6       -0.000028675318     0.000026042118    -0.000003941249
       7       -0.000600508666    -0.000877802577     0.003013101097
       8        0.000022105216     0.000014883007    -0.000000267121
       9        0.000018659494     0.000016292034    -0.000002197381
      10        0.000639823562     0.000403254183    -0.002124985568

  **** Optimization is complete! (in 4 steps) ****
    Final optimized geometry and variables:
    Molecular point group: c1

    Geometry (in Angstrom), charge = 0, multiplicity = 1:

    H            2.185862034591    -0.628480254426    -0.213006244317
    O            1.341667439947    -0.540949113382     0.188827617332
    C            0.701851011665     0.628397338477    -0.255970602157
    C           -0.716207414986     0.597034574095     0.265809420142
    H            0.691765343804     0.667015096132    -1.341515197788
    H            1.206564426078     1.515434485549     0.116721283530
    O           -1.413431855242    -0.528665869657    -0.176062271304
    H           -1.249664445409     1.471846193452    -0.082973391357
    H           -0.692184440559     0.627827628271     1.352251337913
    H           -0.832450334761    -1.269085014200    -0.151222213235

  Mulliken Charges: (a.u.)
   Center  Symbol    Alpha    Beta     Spin     Total
       1     H     0.39055  0.39055  0.00000  0.21890
       2     O     4.20680  4.20680  0.00000 -0.41360
       3     C     2.97762  2.97762  0.00000  0.04476
       4     C     2.95683  2.95683  0.00000  0.08634
       5     H     0.46871  0.46871  0.00000  0.06258
       6     H     0.46980  0.46980  0.00000  0.06041
       7     O     4.21075  4.21075  0.00000 -0.42149
       8     H     0.46153  0.46153  0.00000  0.07695
       9     H     0.47261  0.47261  0.00000  0.05477
      10     H     0.38481  0.38481  0.00000  0.23039

   Total alpha = 17.00000, Total beta = 17.00000, Total charge = -0.00000
