  ==> Input File <==

--------------------------------------------------------------------------
set {
	reference rhf
	basis 6-31G*
}

set_num_threads( 4 )
memory 2 gb

molecule MOL {
0 1

H	 -2.798360	 -0.862255	 -0.071053
N	 -1.863561	 -0.715187	 0.256814
C	 -1.344686	 0.554728	 -0.219830
H	 -1.300452	 -1.461917	 -0.101532
C	 0.081427	 0.741154	 0.254071
H	 -1.362155	 0.656231	 -1.305829
H	 -1.952773	 1.354456	 0.191809
O	 0.874168	 -0.245412	 -0.342030
H	 0.444037	 1.730782	 -0.023037
H	 0.121165	 0.653424	 1.337565
C	 1.155519	 -1.331476	 0.481910
H	 1.769613	 -2.020524	 -0.081825
H	 1.699716	 -1.024371	 1.373267
H	 0.245825	 -1.841691	 0.791664

	symmetry c1
}
set optking {
	frozen_dihedral = ("
		11 8 5 3
	")
}

ee = optimize('scf')
oeprop('DIPOLE', 'QUADRUPOLE', 'MULLIKEN_CHARGES')
f=open( 'psi4out.xyz', 'w' )
f.write( "14  " )
f.write( str(ee) + "\n" )
f.write( MOL.save_string_xyz() )
f.close()
--------------------------------------------------------------------------

    Molecular point group: c1
  Charge       = 0
  Multiplicity = 1
  Basis Set: 6-31G*
  Basis Set:
  @DF-RHF Final Energy:  -248.11590347795160
    Total Energy =                       -248.1159034779517469
    Molecular point group: c1
  Basis Set: 6-31G*
  Basis Set:
  Basis Set: 6-31G*
  Basis Set:
  @DF-RHF Final Energy:  -248.11969142628857
    Total Energy =                       -248.1196914262885116
  Basis Set: 6-31G*
  Basis Set:
  Basis Set: 6-31G*
  Basis Set:
  @DF-RHF Final Energy:  -248.12030844788055
    Total Energy =                       -248.1203084478805181
  Basis Set: 6-31G*
  Basis Set:
  Basis Set: 6-31G*
  Basis Set:
  @DF-RHF Final Energy:  -248.12035605622265
    Total Energy =                       -248.1203560562228176
  Basis Set: 6-31G*
  Basis Set:
  Basis Set: 6-31G*
  Basis Set:
  @DF-RHF Final Energy:  -248.12035948417278
    Total Energy =                       -248.1203594841726385
  Basis Set: 6-31G*
  Basis Set:
  Charge       = 0
  Multiplicity = 1
  Basis Set: 6-31G*
  Basis Set:

    Orbital Energies (a.u.)
    -----------------------

    Doubly Occupied:

       1A    -20.549971     2A    -15.538005     3A    -11.263487
       4A    -11.258407     5A    -11.242873     6A     -1.370756
       7A     -1.179538     8A     -0.998582     9A     -0.907236
      10A     -0.811714    11A     -0.687561    12A     -0.667035
      13A     -0.638137    14A     -0.616638    15A     -0.596920
      16A     -0.538980    17A     -0.531828    18A     -0.509783
      19A     -0.462119    20A     -0.416542    21A     -0.379923

  @DF-RHF Final Energy:  -248.12035962491632

   => Energetics <=

    Nuclear Repulsion Energy =            196.8688519815119093
    One-Electron Energy =                -727.6463547369157823
    Two-Electron Energy =                 282.6571431304873840
    DFT Exchange-Correlation Energy =       0.0000000000000000
    Empirical Dispersion Energy =           0.0000000000000000
    PCM Polarization Energy =               0.0000000000000000
    EFP Energy =                            0.0000000000000000
    Total Energy =                       -248.1203596249165457
    Molecular point group: c1
  Basis Set: 6-31G*
  Basis Set:

  -Total Gradient:
     Atom            X                  Y                   Z
    ------   -----------------  -----------------  -----------------
       1        0.000015479946    -0.000006065883     0.000001684504
       2       -0.000001907171    -0.000009140066    -0.000015166636
       3       -0.000445841549    -0.001396409371     0.001812833420
       4       -0.000012657761     0.000017926649     0.000015421667
       5       -0.000278578463     0.001352557477    -0.002950830517
       6       -0.000004991009     0.000001970658    -0.000007457575
       7        0.000005014349    -0.000003294865    -0.000004085772
       8        0.002763486696     0.001338489516     0.002031325881
       9        0.000019624477    -0.000011583949    -0.000001266026
      10        0.000007420862     0.000003707956    -0.000000374473
      11       -0.002080210440    -0.001294248876    -0.000869776731
      12       -0.000002732775     0.000007434732    -0.000009302896
      13        0.000002602834    -0.000011119705     0.000008495499
      14        0.000013290005     0.000009775728    -0.000011500344

  **** Optimization is complete! (in 6 steps) ****
    Final optimized geometry and variables:
    Molecular point group: c1

    Geometry (in Angstrom), charge = 0, multiplicity = 1:

    H           -2.692976243076    -0.519125046028    -0.061315533226
    N           -1.702350036788    -0.501302677234     0.085726847363
    C           -1.155106661266     0.788766571416    -0.306234627231
    H           -1.315175237086    -1.222729116668    -0.491217339303
    C            0.283990335596     0.955463972109     0.155604952259
    H           -1.197794951009     0.958403062357    -1.382859230484
    H           -1.747670602255     1.568151946484     0.163954364068
    O            1.136545976160    -0.018461356447    -0.384373089361
    H            0.652304026100     1.921865103842    -0.172206519191
    H            0.321520945557     0.931099813235     1.241358975297
    C            1.453426207670    -1.092122100092     0.453778222336
    H            2.050498304273    -1.782720943147    -0.127201885142
    H            2.040420790660    -0.760440684816     1.307864521317
    H            0.570647238725    -1.600777542591     0.821245843669

  Mulliken Charges: (a.u.)
   Center  Symbol    Alpha    Beta     Spin     Total
       1     H     0.32995  0.32995  0.00000  0.34010
       2     N     3.92583  3.92583  0.00000 -0.85167
       3     C     3.07173  3.07173  0.00000 -0.14346
       4     H     0.32828  0.32828  0.00000  0.34344
       5     C     2.98897  2.98897  0.00000  0.02206
       6     H     0.42644  0.42644  0.00000  0.14712
       7     H     0.42239  0.42239  0.00000  0.15523
       8     O     4.31337  4.31337  0.00000 -0.62674
       9     H     0.41989  0.41989  0.00000  0.16023
      10     H     0.42514  0.42514  0.00000  0.14972
      11     C     3.08535  3.08535  0.00000 -0.17071
      12     H     0.41615  0.41615  0.00000  0.16771
      13     H     0.42882  0.42882  0.00000  0.14235
      14     H     0.41769  0.41769  0.00000  0.16463

   Total alpha = 21.00000, Total beta = 21.00000, Total charge =  0.00000
