  ==> Input File <==

--------------------------------------------------------------------------
set {
	reference rhf
	basis 6-31G*
}

set_num_threads( 1 )
memory 2 gb

molecule MOL {
0 1

H	 2.892250	 -1.201461	 -0.294203
N	 3.092854	 -0.246221	 -0.068770
C	 1.865559	 0.531981	 0.018834
H	 3.680691	 0.106416	 -0.800156
C	 0.645745	 -0.382037	 -0.029944
H	 1.841966	 1.207024	 -0.831236
H	 1.815756	 1.155410	 0.915079
C	 -0.679275	 0.379305	 0.025956
H	 0.698998	 -0.976915	 -0.937203
H	 0.693479	 -1.083846	 0.802235
C	 -1.903357	 -0.536963	 -0.023547
H	 -0.726309	 1.082987	 -0.803784
H	 -0.717680	 0.977832	 0.934877
C	 -3.225172	 0.228290	 0.028445
H	 -1.867824	 -1.134999	 -0.931459
H	 -1.860449	 -1.239604	 0.805977
H	 -3.313397	 0.915643	 -0.808262
H	 -4.073500	 -0.448134	 -0.008893
H	 -3.306061	 0.809945	 0.942516

	symmetry c1
}
set optking {
	frozen_dihedral = ("
		6 3 5 9,
		12 8 5 9,
		12 8 11 15
	")
}

ee = energy('scf')
oeprop('DIPOLE', 'QUADRUPOLE', 'MULLIKEN_CHARGES')
f=open( 'psi4out.xyz', 'w' )
f.write( "19  " )
f.write( str(ee) + "\n" )
f.write( MOL.save_string_xyz() )
f.close()
--------------------------------------------------------------------------

    Molecular point group: c1

    Geometry (in Angstrom), charge = 0, multiplicity = 1:

       Center              X                  Y                   Z               Mass
    ------------   -----------------  -----------------  -----------------  -----------------
           H          2.898263571784    -1.194236274136    -0.274129318643     1.007825032070
           N          3.098867571784    -0.238996274136    -0.048696318643    14.003074004780
           C          1.871572571784     0.539205725864     0.038907681357    12.000000000000
           H          3.686704571784     0.113640725864    -0.780082318643     1.007825032070
           C          0.651758571784    -0.374812274136    -0.009870318643    12.000000000000
           H          1.847979571784     1.214248725864    -0.811162318643     1.007825032070
           H          1.821769571784     1.162634725864     0.935152681357     1.007825032070
           C         -0.673261428216     0.386529725864     0.046029681357    12.000000000000
           H          0.705011571784    -0.969690274136    -0.917129318643     1.007825032070
           H          0.699492571784    -1.076621274136     0.822308681357     1.007825032070
           C         -1.897343428216    -0.529738274136    -0.003473318643    12.000000000000
           H         -0.720295428216     1.090211725864    -0.783710318643     1.007825032070
           H         -0.711666428216     0.985056725864     0.954950681357     1.007825032070
           C         -3.219158428216     0.235514725864     0.048518681357    12.000000000000
           H         -1.861810428216    -1.127774274136    -0.911385318643     1.007825032070
           H         -1.854435428216    -1.232379274136     0.826050681357     1.007825032070
           H         -3.307383428216     0.922867725864    -0.788188318643     1.007825032070
           H         -4.067486428216    -0.440909274136     0.011180681357     1.007825032070
           H         -3.300047428216     0.817169725864     0.962589681357     1.007825032070

  Charge       = 0
  Multiplicity = 1
  Basis Set: 6-31G*
  Basis Set:

    Orbital Energies (a.u.)
    -----------------------

    Doubly Occupied:

       1A    -15.528899     2A    -11.239543     3A    -11.216953
       4A    -11.216477     5A    -11.215924     6A    -11.209643
       7A     -1.177032     8A     -1.075761     9A     -1.000234
      10A     -0.901054    11A     -0.818572    12A     -0.794639
      13A     -0.662000    14A     -0.645441    15A     -0.606998
      16A     -0.599332    17A     -0.565848    18A     -0.548846
      19A     -0.536179    20A     -0.499393    21A     -0.488032
      22A     -0.469614    23A     -0.465210    24A     -0.453827
      25A     -0.374265

  @DF-RHF Final Energy:  -251.34604313112993

   => Energetics <=

    Nuclear Repulsion Energy =            246.0924776906085754
    One-Electron Energy =                -826.2576993875720746
    Two-Electron Energy =                 328.8191785658336812
    DFT Exchange-Correlation Energy =       0.0000000000000000
    Empirical Dispersion Energy =           0.0000000000000000
    PCM Polarization Energy =               0.0000000000000000
    EFP Energy =                            0.0000000000000000
    Total Energy =                       -251.3460431311298180

  Mulliken Charges: (a.u.)
   Center  Symbol    Alpha    Beta     Spin     Total
       1     H     0.33176  0.33176  0.00000  0.33648
       2     N     3.92901  3.92901  0.00000 -0.85802
       3     C     3.04454  3.04454  0.00000 -0.08907
       4     H     0.33275  0.33275  0.00000  0.33450
       5     C     3.16925  3.16925  0.00000 -0.33849
       6     H     0.43083  0.43083  0.00000  0.13834
       7     H     0.42134  0.42134  0.00000  0.15732
       8     C     3.15384  3.15384  0.00000 -0.30767
       9     H     0.42544  0.42544  0.00000  0.14912
      10     H     0.41769  0.41769  0.00000  0.16461
      11     C     3.15128  3.15128  0.00000 -0.30256
      12     H     0.42356  0.42356  0.00000  0.15288
      13     H     0.42157  0.42157  0.00000  0.15686
      14     C     3.23948  3.23948  0.00000 -0.47895
      15     H     0.42325  0.42325  0.00000  0.15349
      16     H     0.42228  0.42228  0.00000  0.15544
      17     H     0.42182  0.42182  0.00000  0.15636
      18     H     0.41902  0.41902  0.00000  0.16196
      19     H     0.42130  0.42130  0.00000  0.15740

   Total alpha = 25.00000, Total beta = 25.00000, Total charge =  0.00000
