  ==> Input File <==

--------------------------------------------------------------------------
set {
	reference rhf
	basis 6-31G*
}

set_num_threads( 1 )
memory 2 gb

molecule MOL {
0 1

H	 -4.236494	 0.538104	 0.039757
O	 -3.517110	 -0.026191	 -0.205115
C	 -2.306886	 0.532354	 0.237577
C	 -1.177863	 -0.397191	 -0.171080
H	 -2.156308	 1.517575	 -0.201710
H	 -2.315015	 0.655684	 1.319734
C	 0.198102	 0.111031	 0.262842
H	 -1.208843	 -0.518759	 -1.250427
H	 -1.368741	 -1.376554	 0.258909
C	 1.331804	 -0.827780	 -0.158768
H	 0.361943	 1.100838	 -0.156218
H	 0.217265	 0.229072	 1.345532
C	 2.723619	 -0.410569	 0.329459
H	 1.342964	 -0.912588	 -1.244120
H	 1.116806	 -1.824343	 0.220779
C	 2.718472	 0.609758	 1.469302
H	 3.270916	 0.009106	 -0.511033
H	 3.276311	 -1.295392	 0.638949
H	 2.161532	 1.500982	 1.192575
H	 2.272026	 0.207965	 2.372864
H	 3.730190	 0.916940	 1.715917

	symmetry c1
}
set optking {
	frozen_dihedral = ("
		2 3 4 8,
		8 4 7 10,
		4 7 10 14,
		1 2 3 5
	")
}

ee = energy('scf')
oeprop('DIPOLE', 'QUADRUPOLE', 'MULLIKEN_CHARGES')
f=open( 'psi4out.xyz', 'w' )
f.write( "21  " )
f.write( str(ee) + "\n" )
f.write( MOL.save_string_xyz() )
f.close()
--------------------------------------------------------------------------

    Molecular point group: c1

    Geometry (in Angstrom), charge = 0, multiplicity = 1:

       Center              X                  Y                   Z               Mass
    ------------   -----------------  -----------------  -----------------  -----------------
           H         -4.159183366958     0.579759364946    -0.216232026087     1.007825032070
           O         -3.439799366958     0.015464364946    -0.461104026087    15.994914619560
           C         -2.229575366958     0.574009364946    -0.018412026087    12.000000000000
           C         -1.100552366958    -0.355535635054    -0.427069026087    12.000000000000
           H         -2.078997366958     1.559230364946    -0.457699026087     1.007825032070
           H         -2.237704366958     0.697339364946     1.063744973913     1.007825032070
           C          0.275412633042     0.152686364946     0.006852973913    12.000000000000
           H         -1.131532366958    -0.477103635054    -1.506416026087     1.007825032070
           H         -1.291430366958    -1.334898635054     0.002919973913     1.007825032070
           C          1.409114633042    -0.786124635054    -0.414757026087    12.000000000000
           H          0.439253633042     1.142493364946    -0.412207026087     1.007825032070
           H          0.294575633042     0.270727364946     1.089542973913     1.007825032070
           C          2.800929633042    -0.368913635054     0.073469973913    12.000000000000
           H          1.420274633042    -0.870932635054    -1.500109026087     1.007825032070
           H          1.194116633042    -1.782687635054    -0.035210026087     1.007825032070
           C          2.795782633042     0.651413364946     1.213312973913    12.000000000000
           H          3.348226633042     0.050761364946    -0.767022026087     1.007825032070
           H          3.353621633042    -1.253736635054     0.382959973913     1.007825032070
           H          2.238842633042     1.542637364946     0.936585973913     1.007825032070
           H          2.349336633042     0.249620364946     2.116874973913     1.007825032070
           H          3.807500633042     0.958595364946     1.459927973913     1.007825032070

  Charge       = 0
  Multiplicity = 1
  Basis Set: 6-31G*
  Basis Set:

    Orbital Energies (a.u.)
    -----------------------

    Doubly Occupied:

       1A    -20.551598     2A    -11.266708     3A    -11.215055
       4A    -11.213908     5A    -11.212341     6A    -11.209875
       7A    -11.207770     8A     -1.358409     9A     -1.087530
      10A     -1.031850    11A     -0.951381    12A     -0.881668
      13A     -0.810079    14A     -0.769447    15A     -0.691915
      16A     -0.663388    17A     -0.630592    18A     -0.601036
      19A     -0.583131    20A     -0.573189    21A     -0.535527
      22A     -0.527144    23A     -0.502012    24A     -0.486644
      25A     -0.485286    26A     -0.459146    27A     -0.446258
      28A     -0.443606    29A     -0.433634

  @DF-RHF Final Energy:  -310.20428724444236

   => Energetics <=

    Nuclear Repulsion Energy =            315.0888849146875259
    One-Electron Energy =               -1044.9264510982488900
    Two-Electron Energy =                 419.6332789391188953
    DFT Exchange-Correlation Energy =       0.0000000000000000
    Empirical Dispersion Energy =           0.0000000000000000
    PCM Polarization Energy =               0.0000000000000000
    EFP Energy =                            0.0000000000000000
    Total Energy =                       -310.2042872444425257

  Mulliken Charges: (a.u.)
   Center  Symbol    Alpha    Beta     Spin     Total
       1     H     0.28123  0.28123  0.00000  0.43753
       2     O     4.37186  4.37186  0.00000 -0.74372
       3     C     2.98950  2.98950  0.00000  0.02101
       4     C     3.15785  3.15785  0.00000 -0.31570
       5     H     0.43315  0.43315  0.00000  0.13370
       6     H     0.43300  0.43300  0.00000  0.13399
       7     C     3.16607  3.16607  0.00000 -0.33213
       8     H     0.41523  0.41523  0.00000  0.16955
       9     H     0.41500  0.41500  0.00000  0.17001
      10     C     3.15363  3.15363  0.00000 -0.30727
      11     H     0.42304  0.42304  0.00000  0.15391
      12     H     0.41982  0.41982  0.00000  0.16037
      13     C     3.15368  3.15368  0.00000 -0.30736
      14     H     0.41974  0.41974  0.00000  0.16051
      15     H     0.42137  0.42137  0.00000  0.15726
      16     C     3.24510  3.24510  0.00000 -0.49021
      17     H     0.42160  0.42160  0.00000  0.15679
      18     H     0.41980  0.41980  0.00000  0.16040
      19     H     0.41938  0.41938  0.00000  0.16124
      20     H     0.42128  0.42128  0.00000  0.15745
      21     H     0.41866  0.41866  0.00000  0.16268

   Total alpha = 29.00000, Total beta = 29.00000, Total charge =  0.00000
