  ==> Input File <==

--------------------------------------------------------------------------
set {
	reference rhf
	basis 6-31G*
}

set_num_threads( 4 )
memory 2 gb

molecule MOL {
0 1

O	 -2.042549	 -1.228399	 -0.269030
C	 -1.653912	 -0.146171	 0.050137
C	 -0.332303	 0.024011	 0.778412
C	 -2.438579	 1.106236	 -0.272369
C	 0.845713	 -0.001731	 -0.208243
H	 -0.323783	 0.953829	 1.340327
H	 -0.235459	 -0.796807	 1.480410
C	 2.200309	 0.136118	 0.488247
H	 0.733710	 0.800019	 -0.936072
H	 0.811185	 -0.933796	 -0.764304
C	 2.549089	 -1.077931	 1.348272
H	 2.977191	 0.286145	 -0.258326
H	 2.194372	 1.029364	 1.108444
H	 2.596130	 -1.983042	 0.749428
H	 1.806337	 -1.233863	 2.125091
H	 3.512460	 -0.951139	 1.831869
H	 -3.277823	 0.863061	 -0.908988
H	 -1.806773	 1.843019	 -0.759671
H	 -2.802853	 1.554979	 0.648059

	symmetry c1
}
set optking {
	frozen_dihedral = ("
		11 8 5 9
	")
}

ee = optimize('scf')
oeprop('DIPOLE', 'QUADRUPOLE', 'MULLIKEN_CHARGES')
f=open( 'psi4out.xyz', 'w' )
f.write( "19  " )
f.write( str(ee) + "\n" )
f.write( MOL.save_string_xyz() )
f.close()
--------------------------------------------------------------------------

    Molecular point group: c1
  Charge       = 0
  Multiplicity = 1
  Basis Set: 6-31G*
  Basis Set:
  @DF-RHF Final Energy:  -309.06315060799989
    Total Energy =                       -309.0631506079998303
    Molecular point group: c1
  Basis Set: 6-31G*
  Basis Set:
  Basis Set: 6-31G*
  Basis Set:
  @DF-RHF Final Energy:  -309.06341138728436
    Total Energy =                       -309.0634113872843614
  Basis Set: 6-31G*
  Basis Set:
  Basis Set: 6-31G*
  Basis Set:
  @DF-RHF Final Energy:  -309.06347833955488
    Total Energy =                       -309.0634783395550471
  Basis Set: 6-31G*
  Basis Set:
  Basis Set: 6-31G*
  Basis Set:
  @DF-RHF Final Energy:  -309.06360325189678
    Total Energy =                       -309.0636032518973479
  Basis Set: 6-31G*
  Basis Set:
  @DF-RHF Final Energy:  -309.06358020675799
    Total Energy =                       -309.0635802067582745
  @DF-RHF Final Energy:  -309.06361628601076
    Total Energy =                       -309.0636162860107561
  Basis Set: 6-31G*
  Basis Set:
  @DF-RHF Final Energy:  -309.06363843450526
    Total Energy =                       -309.0636384345053784
  Basis Set: 6-31G*
  Basis Set:
  Basis Set: 6-31G*
  Basis Set:
  @DF-RHF Final Energy:  -309.06364098829556
    Total Energy =                       -309.0636409882953330
  Basis Set: 6-31G*
  Basis Set:
  Basis Set: 6-31G*
  Basis Set:
  @DF-RHF Final Energy:  -309.06364201168719
    Total Energy =                       -309.0636420116871932
  Basis Set: 6-31G*
  Basis Set:
  Charge       = 0
  Multiplicity = 1
  Basis Set: 6-31G*
  Basis Set:

    Orbital Energies (a.u.)
    -----------------------

    Doubly Occupied:

       1A    -20.547421     2A    -11.324611     3A    -11.230759
       4A    -11.229047     5A    -11.228276     6A    -11.225112
       7A    -11.214159     8A     -1.393212     9A     -1.090916
      10A     -1.027684    11A     -0.981397    12A     -0.898733
      13A     -0.798819    14A     -0.735159    15A     -0.657098
      16A     -0.650908    17A     -0.621501    18A     -0.600214
      19A     -0.596298    20A     -0.576707    21A     -0.547650
      22A     -0.542020    23A     -0.513355    24A     -0.500391
      25A     -0.480045    26A     -0.475968    27A     -0.462100
      28A     -0.397184

  @DF-RHF Final Energy:  -309.06364220379982

   => Energetics <=

    Nuclear Repulsion Energy =            304.2608299458916576
    One-Electron Energy =               -1021.5554486843439008
    Two-Electron Energy =                 408.2309765346526547
    DFT Exchange-Correlation Energy =       0.0000000000000000
    Empirical Dispersion Energy =           0.0000000000000000
    PCM Polarization Energy =               0.0000000000000000
    EFP Energy =                            0.0000000000000000
    Total Energy =                       -309.0636422037996454
    Molecular point group: c1
  Basis Set: 6-31G*
  Basis Set:

  -Total Gradient:
     Atom            X                  Y                   Z
    ------   -----------------  -----------------  -----------------
       1        0.000002123203     0.000000457392    -0.000003904237
       2       -0.000006871569    -0.000000665044     0.000014800499
       3       -0.000003145221     0.000002606563    -0.000001155808
       4        0.000002270198     0.000000506406    -0.000002308870
       5       -0.000220118853     0.000331412896     0.000362377196
       6       -0.000004137867     0.000001853726     0.000000465931
       7        0.000002285064     0.000001661807    -0.000003501750
       8       -0.000211413056     0.000181950856     0.000374181019
       9        0.000243957907    -0.000333679111    -0.000403394297
      10        0.000004087983    -0.000000622377    -0.000005102997
      11        0.000187066169    -0.000183821617    -0.000326850712
      12        0.000000290369     0.000005921980    -0.000005255009
      13        0.000002449894    -0.000002985177    -0.000001891248
      14        0.000003174644     0.000001941227    -0.000000541691
      15        0.000000411691    -0.000005192352     0.000002852078
      16       -0.000003454991    -0.000000692364     0.000000539032
      17        0.000000703448    -0.000000721045    -0.000000328794
      18       -0.000000088136     0.000000608071    -0.000000356853
      19        0.000000409125    -0.000000541835    -0.000000623490

  **** Optimization is complete! (in 10 steps) ****
    Final optimized geometry and variables:
    Molecular point group: c1

    Geometry (in Angstrom), charge = 0, multiplicity = 1:

    O           -1.941310899241    -1.029811475901    -0.610268763328
    C           -1.542847367066     0.034808695487    -0.246982887322
    C           -0.234738831667     0.159165484310     0.514222591613
    C           -2.301210834643     1.309712255460    -0.543355358921
    C            0.958446024391     0.145443189411    -0.456229991465
    H           -0.221132756297     1.073459051326     1.101413798030
    H           -0.174609921366    -0.682054603287     1.193777637436
    C            2.319834702527     0.305893104234     0.229109327594
    H            0.839535052228     0.945499321054    -1.183869135258
    H            0.937319721258    -0.784544116934    -1.016754015329
    C            2.729705090074    -0.880320408992     1.103150577714
    H            3.072721287555     0.446705142767    -0.542111058010
    H            2.321012268746     1.216728239351     0.824128225155
    H            2.734363503771    -1.802789179998     0.529750969555
    H            2.059208419427    -1.017538456473     1.945162581353
    H            3.727921935030    -0.734578420971     1.503782789084
    H           -3.129230424613     1.101706785942    -1.206586601045
    H           -1.647787233225     2.053177850114    -0.990253291295
    H           -2.679829451975     1.731787416295     0.383889926107

  Mulliken Charges: (a.u.)
   Center  Symbol    Alpha    Beta     Spin     Total
       1     O     4.26211  4.26211  0.00000 -0.52421
       2     C     2.73717  2.73717  0.00000  0.52566
       3     C     3.20135  3.20135  0.00000 -0.40270
       4     C     3.28952  3.28952  0.00000 -0.57904
       5     C     3.16291  3.16291  0.00000 -0.32582
       6     H     0.41736  0.41736  0.00000  0.16527
       7     H     0.39927  0.39927  0.00000  0.20145
       8     C     3.15296  3.15296  0.00000 -0.30593
       9     H     0.41930  0.41930  0.00000  0.16140
      10     H     0.40676  0.40676  0.00000  0.18647
      11     C     3.24203  3.24203  0.00000 -0.48405
      12     H     0.41761  0.41761  0.00000  0.16478
      13     H     0.42256  0.42256  0.00000  0.15487
      14     H     0.41820  0.41820  0.00000  0.16361
      15     H     0.41981  0.41981  0.00000  0.16038
      16     H     0.41745  0.41745  0.00000  0.16511
      17     H     0.39701  0.39701  0.00000  0.20597
      18     H     0.40986  0.40986  0.00000  0.18029
      19     H     0.40675  0.40675  0.00000  0.18649

   Total alpha = 28.00000, Total beta = 28.00000, Total charge = -0.00000
