  ==> Input File <==

--------------------------------------------------------------------------
set {
	reference rhf
	basis cc-pvtz
}

set_num_threads( 4 )
memory 2 gb

molecule MOL {
0 1

H	 -0.939693	 0.000281	 1.681345
O	 -0.046262	 -0.000157	 1.387678
C	 -0.000837	 0.000006	 -0.025491
C	 0.508338	 1.352324	 -0.520591
C	 0.906718	 -1.129866	 -0.508065
C	 -1.436591	 -0.232684	 -0.475663
H	 0.520024	 1.395341	 -1.603554
H	 1.520217	 1.534016	 -0.171079
H	 -0.124090	 2.149611	 -0.150684
H	 0.932935	 -1.177748	 -1.590566
H	 1.924103	 -0.982320	 -0.158448
H	 0.554997	 -2.081335	 -0.129297
H	 -1.504735	 -0.249115	 -1.557039
H	 -2.078873	 0.554267	 -0.100972
H	 -1.800996	 -1.177330	 -0.092169

	symmetry c1
}
set optking {
	frozen_dihedral = ("
		4 3 2 1
	")
}

ee = optimize('scf')
oeprop('DIPOLE', 'QUADRUPOLE', 'MULLIKEN_CHARGES')
f=open( 'psi4out.xyz', 'w' )
f.write( "15  " )
f.write( str(ee) + "\n" )
f.write( MOL.save_string_xyz() )
f.close()
--------------------------------------------------------------------------

    Molecular point group: c1
  Charge       = 0
  Multiplicity = 1
  Basis Set: CC-PVTZ
  Basis Set:
  @DF-RHF Final Energy:  -232.24290538597862
    Total Energy =                       -232.2429053859787018
    Molecular point group: c1
  Basis Set: CC-PVTZ
  Basis Set:
  Basis Set: CC-PVTZ
  Basis Set:
  @DF-RHF Final Energy:  -232.24443191906209
    Total Energy =                       -232.2444319190619808
  Basis Set: CC-PVTZ
  Basis Set:
  Basis Set: CC-PVTZ
  Basis Set:
  @DF-RHF Final Energy:  -232.24486812916743
    Total Energy =                       -232.2448681291674575
  Basis Set: CC-PVTZ
  Basis Set:
  Basis Set: CC-PVTZ
  Basis Set:
  @DF-RHF Final Energy:  -232.24486941298372
    Total Energy =                       -232.2448694129839168
  Basis Set: CC-PVTZ
  Basis Set:
  Basis Set: CC-PVTZ
  Basis Set:
  @DF-RHF Final Energy:  -232.24488430017433
    Total Energy =                       -232.2448843001742489
  Basis Set: CC-PVTZ
  Basis Set:
  Charge       = 0
  Multiplicity = 1
  Basis Set: CC-PVTZ
  Basis Set:

    Orbital Energies (a.u.)
    -----------------------

    Doubly Occupied:

       1A    -20.540391     2A    -11.281116     3A    -11.216142
       4A    -11.203671     5A    -11.203212     6A     -1.362894
       7A     -1.065737     8A     -0.946371     9A     -0.936552
      10A     -0.778594    11A     -0.671952    12A     -0.624539
      13A     -0.622763    14A     -0.576449    15A     -0.557344
      16A     -0.534731    17A     -0.517042    18A     -0.511356
      19A     -0.503151    20A     -0.458485    21A     -0.426500

  @DF-RHF Final Energy:  -232.24488454666010

   => Energetics <=

    Nuclear Repulsion Energy =            200.5777953317456763
    One-Electron Energy =                -712.5673767179480365
    Two-Electron Energy =                 279.7446968395422573
    DFT Exchange-Correlation Energy =       0.0000000000000000
    Empirical Dispersion Energy =           0.0000000000000000
    PCM Polarization Energy =               0.0000000000000000
    EFP Energy =                            0.0000000000000000
    Total Energy =                       -232.2448845466601028
    Molecular point group: c1
  Basis Set: CC-PVTZ
  Basis Set:

  -Total Gradient:
     Atom            X                  Y                   Z
    ------   -----------------  -----------------  -----------------
       1       -0.000026286994    -0.001037024033     0.000005701556
       2        0.000212275657     0.001185114484    -0.000012109556
       3       -0.000748052258     0.000081288796     0.000060506861
       4        0.000563693133    -0.000210138607    -0.000050351467
       5       -0.000020466152    -0.000019320765    -0.000001878181
       6        0.000001042706    -0.000006273919    -0.000004415190
       7        0.000002180340     0.000013266966    -0.000000985466
       8       -0.000005950186    -0.000010607224    -0.000003252409
       9        0.000003793174     0.000013933073     0.000000352530
      10       -0.000000612766     0.000003357570     0.000012490976
      11        0.000001038471     0.000003549854    -0.000000432570
      12        0.000002129580    -0.000014939807    -0.000000605131
      13       -0.000001277298     0.000000084352    -0.000009152696
      14        0.000012684459    -0.000007704975     0.000003186188
      15        0.000003808134     0.000005414235     0.000000944556

  **** Optimization is complete! (in 6 steps) ****
    Final optimized geometry and variables:
    Molecular point group: c1

    Geometry (in Angstrom), charge = 0, multiplicity = 1:

    H           -0.811130167731     0.026703554076     1.758060671752
    O            0.052340797628     0.002237249592     1.391643421632
    C           -0.000057271572     0.001894812460    -0.025129615652
    C            0.516565725591     1.351943371338    -0.515612974962
    C            0.914226454770    -1.123278395166    -0.498364424154
    C           -1.432032155372    -0.234233329139    -0.495566863492
    H            0.546614107792     1.392804500674    -1.598789792553
    H            1.515982280025     1.525220532651    -0.137059392890
    H           -0.120060876795     2.154045050486    -0.160370507572
    H            0.970704677040    -1.153363060628    -1.580620424624
    H            1.913222624968    -0.978311297454    -0.106623880034
    H            0.550405768665    -2.080055761983    -0.144150864528
    H           -1.488124676737    -0.250977042321    -1.576885097950
    H           -2.088281038281     0.555118649842    -0.142052969712
    H           -1.804573047262    -1.182951682414    -0.124799780158

  Mulliken Charges: (a.u.)
   Center  Symbol    Alpha    Beta     Spin     Total
       1     H     0.39204  0.39204  0.00000  0.21592
       2     O     4.21510  4.21510  0.00000 -0.43021
       3     C     2.88018  2.88018  0.00000  0.23964
       4     C     3.14055  3.14055  0.00000 -0.28111
       5     C     3.13962  3.13962  0.00000 -0.27923
       6     C     3.16261  3.16261  0.00000 -0.32522
       7     H     0.45925  0.45925  0.00000  0.08150
       8     H     0.44818  0.44818  0.00000  0.10364
       9     H     0.45433  0.45433  0.00000  0.09134
      10     H     0.45962  0.45962  0.00000  0.08076
      11     H     0.44763  0.44763  0.00000  0.10473
      12     H     0.45282  0.45282  0.00000  0.09437
      13     H     0.45051  0.45051  0.00000  0.09899
      14     H     0.45068  0.45068  0.00000  0.09864
      15     H     0.44688  0.44688  0.00000  0.10624

   Total alpha = 21.00000, Total beta = 21.00000, Total charge = -0.00000
