  ==> Input File <==

--------------------------------------------------------------------------
set {
	reference rhf
	basis 6-31G*
}

set_num_threads( 4 )
memory 2 gb

molecule MOL {
0 1

H	 -2.499100	 -0.730091	 -0.745082
O	 -2.347518	 -0.290803	 0.079804
C	 -1.184022	 0.487508	 -0.006784
C	 0.062599	 -0.378592	 0.031606
H	 -1.176523	 1.099369	 -0.904519
H	 -1.187323	 1.153111	 0.844927
O	 1.171513	 0.459272	 -0.058250
H	 0.050699	 -1.089204	 -0.797170
H	 0.078739	 -0.954914	 0.954740
C	 1.914368	 0.561622	 1.115135
H	 2.311519	 -0.404736	 1.420180
H	 2.738695	 1.234090	 0.922332
H	 1.315526	 0.961700	 1.930683

	symmetry c1
}
set optking {
	frozen_dihedral = ("
		10 7 4 8
	")
}

ee = optimize('scf')
oeprop('DIPOLE', 'QUADRUPOLE', 'MULLIKEN_CHARGES')
f=open( 'psi4out.xyz', 'w' )
f.write( "13  " )
f.write( str(ee) + "\n" )
f.write( MOL.save_string_xyz() )
f.close()
--------------------------------------------------------------------------

    Molecular point group: c1
  Charge       = 0
  Multiplicity = 1
  Basis Set: 6-31G*
  Basis Set:
  @DF-RHF Final Energy:  -267.94687879454466
    Total Energy =                       -267.9468787945444888
    Molecular point group: c1
  Basis Set: 6-31G*
  Basis Set:
  Basis Set: 6-31G*
  Basis Set:
  @DF-RHF Final Energy:  -267.94737634087176
    Total Energy =                       -267.9473763408717559
  Basis Set: 6-31G*
  Basis Set:
  Basis Set: 6-31G*
  Basis Set:
  @DF-RHF Final Energy:  -267.94748015589971
    Total Energy =                       -267.9474801558998251
  Basis Set: 6-31G*
  Basis Set:
  Basis Set: 6-31G*
  Basis Set:
  @DF-RHF Final Energy:  -267.94748219349145
    Total Energy =                       -267.9474821934916235
  Basis Set: 6-31G*
  Basis Set:
  Charge       = 0
  Multiplicity = 1
  Basis Set: 6-31G*
  Basis Set:

    Orbital Energies (a.u.)
    -----------------------

    Doubly Occupied:

       1A    -20.560611     2A    -20.559630     3A    -11.270497
       4A    -11.270457     5A    -11.268986     6A     -1.384245
       7A     -1.365001     8A     -1.015616     9A     -0.920179
      10A     -0.838995    11A     -0.708330    12A     -0.673638
      13A     -0.655983    14A     -0.636901    15A     -0.597454
      16A     -0.576187    17A     -0.530090    18A     -0.502878
      19A     -0.474933    20A     -0.456537    21A     -0.405903

  @DF-RHF Final Energy:  -267.94748237847136

   => Energetics <=

    Nuclear Repulsion Energy =            190.9409482726246949
    One-Electron Energy =                -744.4307559594458326
    Two-Electron Energy =                 285.5423253083496320
    DFT Exchange-Correlation Energy =       0.0000000000000000
    Empirical Dispersion Energy =           0.0000000000000000
    PCM Polarization Energy =               0.0000000000000000
    EFP Energy =                            0.0000000000000000
    Total Energy =                       -267.9474823784714772
    Molecular point group: c1
  Basis Set: 6-31G*
  Basis Set:

  -Total Gradient:
     Atom            X                  Y                   Z
    ------   -----------------  -----------------  -----------------
       1       -0.000002965354    -0.000002679994     0.000000410487
       2        0.000013919187     0.000023727804    -0.000005007453
       3       -0.000017729636    -0.000025777174     0.000010860003
       4       -0.000286557168     0.000376177930    -0.000562265540
       5        0.000000421233    -0.000002058118    -0.000000238227
       6       -0.000003693491     0.000002472456    -0.000003401574
       7       -0.000362531632     0.000552440255     0.000314170643
       8        0.000344755883    -0.000461479932     0.000386106526
       9        0.000003132590    -0.000002010588     0.000006883836
      10        0.000305565946    -0.000458861886    -0.000161346806
      11        0.000003671773     0.000000587909     0.000006771131
      12       -0.000002383181    -0.000001909884     0.000003991909
      13        0.000004393849    -0.000000628778     0.000003065067

  **** Optimization is complete! (in 5 steps) ****
    Final optimized geometry and variables:
    Molecular point group: c1

    Geometry (in Angstrom), charge = 0, multiplicity = 1:

    H           -2.397363433965    -0.898754519291    -0.995896647244
    O           -2.265153206404    -0.450230049602    -0.172497685615
    C           -1.104613193965     0.334641577044    -0.244426358444
    C            0.150904079022    -0.522611152230    -0.188397549417
    H           -1.088545318511     0.945056402007    -1.143092444510
    H           -1.129936830703     1.005148138645     0.604539267922
    O            1.289316918677     0.286536413901    -0.278639522144
    H            0.163926109890    -1.222813819962    -1.019342307243
    H            0.148070566617    -1.108342457939     0.726187347816
    C            2.046370550656     0.402132379667     0.887142435768
    H            2.462303823561    -0.556596052806     1.187475547813
    H            2.858425245092     1.084767620236     0.677754389272
    H            1.460217346885     0.799471653864     1.712756835889

  Mulliken Charges: (a.u.)
   Center  Symbol    Alpha    Beta     Spin     Total
       1     H     0.28092  0.28092  0.00000  0.43816
       2     O     4.37059  4.37059  0.00000 -0.74118
       3     C     3.00423  3.00423  0.00000 -0.00847
       4     C     3.00391  3.00391  0.00000 -0.00782
       5     H     0.42194  0.42194  0.00000  0.15612
       6     H     0.41463  0.41463  0.00000  0.17074
       7     O     4.30948  4.30948  0.00000 -0.61896
       8     H     0.42468  0.42468  0.00000  0.15063
       9     H     0.42181  0.42181  0.00000  0.15638
      10     C     3.08076  3.08076  0.00000 -0.16152
      11     H     0.42676  0.42676  0.00000  0.14648
      12     H     0.41147  0.41147  0.00000  0.17706
      13     H     0.42881  0.42881  0.00000  0.14238

   Total alpha = 21.00000, Total beta = 21.00000, Total charge = -0.00000
