  ==> Input File <==

--------------------------------------------------------------------------
set {
	reference rhf
	basis cc-pvtz
}

set_num_threads( 4 )
memory 2 gb

molecule MOL {
0 1

H	 1.239539	 -1.500069	 1.679659
O	 0.566066	 -0.936974	 1.345875
C	 1.135873	 0.113391	 0.608264
C	 0.027642	 1.012027	 0.090274
H	 1.698213	 -0.278561	 -0.235487
H	 1.828963	 0.677980	 1.225781
C	 -1.138737	 0.285728	 -0.581921
H	 0.464661	 1.708096	 -0.618252
H	 -0.340737	 1.603071	 0.925246
C	 -1.933983	 -0.631436	 0.343653
H	 -0.763151	 -0.285569	 -1.422081
H	 -1.808359	 1.035291	 -0.992333
H	 -2.789188	 -1.049673	 -0.174718
H	 -1.335629	 -1.461368	 0.700418
H	 -2.305435	 -0.092167	 1.209725

	symmetry c1
}
set optking {
	frozen_dihedral = ("
		2 3 4 8
	")
}

ee = optimize('scf')
oeprop('DIPOLE', 'QUADRUPOLE', 'MULLIKEN_CHARGES')
f=open( 'psi4out.xyz', 'w' )
f.write( "15  " )
f.write( str(ee) + "\n" )
f.write( MOL.save_string_xyz() )
f.close()
--------------------------------------------------------------------------

    Molecular point group: c1
  Charge       = 0
  Multiplicity = 1
  Basis Set: CC-PVTZ
  Basis Set:
  @DF-RHF Final Energy:  -232.22894971267419
    Total Energy =                       -232.2289497126741935
    Molecular point group: c1
  Basis Set: CC-PVTZ
  Basis Set:
  Basis Set: CC-PVTZ
  Basis Set:
  @DF-RHF Final Energy:  -232.23344446836572
    Total Energy =                       -232.2334444683660877
  Basis Set: CC-PVTZ
  Basis Set:
  Basis Set: CC-PVTZ
  Basis Set:
  @DF-RHF Final Energy:  -232.23439279354793
    Total Energy =                       -232.2343927935480679
  Basis Set: CC-PVTZ
  Basis Set:
  Basis Set: CC-PVTZ
  Basis Set:
  @DF-RHF Final Energy:  -232.23480157962584
    Total Energy =                       -232.2348015796256959
  Basis Set: CC-PVTZ
  Basis Set:
  Basis Set: CC-PVTZ
  Basis Set:
  @DF-RHF Final Energy:  -232.23485974526608
    Total Energy =                       -232.2348597452661920
  Basis Set: CC-PVTZ
  Basis Set:
  Basis Set: CC-PVTZ
  Basis Set:
  @DF-RHF Final Energy:  -232.23486302204097
    Total Energy =                       -232.2348630220412247
  Basis Set: CC-PVTZ
  Basis Set:
  Charge       = 0
  Multiplicity = 1
  Basis Set: CC-PVTZ
  Basis Set:

    Orbital Energies (a.u.)
    -----------------------

    Doubly Occupied:

       1A    -20.547734     2A    -11.267245     3A    -11.212084
       4A    -11.208263     5A    -11.192262     6A     -1.366038
       7A     -1.061911     8A     -0.971698     9A     -0.860209
      10A     -0.779282    11A     -0.708554    12A     -0.646825
      13A     -0.604568    14A     -0.584315    15A     -0.547738
      16A     -0.538041    17A     -0.511328    18A     -0.471864
      19A     -0.463871    20A     -0.448538    21A     -0.433397

  @DF-RHF Final Energy:  -232.23486340815182

   => Energetics <=

    Nuclear Repulsion Energy =            192.6775449061597953
    One-Electron Energy =                -696.9732804048283015
    Two-Electron Energy =                 272.0608720905166820
    DFT Exchange-Correlation Energy =       0.0000000000000000
    Empirical Dispersion Energy =           0.0000000000000000
    PCM Polarization Energy =               0.0000000000000000
    EFP Energy =                            0.0000000000000000
    Total Energy =                       -232.2348634081517957
    Molecular point group: c1
  Basis Set: CC-PVTZ
  Basis Set:

  -Total Gradient:
     Atom            X                  Y                   Z
    ------   -----------------  -----------------  -----------------
       1        0.000003631066     0.000013589115     0.000001226217
       2       -0.000133068385    -0.001324097538    -0.002484869477
       3        0.000099030947     0.001340825842     0.002692970938
       4        0.000543759056     0.002077262279     0.002624268758
       5        0.000020591801    -0.000008668581    -0.000006681840
       6       -0.000024686000    -0.000000661586    -0.000001273335
       7        0.000050548587    -0.000023131989    -0.000053992691
       8       -0.000518147227    -0.002108606187    -0.002834673750
       9       -0.000018053898     0.000015326625     0.000021736033
      10       -0.000010912174     0.000060487056     0.000047700920
      11       -0.000003222433     0.000004772212     0.000003368462
      12        0.000012197549     0.000000905685     0.000013233283
      13       -0.000019778833    -0.000019433165    -0.000018269883
      14       -0.000003102014    -0.000015421366    -0.000005718482
      15        0.000001211960    -0.000013148404     0.000000974848

  **** Optimization is complete! (in 7 steps) ****
    Final optimized geometry and variables:
    Molecular point group: c1

    Geometry (in Angstrom), charge = 0, multiplicity = 1:

    H            1.799508977040    -1.443170941039     1.086025276452
    O            1.036518938601    -0.950211707462     0.847647714180
    C            1.416798221947     0.232168689691     0.194026092540
    C            0.196297502692     1.055141062639    -0.186456352376
    H            1.972282335192    -0.012275089050    -0.709450970708
    H            2.069281401507     0.827098294786     0.827993103651
    C           -0.899952761293     0.290889895354    -0.943240529160
    H            0.558290782865     1.847122471709    -0.835524985040
    H           -0.224319845904     1.525130455466     0.696709405288
    C           -1.908778404978    -0.436317387775    -0.057261631973
    H           -0.437942025300    -0.416348121283    -1.626161052504
    H           -1.439153680599     1.000713272941    -1.562956452519
    H           -2.665452747929    -0.923517418975    -0.663079140287
    H           -1.430086522755    -1.184054420316     0.557237585975
    H           -2.416490041306     0.263654399144     0.599099113807

  Mulliken Charges: (a.u.)
   Center  Symbol    Alpha    Beta     Spin     Total
       1     H     0.39737  0.39737  0.00000  0.20526
       2     O     4.19471  4.19471  0.00000 -0.38942
       3     C     2.97181  2.97181  0.00000  0.05639
       4     C     3.09614  3.09614  0.00000 -0.19228
       5     H     0.47428  0.47428  0.00000  0.05145
       6     H     0.46620  0.46620  0.00000  0.06761
       7     C     3.08322  3.08322  0.00000 -0.16645
       8     H     0.45000  0.45000  0.00000  0.10001
       9     H     0.45353  0.45353  0.00000  0.09293
      10     C     3.14663  3.14663  0.00000 -0.29326
      11     H     0.45682  0.45682  0.00000  0.08636
      12     H     0.45117  0.45117  0.00000  0.09767
      13     H     0.45365  0.45365  0.00000  0.09270
      14     H     0.44423  0.44423  0.00000  0.11153
      15     H     0.46025  0.46025  0.00000  0.07951

   Total alpha = 21.00000, Total beta = 21.00000, Total charge =  0.00000
