  ==> Input File <==

--------------------------------------------------------------------------
set {
	reference rhf
	basis 6-31G*
}

set_num_threads( 1 )
memory 2 gb

molecule MOL {
0 1

H	 -3.161837	 0.500524	 -0.000234
C	 -2.367097	 -0.232926	 -0.000000
O	 -1.158440	 0.455814	 -0.000122
H	 -2.468853	 -0.861886	 -0.882833
H	 -2.468942	 -0.861421	 0.883154
C	 -0.029776	 -0.365156	 0.000148
C	 1.212217	 0.508981	 0.000007
H	 -0.036772	 -1.013236	 -0.877259
H	 -0.036869	 -1.012778	 0.877897
C	 2.414820	 -0.184424	 -0.638598
H	 0.985367	 1.429273	 -0.529392
H	 1.439062	 0.785047	 1.025204
H	 2.216969	 -0.447631	 -1.673973
H	 3.286432	 0.461291	 -0.624807
H	 2.673518	 -1.096945	 -0.108708

	symmetry c1
}
set optking {
	frozen_dihedral = ("
		6 3 2 4,
		8 6 3 2
	")
}

ee = energy('scf')
oeprop('DIPOLE', 'QUADRUPOLE', 'MULLIKEN_CHARGES')
f=open( 'psi4out.xyz', 'w' )
f.write( "15  " )
f.write( str(ee) + "\n" )
f.write( MOL.save_string_xyz() )
f.close()
--------------------------------------------------------------------------

    Molecular point group: c1

    Geometry (in Angstrom), charge = 0, multiplicity = 1:

       Center              X                  Y                   Z               Mass
    ------------   -----------------  -----------------  -----------------  -----------------
           H         -3.144015348553     0.475223711315     0.129221405884     1.007825032070
           C         -2.349275348553    -0.258226288685     0.129455405884    12.000000000000
           O         -1.140618348553     0.430513711315     0.129333405884    15.994914619560
           H         -2.451031348553    -0.887186288685    -0.753377594116     1.007825032070
           H         -2.451120348553    -0.886721288685     1.012609405884     1.007825032070
           C         -0.011954348553    -0.390456288685     0.129603405884    12.000000000000
           C          1.230038651447     0.483680711315     0.129462405884    12.000000000000
           H         -0.018950348553    -1.038536288685    -0.747803594116     1.007825032070
           H         -0.019047348553    -1.038078288685     1.007352405884     1.007825032070
           C          2.432641651447    -0.209724288685    -0.509142594116    12.000000000000
           H          1.003188651447     1.403972711315    -0.399936594116     1.007825032070
           H          1.456883651447     0.759746711315     1.154659405884     1.007825032070
           H          2.234790651447    -0.472931288685    -1.544517594116     1.007825032070
           H          3.304253651447     0.435990711315    -0.495351594116     1.007825032070
           H          2.691339651447    -1.122245288685     0.020747405884     1.007825032070

  Charge       = 0
  Multiplicity = 1
  Basis Set: 6-31G*
  Basis Set:

    Orbital Energies (a.u.)
    -----------------------

    Doubly Occupied:

       1A    -20.553467     2A    -11.265663     3A    -11.263764
       4A    -11.213359     5A    -11.212300     6A     -1.378386
       7A     -1.056957     8A     -0.954904     9A     -0.877613
      10A     -0.808889    11A     -0.673884    12A     -0.655059
      13A     -0.630891    14A     -0.604002    15A     -0.567239
      16A     -0.542402    17A     -0.499727    18A     -0.488901
      19A     -0.477952    20A     -0.461784    21A     -0.412761

  @DF-RHF Final Energy:  -232.13680899517260

   => Energetics <=

    Nuclear Repulsion Energy =            189.9367425891368839
    One-Electron Energy =                -690.9473076755281227
    Two-Electron Energy =                 268.8737560912180129
    DFT Exchange-Correlation Energy =       0.0000000000000000
    Empirical Dispersion Energy =           0.0000000000000000
    PCM Polarization Energy =               0.0000000000000000
    EFP Energy =                            0.0000000000000000
    Total Energy =                       -232.1368089951732259

  Mulliken Charges: (a.u.)
   Center  Symbol    Alpha    Beta     Spin     Total
       1     H     0.41225  0.41225  0.00000  0.17550
       2     C     3.07955  3.07955  0.00000 -0.15910
       3     O     4.30543  4.30543  0.00000 -0.61085
       4     H     0.43040  0.43040  0.00000  0.13920
       5     H     0.43051  0.43051  0.00000  0.13898
       6     C     2.98332  2.98332  0.00000  0.03335
       7     C     3.16251  3.16251  0.00000 -0.32503
       8     H     0.43273  0.43273  0.00000  0.13454
       9     H     0.43201  0.43201  0.00000  0.13597
      10     C     3.24750  3.24750  0.00000 -0.49499
      11     H     0.40828  0.40828  0.00000  0.18343
      12     H     0.41751  0.41751  0.00000  0.16498
      13     H     0.41947  0.41947  0.00000  0.16106
      14     H     0.41651  0.41651  0.00000  0.16698
      15     H     0.42201  0.42201  0.00000  0.15599

   Total alpha = 21.00000, Total beta = 21.00000, Total charge = -0.00000
