  ==> Input File <==

--------------------------------------------------------------------------
set {
	reference rhf
	basis 6-31G*
}

set_num_threads( 4 )
memory 2 gb

molecule MOL {
0 1

O	 -2.324811	 1.361668	 -0.277141
C	 -2.105949	 0.203097	 -0.092081
C	 -0.889235	 -0.467034	 -0.705952
C	 -3.002726	 -0.644460	 0.782455
C	 -0.073342	 0.535031	 -1.538613
H	 -1.242919	 -1.267014	 -1.347234
H	 -0.263239	 -0.904419	 0.066609
C	 1.143991	 -0.116201	 -2.199379
H	 -0.729034	 0.965871	 -2.286831
H	 0.259514	 1.354201	 -0.903070
C	 2.032603	 0.854271	 -2.985896
H	 0.808734	 -0.912766	 -2.861053
H	 1.747712	 -0.592793	 -1.429815
C	 1.368759	 1.461602	 -4.223012
H	 2.928681	 0.322468	 -3.295606
H	 2.366847	 1.651609	 -2.325123
H	 1.015385	 0.685741	 -4.896727
H	 2.072330	 2.079548	 -4.772129
H	 0.520580	 2.086611	 -3.964658
H	 -3.496582	 -1.399307	 0.176174
H	 -3.747939	 -0.023774	 1.260148
H	 -2.421318	 -1.168775	 1.535358

	symmetry c1
}
set optking {
	frozen_dihedral = ("
		6 3 2 1
	")
}

ee = optimize('scf')
oeprop('DIPOLE', 'QUADRUPOLE', 'MULLIKEN_CHARGES')
f=open( 'psi4out.xyz', 'w' )
f.write( "22  " )
f.write( str(ee) + "\n" )
f.write( MOL.save_string_xyz() )
f.close()
--------------------------------------------------------------------------

    Molecular point group: c1
  Charge       = 0
  Multiplicity = 1
  Basis Set: 6-31G*
  Basis Set:
  @DF-RHF Final Energy:  -348.09911237058765
    Total Energy =                       -348.0991123705874202
    Molecular point group: c1
  Basis Set: 6-31G*
  Basis Set:
  Basis Set: 6-31G*
  Basis Set:
  @DF-RHF Final Energy:  -348.09869718775712
    Total Energy =                       -348.0986971877570113
  Basis Set: 6-31G*
  Basis Set:
  Basis Set: 6-31G*
  Basis Set:
  @DF-RHF Final Energy:  -348.09939173172455
    Total Energy =                       -348.0993917317244382
  Basis Set: 6-31G*
  Basis Set:
  Basis Set: 6-31G*
  Basis Set:
  @DF-RHF Final Energy:  -348.10020636864488
    Total Energy =                       -348.1002063686451038
  Basis Set: 6-31G*
  Basis Set:
  @DF-RHF Final Energy:  -348.10027686953322
    Total Energy =                       -348.1002768695331042
  @DF-RHF Final Energy:  -348.10028555497280
    Total Energy =                       -348.1002855549728565
  @DF-RHF Final Energy:  -348.10029145970219
    Total Energy =                       -348.1002914597021345
  @DF-RHF Final Energy:  -348.10029759668345
    Total Energy =                       -348.1002975966836175
  @DF-RHF Final Energy:  -348.10030181277040
    Total Energy =                       -348.1003018127705673
  @DF-RHF Final Energy:  -348.10031113214757
    Total Energy =                       -348.1003111321478514
  Basis Set: 6-31G*
  Basis Set:
  @DF-RHF Final Energy:  -348.10031283692092
    Total Energy =                       -348.1003128369209776
  Basis Set: 6-31G*
  Basis Set:
  Basis Set: 6-31G*
  Basis Set:
  @DF-RHF Final Energy:  -348.10031025690614
    Total Energy =                       -348.1003102569056296
  Basis Set: 6-31G*
  Basis Set:
  Basis Set: 6-31G*
  Basis Set:
  @DF-RHF Final Energy:  -348.10031672419416
    Total Energy =                       -348.1003167241940446
  Basis Set: 6-31G*
  Basis Set:
  Charge       = 0
  Multiplicity = 1
  Basis Set: 6-31G*
  Basis Set:

    Orbital Energies (a.u.)
    -----------------------

    Doubly Occupied:

       1A    -20.550569     2A    -11.326437     3A    -11.232052
       4A    -11.228443     5A    -11.217399     6A    -11.216466
       7A    -11.216089     8A    -11.207523     9A     -1.395880
      10A     -1.090436    11A     -1.042792    12A     -1.000814
      13A     -0.934739    14A     -0.854063    15A     -0.781223
      16A     -0.730929    17A     -0.656366    18A     -0.649226
      19A     -0.629959    20A     -0.613221    21A     -0.600853
      22A     -0.579750    23A     -0.559642    24A     -0.547192
      25A     -0.522939    26A     -0.511557    27A     -0.497206
      28A     -0.484275    29A     -0.464487    30A     -0.461785
      31A     -0.457422    32A     -0.400028

  @DF-RHF Final Energy:  -348.10031762570259

   => Energetics <=

    Nuclear Repulsion Energy =            372.3915257089246325
    One-Electron Energy =               -1209.6601594423405004
    Two-Electron Energy =                 489.1683161077135082
    DFT Exchange-Correlation Energy =       0.0000000000000000
    Empirical Dispersion Energy =           0.0000000000000000
    PCM Polarization Energy =               0.0000000000000000
    EFP Energy =                            0.0000000000000000
    Total Energy =                       -348.1003176257023597
    Molecular point group: c1
  Basis Set: 6-31G*
  Basis Set:

  -Total Gradient:
     Atom            X                  Y                   Z
    ------   -----------------  -----------------  -----------------
       1       -0.000050426618    -0.000017283694    -0.000042315185
       2        0.000077967958     0.000022028828     0.000067821698
       3        0.000005654967    -0.000057008960     0.000016018597
       4        0.000004616333     0.000000722687     0.000003537202
       5       -0.000014984861    -0.000004805097    -0.000021523442
       6       -0.000023194985     0.000018855832    -0.000040161592
       7       -0.000013913780     0.000020202978     0.000000703336
       8        0.000012036589     0.000002932350     0.000003150896
       9        0.000005272950    -0.000007370107     0.000017879319
      10        0.000014527197     0.000012591295     0.000000668103
      11       -0.000006401001     0.000013351007     0.000006489677
      12       -0.000015843720     0.000000773712     0.000006677063
      13        0.000013347200    -0.000006224096    -0.000008446962
      14        0.000004045444    -0.000002984083    -0.000004811176
      15        0.000001369320     0.000001692506     0.000003808185
      16       -0.000002696577     0.000004415236    -0.000000137534
      17       -0.000005304660    -0.000000510873     0.000000566260
      18        0.000002373121    -0.000004530136    -0.000002868423
      19        0.000009689170     0.000000486476    -0.000001382944
      20       -0.000008103010     0.000010063603    -0.000010620568
      21       -0.000003692773    -0.000008901159     0.000002326386
      22       -0.000006338265     0.000001501691     0.000002621096

  **** Optimization is complete! (in 14 steps) ****
    Final optimized geometry and variables:
    Molecular point group: c1

    Geometry (in Angstrom), charge = 0, multiplicity = 1:

    O           -1.913575986704     0.960406043079     1.176351184932
    C           -1.631459695297    -0.187560426436     1.335799314883
    C           -0.425014448578    -0.824938939214     0.670115115814
    C           -2.466938584749    -1.089720934190     2.220718872530
    C            0.418735155701     0.147844698527    -0.148927394947
    H           -0.786855923370    -1.639682967560     0.043823931148
    H            0.174984007720    -1.300672775235     1.444400784710
    C            1.615077394411    -0.540102809921    -0.811308402894
    H           -0.213668352972     0.615835963514    -0.894069233305
    H            0.767072782176     0.948225023985     0.497304361064
    C            2.544165421925     0.406946122276    -1.579386061074
    H            1.259479911635    -1.317021196561    -1.486983631991
    H            2.198447088201    -1.048726072156    -0.045900939393
    C            1.909791480197     1.058545733105    -2.809421012543
    H            3.421553340582    -0.152872345698    -1.893856094995
    H            2.903825398567     1.181255465503    -0.905059139486
    H            1.528895344128     0.307211166210    -3.496198230845
    H            2.639432301248     1.656147168827    -3.347087948410
    H            1.086404395822     1.712679623442    -2.543646242081
    H           -2.795929310072    -1.967223111670     1.672150639343
    H           -3.327061312179    -0.546796809520     2.587130165729
    H           -1.875999096297    -1.438733347865     3.062783058497

  Mulliken Charges: (a.u.)
   Center  Symbol    Alpha    Beta     Spin     Total
       1     O     4.26131  4.26131  0.00000 -0.52263
       2     C     2.73559  2.73559  0.00000  0.52882
       3     C     3.21043  3.21043  0.00000 -0.42085
       4     C     3.28676  3.28676  0.00000 -0.57351
       5     C     3.15005  3.15005  0.00000 -0.30009
       6     H     0.40932  0.40932  0.00000  0.18135
       7     H     0.41064  0.41064  0.00000  0.17872
       8     C     3.15443  3.15443  0.00000 -0.30887
       9     H     0.40904  0.40904  0.00000  0.18192
      10     H     0.41368  0.41368  0.00000  0.17263
      11     C     3.15221  3.15221  0.00000 -0.30442
      12     H     0.42515  0.42515  0.00000  0.14971
      13     H     0.42372  0.42372  0.00000  0.15257
      14     C     3.24219  3.24219  0.00000 -0.48438
      15     H     0.42111  0.42111  0.00000  0.15777
      16     H     0.42188  0.42188  0.00000  0.15624
      17     H     0.42292  0.42292  0.00000  0.15417
      18     H     0.41889  0.41889  0.00000  0.16222
      19     H     0.41688  0.41688  0.00000  0.16624
      20     H     0.40940  0.40940  0.00000  0.18120
      21     H     0.39647  0.39647  0.00000  0.20705
      22     H     0.40793  0.40793  0.00000  0.18414

   Total alpha = 32.00000, Total beta = 32.00000, Total charge =  0.00000
