  ==> Input File <==

--------------------------------------------------------------------------
set {
	reference rhf
	basis cc-pvtz
}

set_num_threads( 4 )
memory 2 gb

molecule MOL {
0 1

O	 0.074770	 1.259872	 0.000487
C	 0.029490	 0.077183	 0.000078
C	 -1.232113	 -0.748027	 0.000015
O	 1.106773	 -0.690081	 -0.000204
C	 -2.501422	 0.088592	 -0.000052
H	 -1.188777	 -1.400384	 -0.865133
H	 -1.188857	 -1.400312	 0.865225
H	 -2.548170	 0.725504	 -0.873205
H	 -3.371613	 -0.556398	 -0.000040
H	 -2.548215	 0.725571	 0.873047
C	 1.167003	 -1.723703	 -0.962306
H	 0.347500	 -2.414699	 -0.831254
H	 2.106904	 -2.226147	 -0.801178
H	 1.128328	 -1.316686	 -1.961849

	symmetry c1
}
set optking {
	frozen_dihedral = ("
		11 4 2 3
	")
}

ee = optimize('scf')
oeprop('DIPOLE', 'QUADRUPOLE', 'MULLIKEN_CHARGES')
f=open( 'psi4out.xyz', 'w' )
f.write( "14  " )
f.write( str(ee) + "\n" )
f.write( MOL.save_string_xyz() )
f.close()
--------------------------------------------------------------------------

    Molecular point group: c1
  Charge       = 0
  Multiplicity = 1
  Basis Set: CC-PVTZ
  Basis Set:
  @DF-RHF Final Energy:  -305.96306161587916
    Total Energy =                       -305.9630616158792691
    Molecular point group: c1
  Basis Set: CC-PVTZ
  Basis Set:
  Basis Set: CC-PVTZ
  Basis Set:
  @DF-RHF Final Energy:  -305.96523208358815
    Total Energy =                       -305.9652320835881483
  Basis Set: CC-PVTZ
  Basis Set:
  Basis Set: CC-PVTZ
  Basis Set:
  @DF-RHF Final Energy:  -305.96895460306359
    Total Energy =                       -305.9689546030637075
  Basis Set: CC-PVTZ
  Basis Set:
  Basis Set: CC-PVTZ
  Basis Set:
  @DF-RHF Final Energy:  -305.96902101153654
    Total Energy =                       -305.9690210115365971
  Basis Set: CC-PVTZ
  Basis Set:
  Basis Set: CC-PVTZ
  Basis Set:
  @DF-RHF Final Energy:  -305.96959546633479
    Total Energy =                       -305.9695954663349085
  Basis Set: CC-PVTZ
  Basis Set:
  Basis Set: CC-PVTZ
  Basis Set:
  @DF-RHF Final Energy:  -305.96968246581878
    Total Energy =                       -305.9696824658187779
  Basis Set: CC-PVTZ
  Basis Set:
  Basis Set: CC-PVTZ
  Basis Set:
  @DF-RHF Final Energy:  -305.96968417721922
    Total Energy =                       -305.9696841772195057
  Basis Set: CC-PVTZ
  Basis Set:
  Charge       = 0
  Multiplicity = 1
  Basis Set: CC-PVTZ
  Basis Set:

    Orbital Energies (a.u.)
    -----------------------

    Doubly Occupied:

       1A    -20.587117     2A    -20.538311     3A    -11.367420
       4A    -11.293107     5A    -11.244873     6A    -11.218913
       7A     -1.464074     8A     -1.370829     9A     -1.063574
      10A     -0.982371    11A     -0.898379    12A     -0.768773
      13A     -0.704878    14A     -0.684469    15A     -0.676569
      16A     -0.628776    17A     -0.611737    18A     -0.560822
      19A     -0.548953    20A     -0.526077    21A     -0.513740
      22A     -0.495373    23A     -0.458313    24A     -0.438301

  @DF-RHF Final Energy:  -305.96968450936333

   => Energetics <=

    Nuclear Repulsion Energy =            247.5802651739327587
    One-Electron Energy =                -907.8083986088861366
    Two-Electron Energy =                 354.2584489255902440
    DFT Exchange-Correlation Energy =       0.0000000000000000
    Empirical Dispersion Energy =           0.0000000000000000
    PCM Polarization Energy =               0.0000000000000000
    EFP Energy =                            0.0000000000000000
    Total Energy =                       -305.9696845093631623
    Molecular point group: c1
  Basis Set: CC-PVTZ
  Basis Set:

  -Total Gradient:
     Atom            X                  Y                   Z
    ------   -----------------  -----------------  -----------------
       1        0.000008565769     0.000035466555     0.000037838347
       2        0.000976375035     0.000852372101    -0.005734601063
       3       -0.000070313036     0.000133338756     0.002964395740
       4       -0.002347543633    -0.003069061701     0.004891112396
       5       -0.000009859313    -0.000015946853     0.000019442631
       6        0.000005611715    -0.000009370349     0.000021198867
       7        0.000005062018    -0.000001401860     0.000011195956
       8        0.000003544314    -0.000004613495     0.000000877844
       9       -0.000012118067     0.000005492700    -0.000001558280
      10       -0.000002028768     0.000000557471    -0.000007138746
      11        0.001441140555     0.002056389630    -0.002193856052
      12        0.000018800774     0.000010908370    -0.000014196095
      13       -0.000004456229    -0.000000755109     0.000007089003
      14       -0.000012781132     0.000006623789    -0.000001800548

  **** Optimization is complete! (in 8 steps) ****
    Final optimized geometry and variables:
    Molecular point group: c1

    Geometry (in Angstrom), charge = 0, multiplicity = 1:

    O            0.270550515585     1.521963184793     0.155706682023
    C            0.206428595965     0.348144939582     0.105409254493
    C           -1.094547046735    -0.424158957328     0.103978394733
    O            1.327683421934    -0.385002889457     0.158379706233
    C           -2.317250153944     0.467308024381     0.256788183028
    H           -1.159672191818    -0.997253080029    -0.814989726486
    H           -1.034625198338    -1.150976088155     0.907340680992
    H           -2.379987455651     1.181336103886    -0.552807926274
    H           -3.217911730113    -0.134540411877     0.255227739512
    H           -2.278067296689     1.024256396521     1.182867225716
    C            1.519454746406    -1.461659968410    -0.726976714079
    H            0.869807688813    -2.296619723407    -0.497087495412
    H            2.544285786249    -1.772569318009    -0.606178328051
    H            1.364925485670    -1.153354701943    -1.753839658066

  Mulliken Charges: (a.u.)
   Center  Symbol    Alpha    Beta     Spin     Total
       1     O     4.17032  4.17032  0.00000 -0.34063
       2     C     2.80323  2.80323  0.00000  0.39353
       3     C     3.11759  3.11759  0.00000 -0.23519
       4     O     4.14403  4.14403  0.00000 -0.28805
       5     C     3.13897  3.13897  0.00000 -0.27795
       6     H     0.44584  0.44584  0.00000  0.10833
       7     H     0.43684  0.43684  0.00000  0.12633
       8     H     0.44654  0.44654  0.00000  0.10692
       9     H     0.45120  0.45120  0.00000  0.09761
      10     H     0.44571  0.44571  0.00000  0.10859
      11     C     3.04582  3.04582  0.00000 -0.09163
      12     H     0.46053  0.46053  0.00000  0.07893
      13     H     0.43570  0.43570  0.00000  0.12861
      14     H     0.45769  0.45769  0.00000  0.08462

   Total alpha = 24.00000, Total beta = 24.00000, Total charge = -0.00000
