                              Psi4 1.0.54 Driver

  ==> Input File <==

--------------------------------------------------------------------------
set {
	reference rhf
	basis cc-pvtz
}

set_num_threads( 4 )
memory 2 gb

molecule MOL {
0 1

H	 -2.933983	 -1.649807	 1.183526
C	 -3.126285	 -1.106544	 0.248235
C	 -2.739983	 0.347494	 0.269147
O	 -3.611928	 -1.667124	 -0.672205
C	 -1.300066	 0.571565	 0.740429
H	 -2.906383	 0.762294	 -0.716544
H	 -3.422289	 0.839867	 0.958590
C	 -0.247837	 0.040196	 -0.230469
H	 -1.149379	 1.635401	 0.888373
H	 -1.164406	 0.109273	 1.715147
C	 1.181757	 0.280428	 0.247371
H	 -0.389262	 0.511380	 -1.199536
H	 -0.398238	 -1.024428	 -0.389790
C	 2.151032	 -0.811012	 -0.202643
H	 1.515939	 1.247397	 -0.115449
H	 1.191514	 0.341223	 1.333422
C	 3.580021	 -0.656538	 0.320835
H	 2.170545	 -0.847575	 -1.289412
H	 1.766632	 -1.772905	 0.124928
C	 4.327657	 0.562694	 -0.213579
H	 4.138806	 -1.549270	 0.057813
H	 3.561991	 -0.620783	 1.406976
H	 4.355973	 0.557257	 -1.298551
H	 3.867136	 1.491650	 0.100501
H	 5.351524	 0.571613	 0.142204

	symmetry c1
}
set optking {
	frozen_dihedral = ("
		12 8 11 14
	")
}

ee,wfn = optimize('scf', return_wfn=True)
oeprop( wfn, 'DIPOLE', 'QUADRUPOLE', 'MULLIKEN_CHARGES')
f=open( 'psi4out.xyz', 'w' )
f.write( "25  " )
f.write( str(ee) + "\n" )
f.write( MOL.save_string_xyz() )
f.close()
--------------------------------------------------------------------------

    Molecular point group: c1
  Charge       = 0
  Multiplicity = 1
  Basis Set: CC-PVTZ
  Basis Set:
  @DF-RHF Final Energy:  -387.25729264010749
    Total Energy =                       -387.2572926401073801
    Molecular point group: c1
  Basis Set: CC-PVTZ
  Basis Set:
  Basis Set: CC-PVTZ
  Basis Set:
  @DF-RHF Final Energy:  -387.25745864134313
    Total Energy =                       -387.2574586413429643
  Basis Set: CC-PVTZ
  Basis Set:
  Basis Set: CC-PVTZ
  Basis Set:
  @DF-RHF Final Energy:  -387.25757474602858
    Total Energy =                       -387.2575747460288085
  Basis Set: CC-PVTZ
  Basis Set:
  Basis Set: CC-PVTZ
  Basis Set:
  @DF-RHF Final Energy:  -387.25732511252767
    Total Energy =                       -387.2573251125272691
  Basis Set: CC-PVTZ
  Basis Set:
  Basis Set: CC-PVTZ
  Basis Set:
  @DF-RHF Final Energy:  -387.25761506169857
    Total Energy =                       -387.2576150616989707
  Basis Set: CC-PVTZ
  Basis Set:
  Charge       = 0
  Multiplicity = 1
  Basis Set: CC-PVTZ
  Basis Set:

    Orbital Energies (a.u.)
    -----------------------

    Doubly Occupied:

       1A    -20.551335     2A    -11.320982     3A    -11.233661
       4A    -11.232902     5A    -11.221713     6A    -11.217702
       7A    -11.216360     8A    -11.215461     9A    -11.208794
      10A     -1.406285    11A     -1.104589    12A     -1.070874
      13A     -1.013778    14A     -0.943664    15A     -0.875720
      16A     -0.821201    17A     -0.788290    18A     -0.782991
      19A     -0.667692    20A     -0.662612    21A     -0.633816
      22A     -0.627189    23A     -0.603419    24A     -0.592760
      25A     -0.581756    26A     -0.550661    27A     -0.536494
      28A     -0.528083    29A     -0.508322    30A     -0.498050
      31A     -0.492213    32A     -0.479726    33A     -0.462158
      34A     -0.459712    35A     -0.442476    36A     -0.411768

  @DF-RHF Final Energy:  -387.25761442316144

   => Energetics <=

    Nuclear Repulsion Energy =            439.8293487367280363
    One-Electron Energy =               -1396.2435068602026149
    Two-Electron Energy =                 569.1565437003132502
    DFT Exchange-Correlation Energy =       0.0000000000000000
    Empirical Dispersion Energy =           0.0000000000000000
    PCM Polarization Energy =               0.0000000000000000
    EFP Energy =                            0.0000000000000000
    Total Energy =                       -387.2576144231613853
    Molecular point group: c1
  Basis Set: CC-PVTZ
  Basis Set:

  -Total Gradient:
     Atom            X                  Y                   Z
    ------   -----------------  -----------------  -----------------
       1       -0.000055515252     0.000001123674     0.000081906790
       2        0.000247415040    -0.000024773065    -0.000007032303
       3       -0.000129601204     0.000013168647     0.000033484082
       4       -0.000133440483    -0.000037693534    -0.000116537634
       5        0.000032807625     0.000013256884    -0.000058049109
       6       -0.000026778591     0.000034417614    -0.000034223552
       7       -0.000006115373     0.000001239628     0.000002564876
       8        0.001344988469    -0.004934250201    -0.001295818846
       9        0.000037823368     0.000037789749     0.000004237954
      10        0.000016257477    -0.000019949414     0.000028730618
      11        0.000470979115     0.003034410234    -0.003036369065
      12       -0.001286365491     0.003444391658     0.001943564501
      13       -0.000007108444    -0.000013693133    -0.000013584051
      14       -0.000574261168    -0.001554705104     0.002441584214
      15       -0.000018558105    -0.000030527550    -0.000011514661
      16        0.000017013955     0.000026873031     0.000007059275
      17       -0.000000140507     0.000004273133     0.000073943275
      18       -0.000012027253     0.000023184477    -0.000049693956
      19       -0.000048213527    -0.000037375780    -0.000007228200
      20        0.000024267088     0.000017592998    -0.000017416943
      21        0.000007442439    -0.000007784081     0.000019746636
      22        0.000013911277    -0.000000425951     0.000056578820
      23       -0.000008861955     0.000017129346    -0.000050438842
      24        0.000044144377    -0.000013578989    -0.000000592896
      25        0.000049937120     0.000005905729     0.000005099018

  **** Optimization is complete! (in 6 steps) ****
    Final optimized geometry and variables:
    Molecular point group: c1

    Geometry (in Angstrom), charge = 0, multiplicity = 1:

    H           -3.039430298051    -1.387259384017     1.059534875917
    C           -3.195190619932    -0.805926836758     0.140338910315
    C           -2.766427742590     0.634186546146     0.220996310204
    O           -3.678624852836    -1.318409695015    -0.808940017040
    C           -1.331220852534     0.797038665798     0.729903485212
    H           -2.899269764496     1.088068152261    -0.752575207561
    H           -3.448742562643     1.122660385838     0.913252312830
    C           -0.273151726949     0.250766473378    -0.229508732555
    H           -1.146717147158     1.851641340125     0.905924723200
    H           -1.233712070166     0.308617614617     1.696297981948
    C            1.158205349295     0.508968813836     0.258679494291
    H           -0.421532300947     0.732533609041    -1.191247218364
    H           -0.429540247425    -0.812751931331    -0.380310531390
    C            2.153216801697    -0.556001303585    -0.200489177683
    H            1.473437167125     1.494587198733    -0.064046910210
    H            1.166922551434     0.530313522364     1.346127386913
    C            3.589059216389    -0.344112956755     0.282324985543
    H            2.146605671002    -0.616563644297    -1.286870582739
    H            1.806349398946    -1.521216907149     0.157156847983
    C            4.294285580034     0.867228066723    -0.323419683092
    H            4.164208825201    -1.233904072843     0.045829029214
    H            3.594478348166    -0.260484620697     1.366177118842
    H            4.300021049116     0.812006872732    -1.407317614859
    H            3.817285582859     1.798442676338    -0.042484048519
    H            5.324867495917     0.917639528634     0.008991170952

  Mulliken Charges: (a.u.)
   Center  Symbol    Alpha    Beta     Spin     Total
       1     H     0.46419  0.46419  0.00000  0.07162
       2     C     2.90459  2.90459  0.00000  0.19081
       3     C     3.08920  3.08920  0.00000 -0.17841
       4     O     4.16643  4.16643  0.00000 -0.33286
       5     C     3.11513  3.11513  0.00000 -0.23025
       6     H     0.44296  0.44296  0.00000  0.11408
       7     H     0.44056  0.44056  0.00000  0.11888
       8     C     3.09241  3.09241  0.00000 -0.18483
       9     H     0.44267  0.44267  0.00000  0.11467
      10     H     0.45039  0.45039  0.00000  0.09922
      11     C     3.09509  3.09509  0.00000 -0.19018
      12     H     0.44847  0.44847  0.00000  0.10306
      13     H     0.44757  0.44757  0.00000  0.10486
      14     C     3.09577  3.09577  0.00000 -0.19155
      15     H     0.44804  0.44804  0.00000  0.10393
      16     H     0.45573  0.45573  0.00000  0.08853
      17     C     3.09063  3.09063  0.00000 -0.18127
      18     H     0.45170  0.45170  0.00000  0.09661
      19     H     0.44884  0.44884  0.00000  0.10233
      20     C     3.15187  3.15187  0.00000 -0.30373
      21     H     0.44767  0.44767  0.00000  0.10466
      22     H     0.45503  0.45503  0.00000  0.08993
      23     H     0.45428  0.45428  0.00000  0.09144
      24     H     0.45455  0.45455  0.00000  0.09090
      25     H     0.44623  0.44623  0.00000  0.10755

   Total alpha = 36.00000, Total beta = 36.00000, Total charge = -0.00000

*** Psi4 exiting successfully. Buy a developer a beer!
