  ==> Input File <==

--------------------------------------------------------------------------
set {
	reference rhf
	basis cc-pvtz
}

set_num_threads( 4 )
memory 2 gb

molecule MOL {
0 1

H	 -0.951290	 -1.096107	 -0.670592
N	 -1.173824	 -0.310545	 -0.096857
C	 -0.022588	 0.563366	 0.065815
H	 -1.928203	 0.172904	 -0.538219
C	 1.270420	 -0.230572	 -0.014245
H	 -0.045354	 1.293678	 -0.735129
H	 -0.043155	 1.123061	 1.001180
H	 1.336273	 -0.754933	 -0.959364
H	 2.130728	 0.422015	 0.082222
H	 1.323344	 -0.967006	 0.781773

	symmetry c1
}
set optking {
	frozen_dihedral = ("
		1 2 3 6
	")
}

ee = optimize('scf')
oeprop('DIPOLE', 'QUADRUPOLE', 'MULLIKEN_CHARGES')
f=open( 'psi4out.xyz', 'w' )
f.write( "10  " )
f.write( str(ee) + "\n" )
f.write( MOL.save_string_xyz() )
f.close()
--------------------------------------------------------------------------

    Molecular point group: c1
  Charge       = 0
  Multiplicity = 1
  Basis Set: CC-PVTZ
  Basis Set:
  @DF-RHF Final Energy:  -134.30118695837336
    Total Energy =                       -134.3011869583733073
    Molecular point group: c1
  Basis Set: CC-PVTZ
  Basis Set:
  Basis Set: CC-PVTZ
  Basis Set:
  @DF-RHF Final Energy:  -134.30280184801649
    Total Energy =                       -134.3028018480163723
  Basis Set: CC-PVTZ
  Basis Set:
  Basis Set: CC-PVTZ
  Basis Set:
  @DF-RHF Final Energy:  -134.30299480443273
    Total Energy =                       -134.3029948044325863
  Basis Set: CC-PVTZ
  Basis Set:
  Basis Set: CC-PVTZ
  Basis Set:
  @DF-RHF Final Energy:  -134.30300073739730
    Total Energy =                       -134.3030007373972978
  Basis Set: CC-PVTZ
  Basis Set:
  Charge       = 0
  Multiplicity = 1
  Basis Set: CC-PVTZ
  Basis Set:

    Orbital Energies (a.u.)
    -----------------------

    Doubly Occupied:

       1A    -15.524255     2A    -11.240471     3A    -11.209471
       4A     -1.175972     5A     -0.989894     6A     -0.828134
       7A     -0.661460     8A     -0.627941     9A     -0.591760
      10A     -0.521440    11A     -0.502336    12A     -0.496087
      13A     -0.379671

  @DF-RHF Final Energy:  -134.30300134974186

   => Energetics <=

    Nuclear Repulsion Energy =             83.5396740316661095
    One-Electron Energy =                -346.1875675364609606
    Two-Electron Energy =                 128.3448921550529747
    DFT Exchange-Correlation Energy =       0.0000000000000000
    Empirical Dispersion Energy =           0.0000000000000000
    PCM Polarization Energy =               0.0000000000000000
    EFP Energy =                            0.0000000000000000
    Total Energy =                       -134.3030013497418906
    Molecular point group: c1
  Basis Set: CC-PVTZ
  Basis Set:

  -Total Gradient:
     Atom            X                  Y                   Z
    ------   -----------------  -----------------  -----------------
       1        0.001003088272    -0.001581121708     0.002537602915
       2       -0.001739009224     0.002512145404    -0.002685185406
       3        0.002285850661    -0.002756049598    -0.001588995031
       4       -0.000006825521    -0.000008464148    -0.000004009457
       5       -0.000022038710     0.000033490871     0.000029145935
       6       -0.001530860028     0.001782978827     0.001718717025
       7       -0.000003989510    -0.000000683029     0.000012334046
       8       -0.000004413956     0.000009889465     0.000007533665
       9        0.000033927081    -0.000009764043    -0.000011757444
      10       -0.000015729064     0.000017577958    -0.000015386250

  **** Optimization is complete! (in 5 steps) ****
    Final optimized geometry and variables:
    Molecular point group: c1

    Geometry (in Angstrom), charge = 0, multiplicity = 1:

    H           -0.995832985667    -1.099245020397    -0.616142243645
    N           -1.184113422208    -0.308262205194    -0.039359463446
    C           -0.027041620899     0.568323022871     0.064933892334
    H           -1.986828152894     0.161316912177    -0.395965933783
    C            1.266194527574    -0.226370713606     0.034445964346
    H           -0.012581869972     1.331495209893    -0.711792381487
    H           -0.088969396162     1.103382457486     1.007387172938
    H            1.390795285184    -0.732770343180    -0.917724905982
    H            2.121358548156     0.422658142099     0.179886553783
    H            1.270163844269    -0.975301869024     0.817926981575

  Mulliken Charges: (a.u.)
   Center  Symbol    Alpha    Beta     Spin     Total
       1     H     0.42946  0.42946  0.00000  0.14108
       2     N     3.69296  3.69296  0.00000 -0.38591
       3     C     3.01116  3.01116  0.00000 -0.02232
       4     H     0.42847  0.42847  0.00000  0.14306
       5     C     3.14518  3.14518  0.00000 -0.29037
       6     H     0.46959  0.46959  0.00000  0.06081
       7     H     0.46217  0.46217  0.00000  0.07567
       8     H     0.45994  0.45994  0.00000  0.08011
       9     H     0.45196  0.45196  0.00000  0.09608
      10     H     0.44910  0.44910  0.00000  0.10179

   Total alpha = 13.00000, Total beta = 13.00000, Total charge = -0.00000
