  ==> Input File <==

--------------------------------------------------------------------------
set {
	reference rhf
	basis 6-31G*
}

set_num_threads( 1 )
memory 2 gb

molecule MOL {
0 1

H	 -2.503507	 -1.779076	 -2.741588
O	 -2.480513	 -1.411482	 -1.869665
C	 -1.177237	 -0.979964	 -1.573265
C	 -1.177863	 -0.397191	 -0.171080
H	 -0.475935	 -1.811298	 -1.631292
H	 -0.850634	 -0.227306	 -2.289628
C	 0.198102	 0.111031	 0.262842
H	 -1.528637	 -1.161767	 0.516749
H	 -1.903953	 0.410333	 -0.136790
C	 1.331804	 -0.827780	 -0.158768
H	 0.361943	 1.100838	 -0.156218
H	 0.217265	 0.229072	 1.345532
C	 2.723619	 -0.410569	 0.329459
H	 1.342964	 -0.912588	 -1.244120
H	 1.116806	 -1.824343	 0.220779
C	 3.243875	 0.895854	 -0.272975
H	 3.424222	 -1.207124	 0.091250
H	 2.714788	 -0.329854	 1.414619
H	 3.251977	 0.848779	 -1.358681
H	 2.637085	 1.747371	 0.016682
H	 4.259473	 1.094070	 0.055697

	symmetry c1
}
set optking {
	frozen_dihedral = ("
		2 3 4 8,
		4 7 10 14,
		16 13 10 14,
		1 2 3 5
	")
}

ee = energy('scf')
oeprop('DIPOLE', 'QUADRUPOLE', 'MULLIKEN_CHARGES')
f=open( 'psi4out.xyz', 'w' )
f.write( "21  " )
f.write( str(ee) + "\n" )
f.write( MOL.save_string_xyz() )
f.close()
--------------------------------------------------------------------------

    Molecular point group: c1

    Geometry (in Angstrom), charge = 0, multiplicity = 1:

       Center              X                  Y                   Z               Mass
    ------------   -----------------  -----------------  -----------------  -----------------
           H         -2.838362712698    -1.331174242651    -2.204356554834     1.007825032070
           O         -2.815368712698    -0.963580242651    -1.332433554834    15.994914619560
           C         -1.512092712698    -0.532062242651    -1.036033554834    12.000000000000
           C         -1.512718712698     0.050710757349     0.366151445166    12.000000000000
           H         -0.810790712698    -1.363396242651    -1.094060554834     1.007825032070
           H         -1.185489712698     0.220595757349    -1.752396554834     1.007825032070
           C         -0.136753712698     0.558932757349     0.800073445166    12.000000000000
           H         -1.863492712698    -0.713865242651     1.053980445166     1.007825032070
           H         -2.238808712698     0.858234757349     0.400441445166     1.007825032070
           C          0.996948287302    -0.379878242651     0.378463445166    12.000000000000
           H          0.027087287302     1.548739757349     0.381013445166     1.007825032070
           H         -0.117590712698     0.676973757349     1.882763445166     1.007825032070
           C          2.388763287302     0.037332757349     0.866690445166    12.000000000000
           H          1.008108287302    -0.464686242651    -0.706888554834     1.007825032070
           H          0.781950287302    -1.376441242651     0.758010445166     1.007825032070
           C          2.909019287302     1.343755757349     0.264256445166    12.000000000000
           H          3.089366287302    -0.759222242651     0.628481445166     1.007825032070
           H          2.379932287302     0.118047757349     1.951850445166     1.007825032070
           H          2.917121287302     1.296680757349    -0.821449554834     1.007825032070
           H          2.302229287302     2.195272757349     0.553913445166     1.007825032070
           H          3.924617287302     1.541971757349     0.592928445166     1.007825032070

  Charge       = 0
  Multiplicity = 1
  Basis Set: 6-31G*
  Basis Set:

    Orbital Energies (a.u.)
    -----------------------

    Doubly Occupied:

       1A    -20.550838     2A    -11.265493     3A    -11.216507
       4A    -11.215668     5A    -11.215095     6A    -11.210305
       7A    -11.209431     8A     -1.357748     9A     -1.089829
      10A     -1.032515    11A     -0.949054    12A     -0.886219
      13A     -0.816552    14A     -0.765048    15A     -0.695946
      16A     -0.657539    17A     -0.622264    18A     -0.608268
      19A     -0.594384    20A     -0.560367    21A     -0.545262
      22A     -0.517695    23A     -0.516353    24A     -0.496107
      25A     -0.479539    26A     -0.457998    27A     -0.449976
      28A     -0.445989    29A     -0.429309

  @DF-RHF Final Energy:  -310.20701859388959

   => Energetics <=

    Nuclear Repulsion Energy =            319.4095034711903622
    One-Electron Energy =               -1053.5188058053472560
    Two-Electron Energy =                 423.9022837402669097
    DFT Exchange-Correlation Energy =       0.0000000000000000
    Empirical Dispersion Energy =           0.0000000000000000
    PCM Polarization Energy =               0.0000000000000000
    EFP Energy =                            0.0000000000000000
    Total Energy =                       -310.2070185938899272

  Mulliken Charges: (a.u.)
   Center  Symbol    Alpha    Beta     Spin     Total
       1     H     0.28146  0.28146  0.00000  0.43708
       2     O     4.37345  4.37345  0.00000 -0.74690
       3     C     2.99376  2.99376  0.00000  0.01249
       4     C     3.15970  3.15970  0.00000 -0.31941
       5     H     0.42814  0.42814  0.00000  0.14372
       6     H     0.43334  0.43334  0.00000  0.13331
       7     C     3.16026  3.16026  0.00000 -0.32052
       8     H     0.41479  0.41479  0.00000  0.17042
       9     H     0.41270  0.41270  0.00000  0.17460
      10     C     3.16259  3.16259  0.00000 -0.32517
      11     H     0.42025  0.42025  0.00000  0.15951
      12     H     0.41911  0.41911  0.00000  0.16177
      13     C     3.15063  3.15063  0.00000 -0.30126
      14     H     0.42279  0.42279  0.00000  0.15441
      15     H     0.42026  0.42026  0.00000  0.15949
      16     C     3.24133  3.24133  0.00000 -0.48266
      17     H     0.42121  0.42121  0.00000  0.15758
      18     H     0.42288  0.42288  0.00000  0.15424
      19     H     0.42296  0.42296  0.00000  0.15408
      20     H     0.41953  0.41953  0.00000  0.16094
      21     H     0.41886  0.41886  0.00000  0.16228

   Total alpha = 29.00000, Total beta = 29.00000, Total charge =  0.00000
