                              Psi4 1.0.54 Driver

  ==> Input File <==

--------------------------------------------------------------------------
set {
	reference rhf
	basis cc-pvtz
}

set_num_threads( 4 )
memory 2 gb

molecule MOL {
0 1

O	 2.868453	 1.353349	 -0.000734
C	 2.841259	 0.166180	 -0.000295
C	 1.542794	 -0.614730	 -0.000853
C	 4.113372	 -0.651103	 0.000743
C	 0.288398	 0.247429	 0.000314
H	 1.557171	 -1.273139	 -0.866508
H	 1.557484	 -1.274998	 0.863344
C	 -0.520400	 0.108111	 -1.286367
H	 0.569526	 1.283839	 0.148416
H	 -0.325954	 -0.020006	 0.852479
C	 -1.780948	 0.967885	 -1.298116
H	 0.102769	 0.375582	 -2.136893
H	 -0.797140	 -0.934106	 -1.429404
C	 -2.595148	 0.834395	 -2.581858
H	 -1.505324	 2.009897	 -1.155444
H	 -2.404894	 0.700716	 -0.448740
C	 -3.853119	 1.696531	 -2.586156
H	 -1.972613	 1.102394	 -3.431309
H	 -2.872184	 -0.206658	 -2.724615
H	 -3.607230	 2.747849	 -2.479802
H	 -4.407343	 1.578697	 -3.510262
H	 -4.513554	 1.428957	 -1.768064
H	 4.145311	 -1.294584	 -0.871587
H	 4.970080	 0.004978	 -0.000091
H	 4.145223	 -1.291980	 0.874988

	symmetry c1
}
set optking {
	frozen_dihedral = ("
		9 5 3 6
	")
}

ee,wfn = optimize('scf', return_wfn=True)
oeprop( wfn, 'DIPOLE', 'QUADRUPOLE', 'MULLIKEN_CHARGES')
f=open( 'psi4out.xyz', 'w' )
f.write( "25  " )
f.write( str(ee) + "\n" )
f.write( MOL.save_string_xyz() )
f.close()
--------------------------------------------------------------------------

    Molecular point group: c1
  Charge       = 0
  Multiplicity = 1
  Basis Set: CC-PVTZ
  Basis Set:
  @DF-RHF Final Energy:  -387.27005337619562
    Total Energy =                       -387.2700533761953920
    Molecular point group: c1
  Basis Set: CC-PVTZ
  Basis Set:
  Basis Set: CC-PVTZ
  Basis Set:
  @DF-RHF Final Energy:  -387.27039002576396
    Total Energy =                       -387.2703900257637315
  Basis Set: CC-PVTZ
  Basis Set:
  Basis Set: CC-PVTZ
  Basis Set:
  @DF-RHF Final Energy:  -387.27031722137241
    Total Energy =                       -387.2703172213725793
  Basis Set: CC-PVTZ
  Basis Set:
  Basis Set: CC-PVTZ
  Basis Set:
  @DF-RHF Final Energy:  -387.27049845549016
    Total Energy =                       -387.2704984554897010
  Basis Set: CC-PVTZ
  Basis Set:
  @DF-RHF Final Energy:  -387.27050817419621
    Total Energy =                       -387.2705081741959248
  @DF-RHF Final Energy:  -387.27051602338997
    Total Energy =                       -387.2705160233897459
  @DF-RHF Final Energy:  -387.27052049422474
    Total Energy =                       -387.2705204942253658
  @DF-RHF Final Energy:  -387.27052179294185
    Total Energy =                       -387.2705217929418495
  @DF-RHF Final Energy:  -387.27052454029894
    Total Energy =                       -387.2705245402988794
  @DF-RHF Final Energy:  -387.27053197184733
    Total Energy =                       -387.2705319718470491
  @DF-RHF Final Energy:  -387.27053879092642
    Total Energy =                       -387.2705387909268211
  @DF-RHF Final Energy:  -387.27054477532312
    Total Energy =                       -387.2705447753231738
  Basis Set: CC-PVTZ
  Basis Set:
  @DF-RHF Final Energy:  -387.27054924730339
    Total Energy =                       -387.2705492473033928
  Basis Set: CC-PVTZ
  Basis Set:
  Basis Set: CC-PVTZ
  Basis Set:
  @DF-RHF Final Energy:  -387.27054683031048
    Total Energy =                       -387.2705468303099678
  Basis Set: CC-PVTZ
  Basis Set:
  Basis Set: CC-PVTZ
  Basis Set:
  @DF-RHF Final Energy:  -387.27055193610454
    Total Energy =                       -387.2705519361046527
  Basis Set: CC-PVTZ
  Basis Set:
  Charge       = 0
  Multiplicity = 1
  Basis Set: CC-PVTZ
  Basis Set:

    Orbital Energies (a.u.)
    -----------------------

    Doubly Occupied:

       1A    -20.539595     2A    -11.321779     3A    -11.230468
       4A    -11.227163     5A    -11.213546     6A    -11.212383
       7A    -11.211551     8A    -11.209268     9A    -11.204871
      10A     -1.400019    11A     -1.092580    12A     -1.056061
      13A     -1.015314    14A     -0.968447    15A     -0.890918
      16A     -0.815115    17A     -0.789557    18A     -0.730222
      19A     -0.669345    20A     -0.642058    21A     -0.635400
      22A     -0.623299    23A     -0.595111    24A     -0.584051
      25A     -0.574663    26A     -0.559294    27A     -0.533992
      28A     -0.526726    29A     -0.517115    30A     -0.498525
      31A     -0.483017    32A     -0.472795    33A     -0.462140
      34A     -0.460112    35A     -0.444918    36A     -0.403354

  @DF-RHF Final Energy:  -387.27055209399606

   => Energetics <=

    Nuclear Repulsion Energy =            442.8676696242427511
    One-Electron Energy =               -1402.6469033290800326
    Two-Electron Energy =                 572.5086816108413359
    DFT Exchange-Correlation Energy =       0.0000000000000000
    Empirical Dispersion Energy =           0.0000000000000000
    PCM Polarization Energy =               0.0000000000000000
    EFP Energy =                            0.0000000000000000
    Total Energy =                       -387.2705520939958888
    Molecular point group: c1
  Basis Set: CC-PVTZ
  Basis Set:

  -Total Gradient:
     Atom            X                  Y                   Z
    ------   -----------------  -----------------  -----------------
       1       -0.000014774074     0.000036354654     0.000000095712
       2       -0.000010317525    -0.000083531199    -0.000001798366
       3       -0.001001097091    -0.001597095560     0.000764832269
       4       -0.000006074911     0.000016588030    -0.000006722166
       5        0.000034566964    -0.000001632368     0.001969311502
       6        0.000849875013     0.001346897395    -0.000941425955
       7       -0.000000325899    -0.000001722956     0.000001864287
       8        0.000010162259    -0.000001093883     0.000007344139
       9        0.000134785970     0.000286999657    -0.001805921247
      10        0.000007190454    -0.000000566143     0.000001452494
      11        0.000002492968     0.000000592682     0.000002502293
      12       -0.000001362585    -0.000002718579     0.000000623864
      13       -0.000000509694     0.000000274011     0.000000996628
      14       -0.000000944585     0.000001579769    -0.000002525222
      15       -0.000001800692    -0.000000231201     0.000000307706
      16       -0.000000172268     0.000000608624    -0.000000539932
      17       -0.000000352503    -0.000000297571    -0.000000919138
      18       -0.000000403541    -0.000000383902     0.000000785118
      19        0.000000283215     0.000000657786     0.000000934779
      20       -0.000000156766    -0.000000433167    -0.000000239622
      21       -0.000000541421     0.000000235545     0.000000284029
      22        0.000000062151     0.000000162818    -0.000000444260
      23       -0.000003991247     0.000004344580     0.000003752367
      24        0.000002745953    -0.000003216233     0.000002115874
      25        0.000000659862    -0.000002372786     0.000003332849

  **** Optimization is complete! (in 16 steps) ****
    Final optimized geometry and variables:
    Molecular point group: c1

    Geometry (in Angstrom), charge = 0, multiplicity = 1:

    O            2.557777805719     0.871717628722     0.661627665839
    C            2.534432132215    -0.306062996692     0.808650118386
    C            1.244980202391    -1.107492193420     0.850242685698
    C            3.810391844598    -1.103703510212     0.957358294522
    C           -0.042059669771    -0.273407834043     0.886123228865
    H            1.272501838961    -1.737792633803    -0.035793600145
    H            1.308737768314    -1.788322579195     1.692705358023
    C           -0.848815312116    -0.354996572209    -0.408972841620
    H            0.217494270063     0.760632649709     1.065491629780
    H           -0.661734817118    -0.599938622041     1.714021009312
    C           -2.115508123493     0.493895720911    -0.380860213671
    H           -0.220740028831    -0.035436117907    -1.236920242473
    H           -1.114847841333    -1.391125093418    -0.607110897289
    C           -2.924672804697     0.419854816693    -1.672648191804
    H           -1.847650202865     1.529001996779    -0.184689891806
    H           -2.741012184334     0.178782680363     0.451416095720
    C           -4.188936176641     1.272010753398    -1.637776913784
    H           -2.301029893022     0.735618704912    -2.504459136920
    H           -3.193572814919    -0.614572975883    -1.869498485603
    H           -3.950902776368     2.318216440148    -1.477249142042
    H           -4.739190806554     1.197460708863    -2.568781822653
    H           -4.850380120510     0.958461949048    -0.836844922986
    H            3.809754235330    -1.961966609444     0.295564403710
    H            4.662546275227    -0.475751000652     0.747560258712
    H            3.882751139905    -1.478674383985     1.972978575562

  Mulliken Charges: (a.u.)
   Center  Symbol    Alpha    Beta     Spin     Total
       1     O     4.17197  4.17197  0.00000 -0.34394
       2     C     2.85863  2.85863  0.00000  0.28273
       3     C     3.12396  3.12396  0.00000 -0.24791
       4     C     3.15107  3.15107  0.00000 -0.30214
       5     C     3.09719  3.09719  0.00000 -0.19439
       6     H     0.44303  0.44303  0.00000  0.11394
       7     H     0.43621  0.43621  0.00000  0.12758
       8     C     3.08985  3.08985  0.00000 -0.17970
       9     H     0.43817  0.43817  0.00000  0.12365
      10     H     0.44802  0.44802  0.00000  0.10397
      11     C     3.08852  3.08852  0.00000 -0.17703
      12     H     0.45153  0.45153  0.00000  0.09694
      13     H     0.45633  0.45633  0.00000  0.08735
      14     C     3.08377  3.08377  0.00000 -0.16754
      15     H     0.45151  0.45151  0.00000  0.09699
      16     H     0.45628  0.45628  0.00000  0.08745
      17     C     3.15053  3.15053  0.00000 -0.30106
      18     H     0.45413  0.45413  0.00000  0.09174
      19     H     0.45588  0.45588  0.00000  0.08825
      20     H     0.45435  0.45435  0.00000  0.09130
      21     H     0.44874  0.44874  0.00000  0.10252
      22     H     0.45567  0.45567  0.00000  0.08865
      23     H     0.45030  0.45030  0.00000  0.09939
      24     H     0.43550  0.43550  0.00000  0.12901
      25     H     0.44887  0.44887  0.00000  0.10226

   Total alpha = 36.00000, Total beta = 36.00000, Total charge = -0.00000

*** Psi4 exiting successfully. Buy a developer a beer!
