  ==> Input File <==

--------------------------------------------------------------------------
set {
	reference rhf
	basis 6-31G*
}

set_num_threads( 1 )
memory 2 gb

molecule MOL {
0 1

H	 -2.696796	 1.619900	 -2.117710
C	 -1.709131	 2.096286	 -2.083144
C	 -1.187476	 2.381863	 -0.697888
O	 -1.132691	 2.349665	 -3.090748
C	 -1.220012	 1.144545	 0.209990
H	 -0.185376	 2.785246	 -0.786127
H	 -1.822800	 3.156572	 -0.270285
C	 -0.252658	 0.041456	 -0.226725
H	 -0.980051	 1.454664	 1.222674
H	 -2.234284	 0.750009	 0.246745
C	 1.180775	 0.282413	 0.250794
H	 -0.266029	 -0.034465	 -1.312038
H	 -0.597733	 -0.921000	 0.146291
C	 2.148627	 -0.814315	 -0.201312
H	 1.516199	 1.249228	 -0.115937
H	 1.192670	 0.346017	 1.338083
C	 3.580890	 -0.659131	 0.322722
H	 2.166869	 -0.852443	 -1.289387
H	 1.762857	 -1.776509	 0.128956
C	 4.324889	 0.564933	 -0.213704
H	 4.142010	 -1.551473	 0.056605
H	 3.564836	 -0.624694	 1.410140
H	 4.342616	 0.565491	 -1.300421
H	 3.866655	 1.493402	 0.110242
H	 5.353900	 0.572371	 0.132816

	symmetry c1
}
set optking {
	frozen_dihedral = ("
		6 3 5 8,
		6 3 2 4,
		12 8 11 14,
		8 11 14 18,
		20 17 14 18
	")
}

ee = energy('scf')
oeprop('DIPOLE', 'QUADRUPOLE', 'MULLIKEN_CHARGES')
f=open( 'psi4out.xyz', 'w' )
f.write( "25  " )
f.write( str(ee) + "\n" )
f.write( MOL.save_string_xyz() )
f.close()
--------------------------------------------------------------------------

    Molecular point group: c1

    Geometry (in Angstrom), charge = 0, multiplicity = 1:

       Center              X                  Y                   Z               Mass
    ------------   -----------------  -----------------  -----------------  -----------------
           H         -3.348908691793     0.789928647834    -1.465778160115     1.007825032070
           C         -2.361243691793     1.266314647834    -1.431212160115    12.000000000000
           C         -1.839588691793     1.551891647834    -0.045956160115    12.000000000000
           O         -1.784803691793     1.519693647834    -2.438816160115    15.994914619560
           C         -1.872124691793     0.314573647834     0.861921839885    12.000000000000
           H         -0.837488691793     1.955274647834    -0.134195160115     1.007825032070
           H         -2.474912691793     2.326600647834     0.381646839885     1.007825032070
           C         -0.904770691793    -0.788515352166     0.425206839885    12.000000000000
           H         -1.632163691793     0.624692647834     1.874605839885     1.007825032070
           H         -2.886396691793    -0.079962352166     0.898676839885     1.007825032070
           C          0.528662308207    -0.547558352166     0.902725839885    12.000000000000
           H         -0.918141691793    -0.864436352166    -0.660106160115     1.007825032070
           H         -1.249845691793    -1.750971352166     0.798222839885     1.007825032070
           C          1.496514308207    -1.644286352166     0.450619839885    12.000000000000
           H          0.864086308207     0.419256647834     0.535994839885     1.007825032070
           H          0.540557308207    -0.483954352166     1.990014839885     1.007825032070
           C          2.928777308207    -1.489102352166     0.974653839885    12.000000000000
           H          1.514756308207    -1.682414352166    -0.637455160115     1.007825032070
           H          1.110744308207    -2.606480352166     0.780887839885     1.007825032070
           C          3.672776308207    -0.265038352166     0.438227839885    12.000000000000
           H          3.489897308207    -2.381444352166     0.708536839885     1.007825032070
           H          2.912723308207    -1.454665352166     2.062071839885     1.007825032070
           H          3.690503308207    -0.264480352166    -0.648489160115     1.007825032070
           H          3.214542308207     0.663430647834     0.762173839885     1.007825032070
           H          4.701787308207    -0.257600352166     0.784747839885     1.007825032070

  Charge       = 0
  Multiplicity = 1
  Basis Set: 6-31G*
  Basis Set:

    Orbital Energies (a.u.)
    -----------------------

    Doubly Occupied:

       1A    -20.562771     2A    -11.326579     3A    -11.234935
       4A    -11.234299     5A    -11.223091     6A    -11.218403
       7A    -11.216346     8A    -11.215358     9A    -11.208234
      10A     -1.402763    11A     -1.104512    12A     -1.067868
      13A     -1.010520    14A     -0.942441    15A     -0.876482
      16A     -0.821671    17A     -0.786525    18A     -0.777323
      19A     -0.664918    20A     -0.655558    21A     -0.643041
      22A     -0.614791    23A     -0.611437    24A     -0.592489
      25A     -0.569677    26A     -0.547370    27A     -0.540895
      28A     -0.518404    29A     -0.516093    30A     -0.499719
      31A     -0.482805    32A     -0.475961    33A     -0.462753
      34A     -0.455071    35A     -0.441711    36A     -0.410086

  @DF-RHF Final Energy:  -387.11961043615833

   => Energetics <=

    Nuclear Repulsion Energy =            448.1059473168324416
    One-Electron Energy =               -1412.5854530310189148
    Two-Electron Energy =                 577.3598952780293985
    DFT Exchange-Correlation Energy =       0.0000000000000000
    Empirical Dispersion Energy =           0.0000000000000000
    PCM Polarization Energy =               0.0000000000000000
    EFP Energy =                            0.0000000000000000
    Total Energy =                       -387.1196104361570178

  Mulliken Charges: (a.u.)
   Center  Symbol    Alpha    Beta     Spin     Total
       1     H     0.43226  0.43226  0.00000  0.13548
       2     C     2.83038  2.83038  0.00000  0.33924
       3     C     3.20929  3.20929  0.00000 -0.41857
       4     O     4.23830  4.23830  0.00000 -0.47659
       5     C     3.16908  3.16908  0.00000 -0.33817
       6     H     0.39893  0.39893  0.00000  0.20214
       7     H     0.40662  0.40662  0.00000  0.18675
       8     C     3.15883  3.15883  0.00000 -0.31767
       9     H     0.41236  0.41236  0.00000  0.17528
      10     H     0.41724  0.41724  0.00000  0.16551
      11     C     3.15516  3.15516  0.00000 -0.31033
      12     H     0.41630  0.41630  0.00000  0.16740
      13     H     0.41793  0.41793  0.00000  0.16415
      14     C     3.15312  3.15312  0.00000 -0.30625
      15     H     0.41855  0.41855  0.00000  0.16291
      16     H     0.42366  0.42366  0.00000  0.15268
      17     C     3.15270  3.15270  0.00000 -0.30540
      18     H     0.42101  0.42101  0.00000  0.15798
      19     H     0.42253  0.42253  0.00000  0.15494
      20     C     3.24133  3.24133  0.00000 -0.48266
      21     H     0.42042  0.42042  0.00000  0.15917
      22     H     0.42385  0.42385  0.00000  0.15231
      23     H     0.42037  0.42037  0.00000  0.15925
      24     H     0.42065  0.42065  0.00000  0.15869
      25     H     0.41912  0.41912  0.00000  0.16176

   Total alpha = 36.00000, Total beta = 36.00000, Total charge =  0.00000
