  ==> Input File <==

--------------------------------------------------------------------------
set {
	reference rhf
	basis 6-31G*
}

set_num_threads( 4 )
memory 2 gb

molecule MOL {
0 1

H	 2.734370	 0.868716	 2.277273
O	 1.805768	 0.722208	 2.390592
C	 1.181709	 0.623749	 1.196755
C	 1.861827	 0.731053	 -0.009574
C	 -0.185356	 0.408064	 1.203464
H	 2.925713	 0.898904	 -0.012574
C	 1.175182	 0.622719	 -1.207260
H	 -0.711903	 0.324990	 2.134551
C	 -0.865228	 0.300799	 0.000000
H	 1.712312	 0.707463	 -2.134454
C	 -0.191076	 0.407162	 -1.209949
C	 -2.333960	 0.069074	 0.000000
H	 -0.726418	 0.322700	 -2.139078
O	 -2.847347	 -1.003763	 0.000000
H	 -2.943845	 0.977528	 0.000000

	symmetry c1
}
set optking {
	frozen_dihedral = ("
		11 9 12 14
	")
}

ee = optimize('scf')
oeprop('DIPOLE', 'QUADRUPOLE', 'MULLIKEN_CHARGES')
f=open( 'psi4out.xyz', 'w' )
f.write( "15  " )
f.write( str(ee) + "\n" )
f.write( MOL.save_string_xyz() )
f.close()
--------------------------------------------------------------------------

    Molecular point group: c1
  Charge       = 0
  Multiplicity = 1
  Basis Set: 6-31G*
  Basis Set:
  @DF-RHF Final Energy:  -418.27314818650115
    Total Energy =                       -418.2731481865009755
    Molecular point group: c1
  Basis Set: 6-31G*
  Basis Set:
  Basis Set: 6-31G*
  Basis Set:
  @DF-RHF Final Energy:  -418.27340834927145
    Total Energy =                       -418.2734083492719037
  Basis Set: 6-31G*
  Basis Set:
  Basis Set: 6-31G*
  Basis Set:
  @DF-RHF Final Energy:  -418.27265288672038
    Total Energy =                       -418.2726528867204934
  Basis Set: 6-31G*
  Basis Set:
  Basis Set: 6-31G*
  Basis Set:
  @DF-RHF Final Energy:  -418.27347929031237
    Total Energy =                       -418.2734792903120251
  Basis Set: 6-31G*
  Basis Set:
  Basis Set: 6-31G*
  Basis Set:
  @DF-RHF Final Energy:  -418.27348226352251
    Total Energy =                       -418.2734822635227374
  Basis Set: 6-31G*
  Basis Set:
  Charge       = 0
  Multiplicity = 1
  Basis Set: 6-31G*
  Basis Set:

    Orbital Energies (a.u.)
    -----------------------

    Doubly Occupied:

       1A    -20.602825     2A    -20.573754     3A    -11.337147
       4A    -11.313530     5A    -11.257592     6A    -11.251740
       7A    -11.241626     8A    -11.239644     9A    -11.239331
      10A     -1.422643    11A     -1.412871    12A     -1.167456
      13A     -1.047706    14A     -1.023217    15A     -0.898771
      16A     -0.841460    17A     -0.817506    18A     -0.738363
      19A     -0.699482    20A     -0.675726    21A     -0.663524
      22A     -0.638450    23A     -0.613271    24A     -0.600523
      25A     -0.582162    26A     -0.543449    27A     -0.528297
      28A     -0.511508    29A     -0.492564    30A     -0.423031
      31A     -0.353055    32A     -0.323723

  @DF-RHF Final Energy:  -418.27348270297671

   => Energetics <=

    Nuclear Repulsion Energy =            401.7784875156022508
    One-Electron Energy =               -1365.9520425694147434
    Two-Electron Energy =                 545.9000723508356714
    DFT Exchange-Correlation Energy =       0.0000000000000000
    Empirical Dispersion Energy =           0.0000000000000000
    PCM Polarization Energy =               0.0000000000000000
    EFP Energy =                            0.0000000000000000
    Total Energy =                       -418.2734827029768212
    Molecular point group: c1
  Basis Set: 6-31G*
  Basis Set:

  -Total Gradient:
     Atom            X                  Y                   Z
    ------   -----------------  -----------------  -----------------
       1       -0.000004258633     0.000012012735    -0.000001162554
       2        0.000007444575     0.000017228628    -0.000012188937
       3       -0.000067334152    -0.000088009136     0.000060218070
       4        0.000007753728     0.000009384606    -0.000102781408
       5        0.000041093895     0.000015824441     0.000040476955
       6       -0.000002330108     0.000004346925     0.000008139310
       7        0.000102424189     0.000019793605     0.000067218374
       8        0.000006709318     0.000008610287    -0.000001290289
       9        0.000059364870    -0.000227119348    -0.000030791388
      10       -0.000008554505    -0.000000741825    -0.000007164710
      11       -0.000138128199     0.000158402589     0.000067162989
      12       -0.000068590291     0.000021649700    -0.000316312244
      13        0.000009153890     0.000005469411    -0.000004062837
      14        0.000031513860     0.000039875761     0.000231586068
      15        0.000023737569     0.000003271625     0.000000952603

  **** Optimization is complete! (in 6 steps) ****
    Final optimized geometry and variables:
    Molecular point group: c1

    Geometry (in Angstrom), charge = 0, multiplicity = 1:

    H            2.780180946409     0.546840839729     1.972542815082
    O            1.848066730011     0.417831660674     2.079425779578
    C            1.235489341069     0.317575001750     0.880886946986
    C            1.919942147449     0.425966083126    -0.318996372708
    C           -0.135486201023     0.100131077234     0.884803077736
    H            2.983259087646     0.595952379155    -0.321265662647
    C            1.228400440105     0.313831210951    -1.514526312042
    H           -0.643809517570     0.014867359414     1.827694251714
    C           -0.813411190896    -0.013595540053    -0.315213009533
    H            1.764296899504     0.395585995284    -2.442951046775
    C           -0.137017374596     0.096967202601    -1.524367900581
    C           -2.299202083340    -0.237416418382    -0.306775437369
    H           -0.666127695880     0.005594771473    -2.455552985740
    O           -2.805433727061    -1.310867224673    -0.310080201522
    H           -2.915220079517     0.666271269060    -0.297296492087

  Mulliken Charges: (a.u.)
   Center  Symbol    Alpha    Beta     Spin     Total
       1     H     0.27008  0.27008  0.00000  0.45985
       2     O     4.37631  4.37631  0.00000 -0.75263
       3     C     2.79022  2.79022  0.00000  0.41955
       4     C     3.14265  3.14265  0.00000 -0.28530
       5     C     3.12893  3.12893  0.00000 -0.25786
       6     H     0.40068  0.40068  0.00000  0.19864
       7     C     3.08844  3.08844  0.00000 -0.17687
       8     H     0.38424  0.38424  0.00000  0.23153
       9     C     3.02079  3.02079  0.00000 -0.04158
      10     H     0.39361  0.39361  0.00000  0.21279
      11     C     3.11775  3.11775  0.00000 -0.23551
      12     C     2.85203  2.85203  0.00000  0.29594
      13     H     0.39260  0.39260  0.00000  0.21480
      14     O     4.21985  4.21985  0.00000 -0.43969
      15     H     0.42183  0.42183  0.00000  0.15634

   Total alpha = 32.00000, Total beta = 32.00000, Total charge = -0.00000
