  ==> Input File <==

--------------------------------------------------------------------------
set {
	reference rhf
	basis 6-31G*
}

set_num_threads( 1 )
memory 2 gb

molecule MOL {
0 1

O	 3.536002	 -2.861629	 1.557609
C	 2.866560	 -1.990230	 1.104208
C	 1.388571	 -1.799585	 1.345027
O	 3.347903	 -1.046386	 0.304773
C	 0.790445	 -2.856390	 2.271052
H	 1.256490	 -0.795605	 1.734605
H	 0.899375	 -1.808048	 0.374299
C	 -0.727952	 -2.739080	 2.441942
H	 1.275272	 -2.799100	 3.240990
H	 1.028539	 -3.837681	 1.875069
C	 -1.200211	 -1.474555	 3.165169
H	 -1.072188	 -3.607110	 2.999391
H	 -1.208206	 -2.797693	 1.466272
C	 -2.710752	 -1.457065	 3.407984
H	 -0.681772	 -1.393509	 4.119356
H	 -0.926432	 -0.591177	 2.592752
C	 -3.194762	 -0.195661	 4.125428
H	 -2.991357	 -2.331797	 3.992226
H	 -3.229727	 -1.548880	 2.455129
C	 -4.703751	 -0.187806	 4.367481
H	 -2.676423	 -0.101833	 5.077355
H	 -2.919030	 0.679533	 3.540802
H	 -5.016073	 0.718392	 4.877251
H	 -5.007020	 -1.032662	 4.979397
H	 -5.251386	 -0.245900	 3.431001
C	 4.728119	 -1.109107	 -0.004993
H	 4.882018	 -1.033965	 -1.071845
H	 5.068212	 -2.067527	 0.355250
H	 5.265056	 -0.311663	 0.488280

	symmetry c1
}
set optking {
	frozen_dihedral = ("
		21 17 14 11,
		17 14 11 15,
		15 11 8 5,
		6 3 5 9,
		11 8 5 9,
		1 2 4 26,
		6 3 2 1
	")
}

ee = energy('scf')
oeprop('DIPOLE', 'QUADRUPOLE', 'MULLIKEN_CHARGES')
f=open( 'psi4out.xyz', 'w' )
f.write( "29  " )
f.write( str(ee) + "\n" )
f.write( MOL.save_string_xyz() )
f.close()
--------------------------------------------------------------------------

    Molecular point group: c1

    Geometry (in Angstrom), charge = 0, multiplicity = 1:

       Center              X                  Y                   Z               Mass
    ------------   -----------------  -----------------  -----------------  -----------------
           O          3.121474183286    -1.259642392717    -0.613758866649    15.994914619560
           C          2.452032183286    -0.388243392717    -1.067159866649    12.000000000000
           C          0.974043183286    -0.197598392717    -0.826340866649    12.000000000000
           O          2.933375183286     0.555600607283    -1.866594866649    15.994914619560
           C          0.375917183286    -1.254403392717     0.099684133351    12.000000000000
           H          0.841962183286     0.806381607283    -0.436762866649     1.007825032070
           H          0.484847183286    -0.206061392717    -1.797068866649     1.007825032070
           C         -1.142479816714    -1.137093392717     0.270574133351    12.000000000000
           H          0.860744183286    -1.197113392717     1.069622133351     1.007825032070
           H          0.614011183286    -2.235694392717    -0.296298866649     1.007825032070
           C         -1.614738816714     0.127431607283     0.993801133351    12.000000000000
           H         -1.486715816714    -2.005123392717     0.828023133351     1.007825032070
           H         -1.622733816714    -1.195706392717    -0.705095866649     1.007825032070
           C         -3.125279816714     0.144921607283     1.236616133351    12.000000000000
           H         -1.096299816714     0.208477607283     1.947988133351     1.007825032070
           H         -1.340959816714     1.010809607283     0.421384133351     1.007825032070
           C         -3.609289816714     1.406325607283     1.954060133351    12.000000000000
           H         -3.405884816714    -0.729810392717     1.820858133351     1.007825032070
           H         -3.644254816714     0.053106607283     0.283761133351     1.007825032070
           C         -5.118278816714     1.414180607283     2.196113133351    12.000000000000
           H         -3.090950816714     1.500153607283     2.905987133351     1.007825032070
           H         -3.333557816714     2.281519607283     1.369434133351     1.007825032070
           H         -5.430600816714     2.320378607283     2.705883133351     1.007825032070
           H         -5.421547816714     0.569324607283     2.808029133351     1.007825032070
           H         -5.665913816714     1.356086607283     1.259633133351     1.007825032070
           C          4.313591183286     0.492879607283    -2.176360866649    12.000000000000
           H          4.467490183286     0.568021607283    -3.243212866649     1.007825032070
           H          4.653684183286    -0.465540392717    -1.816117866649     1.007825032070
           H          4.850528183286     1.290323607283    -1.683087866649     1.007825032070

  Charge       = 0
  Multiplicity = 1
  Basis Set: 6-31G*
  Basis Set:

    Orbital Energies (a.u.)
    -----------------------

    Doubly Occupied:

       1A    -20.602792     2A    -20.545450     3A    -11.374235
       4A    -11.274856     5A    -11.235682     6A    -11.219596
       7A    -11.217991     8A    -11.216239     9A    -11.215997
      10A    -11.214640    11A    -11.209158    12A     -1.470064
      13A     -1.363326    14A     -1.098511    15A     -1.067239
      16A     -1.019623    17A     -0.976127    18A     -0.928016
      19A     -0.861676    20A     -0.799340    21A     -0.790584
      22A     -0.763278    23A     -0.705570    24A     -0.680314
      25A     -0.673962    26A     -0.651400    27A     -0.628876
      28A     -0.606592    29A     -0.594982    30A     -0.580660
      31A     -0.568543    32A     -0.550409    33A     -0.534120
      34A     -0.524590    35A     -0.513557    36A     -0.510480
      37A     -0.497027    38A     -0.478184    39A     -0.470483
      40A     -0.462559    41A     -0.459030    42A     -0.453899
      43A     -0.441668    44A     -0.436544

  @DF-RHF Final Energy:  -501.04001115636959

   => Energetics <=

    Nuclear Repulsion Energy =            610.4547675297200158
    One-Electron Energy =               -1892.0137541986005090
    Two-Electron Energy =                 780.5189755125098827
    DFT Exchange-Correlation Energy =       0.0000000000000000
    Empirical Dispersion Energy =           0.0000000000000000
    PCM Polarization Energy =               0.0000000000000000
    EFP Energy =                            0.0000000000000000
    Total Energy =                       -501.0400111563707242

  Mulliken Charges: (a.u.)
   Center  Symbol    Alpha    Beta     Spin     Total
       1     O     4.28715  4.28715  0.00000 -0.57430
       2     C     2.60395  2.60395  0.00000  0.79211
       3     C     3.21009  3.21009  0.00000 -0.42019
       4     O     4.30773  4.30773  0.00000 -0.61545
       5     C     3.15399  3.15399  0.00000 -0.30798
       6     H     0.39824  0.39824  0.00000  0.20351
       7     H     0.40079  0.40079  0.00000  0.19841
       8     C     3.15665  3.15665  0.00000 -0.31331
       9     H     0.41296  0.41296  0.00000  0.17407
      10     H     0.40867  0.40867  0.00000  0.18266
      11     C     3.15512  3.15512  0.00000 -0.31024
      12     H     0.41814  0.41814  0.00000  0.16372
      13     H     0.42379  0.42379  0.00000  0.15241
      14     C     3.15031  3.15031  0.00000 -0.30061
      15     H     0.42257  0.42257  0.00000  0.15486
      16     H     0.42358  0.42358  0.00000  0.15285
      17     C     3.15148  3.15148  0.00000 -0.30295
      18     H     0.42330  0.42330  0.00000  0.15339
      19     H     0.42394  0.42394  0.00000  0.15212
      20     C     3.23936  3.23936  0.00000 -0.47872
      21     H     0.42278  0.42278  0.00000  0.15443
      22     H     0.42339  0.42339  0.00000  0.15322
      23     H     0.41920  0.41920  0.00000  0.16160
      24     H     0.42154  0.42154  0.00000  0.15692
      25     H     0.42181  0.42181  0.00000  0.15637
      26     C     3.10374  3.10374  0.00000 -0.20748
      27     H     0.41219  0.41219  0.00000  0.17561
      28     H     0.38989  0.38989  0.00000  0.22022
      29     H     0.41363  0.41363  0.00000  0.17275

   Total alpha = 44.00000, Total beta = 44.00000, Total charge =  0.00000
