  ==> Input File <==

--------------------------------------------------------------------------
set {
	reference rhf
	basis 6-31G*
}

set_num_threads( 4 )
memory 2 gb

molecule MOL {
0 1

H	 1.386697	 0.728664	 -0.910644
C	 0.850167	 0.441173	 0.000644
C	 -0.623425	 0.760064	 0.000248
O	 1.430039	 -0.083618	 0.895121
C	 -1.518387	 -0.473136	 -0.000101
H	 -0.818289	 1.390622	 -0.866171
H	 -0.818694	 1.390413	 0.866696
H	 -1.333417	 -1.085530	 -0.874338
H	 -2.563510	 -0.183466	 -0.000351
H	 -1.333864	 -1.085676	 0.874123

	symmetry c1
}
set optking {
	frozen_dihedral = ("
		4 2 3 6
	")
}

ee = optimize('scf')
oeprop('DIPOLE', 'QUADRUPOLE', 'MULLIKEN_CHARGES')
f=open( 'psi4out.xyz', 'w' )
f.write( "10  " )
f.write( str(ee) + "\n" )
f.write( MOL.save_string_xyz() )
f.close()
--------------------------------------------------------------------------

    Molecular point group: c1
  Charge       = 0
  Multiplicity = 1
  Basis Set: 6-31G*
  Basis Set:
  @DF-RHF Final Energy:  -191.94795155494617
    Total Energy =                       -191.9479515549462292
    Molecular point group: c1
  Basis Set: 6-31G*
  Basis Set:
  Basis Set: 6-31G*
  Basis Set:
  @DF-RHF Final Energy:  -191.94861168364071
    Total Energy =                       -191.9486116836406779
  Basis Set: 6-31G*
  Basis Set:
  Basis Set: 6-31G*
  Basis Set:
  @DF-RHF Final Energy:  -191.94865211851243
    Total Energy =                       -191.9486521185125127
  Basis Set: 6-31G*
  Basis Set:
  Basis Set: 6-31G*
  Basis Set:
  @DF-RHF Final Energy:  -191.94870983147217
    Total Energy =                       -191.9487098314722289
  Basis Set: 6-31G*
  Basis Set:
  Basis Set: 6-31G*
  Basis Set:
  @DF-RHF Final Energy:  -191.94871767748731
    Total Energy =                       -191.9487176774873376
  Basis Set: 6-31G*
  Basis Set:
  Charge       = 0
  Multiplicity = 1
  Basis Set: 6-31G*
  Basis Set:

    Orbital Energies (a.u.)
    -----------------------

    Doubly Occupied:

       1A    -20.563793     2A    -11.328459     3A    -11.238430
       4A    -11.228769     5A     -1.404179     6A     -1.061010
       7A     -0.904946     8A     -0.785031     9A     -0.682608
      10A     -0.638925    11A     -0.607105    12A     -0.570339
      13A     -0.537890    14A     -0.510272    15A     -0.492720
      16A     -0.412044

  @DF-RHF Final Energy:  -191.94871781770948

   => Energetics <=

    Nuclear Repulsion Energy =            118.4597976130859536
    One-Electron Energy =                -494.8839940341936199
    Two-Electron Energy =                 184.4754786033982157
    DFT Exchange-Correlation Energy =       0.0000000000000000
    Empirical Dispersion Energy =           0.0000000000000000
    PCM Polarization Energy =               0.0000000000000000
    EFP Energy =                            0.0000000000000000
    Total Energy =                       -191.9487178177094790
    Molecular point group: c1
  Basis Set: 6-31G*
  Basis Set:

  -Total Gradient:
     Atom            X                  Y                   Z
    ------   -----------------  -----------------  -----------------
       1       -0.000005916828    -0.000001968706     0.000010666955
       2       -0.000015217559     0.000133481668     0.000031168236
       3        0.000004449876     0.000039894730     0.000035772998
       4        0.000021659265    -0.000123019150    -0.000006443958
       5        0.000016962391     0.000024441189     0.000005046737
       6       -0.000036873477    -0.000075621331    -0.000078012172
       7        0.000003008135    -0.000000470064     0.000000525273
       8        0.000001068344     0.000005843830     0.000001874047
       9        0.000007407617     0.000007266679     0.000003446256
      10        0.000003452234    -0.000009848845    -0.000004044374

  **** Optimization is complete! (in 6 steps) ****
    Final optimized geometry and variables:
    Molecular point group: c1

    Geometry (in Angstrom), charge = 0, multiplicity = 1:

    H            1.389655603614     0.511477821959    -1.146386596451
    C            0.822567954704     0.283038684731    -0.237774290976
    C           -0.648332249200     0.637844422023    -0.244221267463
    O            1.361760930390    -0.234952124733     0.686382549137
    C           -1.522340178946    -0.622787299057    -0.238287115237
    H           -0.874345733066     1.252974842346    -1.109239559197
    H           -0.849115436019     1.225427387587     0.646051625876
    H           -1.358021283564    -1.222072371825    -1.128413797521
    H           -2.572409997348    -0.354950202832    -0.206260889735
    H           -1.296248311462    -1.233372470744     0.627142465969

  Mulliken Charges: (a.u.)
   Center  Symbol    Alpha    Beta     Spin     Total
       1     H     0.42687  0.42687  0.00000  0.14626
       2     C     2.84445  2.84445  0.00000  0.31110
       3     C     3.19933  3.19933  0.00000 -0.39866
       4     O     4.23577  4.23577  0.00000 -0.47154
       5     C     3.24580  3.24580  0.00000 -0.49161
       6     H     0.41581  0.41581  0.00000  0.16838
       7     H     0.39953  0.39953  0.00000  0.20095
       8     H     0.41665  0.41665  0.00000  0.16671
       9     H     0.41270  0.41270  0.00000  0.17460
      10     H     0.40309  0.40309  0.00000  0.19382

   Total alpha = 16.00000, Total beta = 16.00000, Total charge = -0.00000
