  ==> Input File <==

--------------------------------------------------------------------------
set {
	reference rhf
	basis cc-pvtz
}

set_num_threads( 4 )
memory 2 gb

molecule MOL {
0 1

H	 1.336186	 -1.227230	 -0.505155
C	 0.788096	 -0.429819	 0.000000
N	 -0.537714	 -0.645117	 0.000000
O	 1.344574	 0.505650	 0.481611
C	 -1.522613	 0.412524	 0.000000
H	 -0.845894	 -1.585866	 0.000000
H	 -2.150256	 0.356137	 -0.880771
H	 -1.005621	 1.357208	 0.000000
H	 -2.150256	 0.356137	 0.880771

	symmetry c1
}
set optking {
	frozen_dihedral = ("
		1 2 3 6
	")
}

ee = optimize('scf')
oeprop('DIPOLE', 'QUADRUPOLE', 'MULLIKEN_CHARGES')
f=open( 'psi4out.xyz', 'w' )
f.write( "9  " )
f.write( str(ee) + "\n" )
f.write( MOL.save_string_xyz() )
f.close()
--------------------------------------------------------------------------

    Molecular point group: c1
  Charge       = 0
  Multiplicity = 1
  Basis Set: CC-PVTZ
  Basis Set:
  @DF-RHF Final Energy:  -208.03370645232513
    Total Energy =                       -208.0337064523251627
    Molecular point group: c1
  Basis Set: CC-PVTZ
  Basis Set:
  Basis Set: CC-PVTZ
  Basis Set:
  @DF-RHF Final Energy:  -208.03681294721994
    Total Energy =                       -208.0368129472197722
  Basis Set: CC-PVTZ
  Basis Set:
  Basis Set: CC-PVTZ
  Basis Set:
  @DF-RHF Final Energy:  -208.04054075779300
    Total Energy =                       -208.0405407577928543
  Basis Set: CC-PVTZ
  Basis Set:
  Basis Set: CC-PVTZ
  Basis Set:
  @DF-RHF Final Energy:  -208.04129047514397
    Total Energy =                       -208.0412904751439953
  Basis Set: CC-PVTZ
  Basis Set:
  @DF-RHF Final Energy:  -208.04148107559473
    Total Energy =                       -208.0414810755947315
  @DF-RHF Final Energy:  -208.04168341924097
    Total Energy =                       -208.0416834192409397
  @DF-RHF Final Energy:  -208.04187344045550
    Total Energy =                       -208.0418734404556744
  @DF-RHF Final Energy:  -208.04202831150184
    Total Energy =                       -208.0420283115017810
  @DF-RHF Final Energy:  -208.04211883282613
    Total Energy =                       -208.0421188328259632
  @DF-RHF Final Energy:  -208.04213176223527
    Total Energy =                       -208.0421317622353570
  @DF-RHF Final Energy:  -208.04213418862415
    Total Energy =                       -208.0421341886242885
  @DF-RHF Final Energy:  -208.04213946300695
    Total Energy =                       -208.0421394630068619
  @DF-RHF Final Energy:  -208.04214009125286
    Total Energy =                       -208.0421400912528611
  @DF-RHF Final Energy:  -208.04213894473497
    Total Energy =                       -208.0421389447349441
  @DF-RHF Final Energy:  -208.04213854597822
    Total Energy =                       -208.0421385459782755
  @DF-RHF Final Energy:  -208.04213993073878
    Total Energy =                       -208.0421399307387560
  @DF-RHF Final Energy:  -208.04213887079339
    Total Energy =                       -208.0421388707933943
  @DF-RHF Final Energy:  -208.04213945299017
    Total Energy =                       -208.0421394529901988
  @DF-RHF Final Energy:  -208.04213990560532
    Total Energy =                       -208.0421399056053247
  @DF-RHF Final Energy:  -208.04214042733557
    Total Energy =                       -208.0421404273356529
  @DF-RHF Final Energy:  -208.04213998267028
    Total Energy =                       -208.0421399826702782
  @DF-RHF Final Energy:  -208.04213984891783
    Total Energy =                       -208.0421398489177705
  @DF-RHF Final Energy:  -208.04213985704865
    Total Energy =                       -208.0421398570486247
  @DF-RHF Final Energy:  -208.04213993542803
    Total Energy =                       -208.0421399354282244
  @DF-RHF Final Energy:  -208.04213990654890
    Total Energy =                       -208.0421399065488117
  @DF-RHF Final Energy:  -208.04213955224068
    Total Energy =                       -208.0421395522406556
  @DF-RHF Final Energy:  -208.04213995717856
    Total Energy =                       -208.0421399571785628
  @DF-RHF Final Energy:  -208.04213931697080
    Total Energy =                       -208.0421393169708040
  @DF-RHF Final Energy:  -208.04213920751698
    Total Energy =                       -208.0421392075169820
  @DF-RHF Final Energy:  -208.04214003391442
    Total Energy =                       -208.0421400339144498
  @DF-RHF Final Energy:  -208.04214001187052
    Total Energy =                       -208.0421400118704014
  @DF-RHF Final Energy:  -208.04213998314725
    Total Energy =                       -208.0421399831473082
  @DF-RHF Final Energy:  -208.04213995088998
    Total Energy =                       -208.0421399508898901
  @DF-RHF Final Energy:  -208.04213991598277
    Total Energy =                       -208.0421399159827729
  @DF-RHF Final Energy:  -208.04213987841257
    Total Energy =                       -208.0421398784125131
  @DF-RHF Final Energy:  -208.04213983800389
    Total Energy =                       -208.0421398380038340
  Basis Set: CC-PVTZ
  Basis Set:
  @DF-RHF Final Energy:  -208.04213979334446
    Total Energy =                       -208.0421397933445178
  Basis Set: CC-PVTZ
  Basis Set:
  Basis Set: CC-PVTZ
  Basis Set:
  @DF-RHF Final Energy:  -208.04213967279964
    Total Energy =                       -208.0421396727996637
  Basis Set: CC-PVTZ
  Basis Set:
  Basis Set: CC-PVTZ
  Basis Set:
  @DF-RHF Final Energy:  -208.04213949728111
    Total Energy =                       -208.0421394972810560
  Basis Set: CC-PVTZ
  Basis Set:
  Charge       = 0
  Multiplicity = 1
  Basis Set: CC-PVTZ
  Basis Set:

    Orbital Energies (a.u.)
    -----------------------

    Doubly Occupied:

       1A    -20.524295     2A    -15.583557     3A    -11.338660
       4A    -11.257507     5A     -1.400141     6A     -1.238489
       7A     -0.965294     8A     -0.807255     9A     -0.746165
      10A     -0.648299    11A     -0.634307    12A     -0.590381
      13A     -0.555247    14A     -0.538619    15A     -0.433520
      16A     -0.402723

  @DF-RHF Final Energy:  -208.04213918611379

   => Energetics <=

    Nuclear Repulsion Energy =            122.9990472184702384
    One-Electron Energy =                -526.7534552062558078
    Two-Electron Energy =                 195.7122688016717689
    DFT Exchange-Correlation Energy =       0.0000000000000000
    Empirical Dispersion Energy =           0.0000000000000000
    PCM Polarization Energy =               0.0000000000000000
    EFP Energy =                            0.0000000000000000
    Total Energy =                       -208.0421391861137863
    Molecular point group: c1
  Basis Set: CC-PVTZ
  Basis Set:

  -Total Gradient:
     Atom            X                  Y                   Z
    ------   -----------------  -----------------  -----------------
       1        0.001155824383     0.001874874686    -0.003753949937
       2       -0.002161100521    -0.001787051233     0.006514849413
       3        0.002759317342    -0.000819921070    -0.007325746109
       4        0.000080040188     0.000017945624    -0.000023846072
       5        0.000242034980    -0.000120666088     0.000113822478
       6       -0.001939136247     0.000561383722     0.004426899476
       7        0.000016453861     0.000164739302     0.000077438663
       8       -0.000107393943    -0.000037128503     0.000087169547
       9       -0.000046040045     0.000145823560    -0.000116637457

    Molecular point group: c1

    Geometry (in Angstrom), charge = 0, multiplicity = 1:

    H            1.404914489343    -1.298837115398    -0.263076231955
    C            0.783605026960    -0.439542057443    -0.004260904835
    N           -0.491364559369    -0.565224233170    -0.441294530188
    O            1.232044469856     0.522305811035     0.529690356775
    C           -1.467384175568     0.455501130139    -0.112779083860
    H           -0.834930689530    -1.494692542695    -0.498248752692
    H           -2.375704560681     0.260284357514    -0.664967757457
    H           -1.084563857823     1.421174192863    -0.401856856646
    H           -1.694322713282     0.486100389890     0.946655118362

  Mulliken Charges: (a.u.)
   Center  Symbol    Alpha    Beta     Spin     Total
       1     H     0.46105  0.46105  0.00000  0.07789
       2     C     2.88109  2.88109  0.00000  0.23781
       3     N     3.60367  3.60367  0.00000 -0.20734
       4     O     4.20654  4.20654  0.00000 -0.41309
       5     C     3.08010  3.08010  0.00000 -0.16019
       6     H     0.41864  0.41864  0.00000  0.16272
       7     H     0.45261  0.45261  0.00000  0.09477
       8     H     0.44029  0.44029  0.00000  0.11942
       9     H     0.45600  0.45600  0.00000  0.08800

   Total alpha = 16.00000, Total beta = 16.00000, Total charge = -0.00000
