  ==> Input File <==

--------------------------------------------------------------------------
set {
	reference rhf
	basis 6-31G*
}

set_num_threads( 4 )
memory 2 gb

molecule MOL {
0 1

H	 -0.268612	 2.373548	 -0.703815
C	 0.557503	 1.679937	 -0.867300
N	 0.538815	 0.649616	 0.000000
O	 1.366504	 1.852249	 -1.730454
C	 1.521968	 -0.411503	 0.000000
H	 -0.192644	 0.624219	 0.672761
H	 2.150599	 -0.357004	 -0.881901
H	 0.999455	 -1.354525	 0.000000
H	 2.150599	 -0.357004	 0.881901

	symmetry c1
}
set optking {
	frozen_dihedral = ("
		6 3 5 7
	")
}

ee = optimize('scf')
oeprop('DIPOLE', 'QUADRUPOLE', 'MULLIKEN_CHARGES')
f=open( 'psi4out.xyz', 'w' )
f.write( "9  " )
f.write( str(ee) + "\n" )
f.write( MOL.save_string_xyz() )
f.close()
--------------------------------------------------------------------------

    Molecular point group: c1
  Charge       = 0
  Multiplicity = 1
  Basis Set: 6-31G*
  Basis Set:
  @DF-RHF Final Energy:  -207.96050266072015
    Total Energy =                       -207.9605026607201239
    Molecular point group: c1
  Basis Set: 6-31G*
  Basis Set:
  Basis Set: 6-31G*
  Basis Set:
  @DF-RHF Final Energy:  -207.96089269736871
    Total Energy =                       -207.9608926973687915
  Basis Set: 6-31G*
  Basis Set:
  Basis Set: 6-31G*
  Basis Set:
  @DF-RHF Final Energy:  -207.96092848941544
    Total Energy =                       -207.9609284894154086
  Basis Set: 6-31G*
  Basis Set:
  Basis Set: 6-31G*
  Basis Set:
  @DF-RHF Final Energy:  -207.96096701129744
    Total Energy =                       -207.9609670112975550
  Basis Set: 6-31G*
  Basis Set:
  Basis Set: 6-31G*
  Basis Set:
  @DF-RHF Final Energy:  -207.96098316527093
    Total Energy =                       -207.9609831652708465
  Basis Set: 6-31G*
  Basis Set:
  Basis Set: 6-31G*
  Basis Set:
  @DF-RHF Final Energy:  -207.96098746526138
    Total Energy =                       -207.9609874652613541
  Basis Set: 6-31G*
  Basis Set:
  Basis Set: 6-31G*
  Basis Set:
  @DF-RHF Final Energy:  -207.96099476198162
    Total Energy =                       -207.9609947619815955
  Basis Set: 6-31G*
  Basis Set:
  Charge       = 0
  Multiplicity = 1
  Basis Set: 6-31G*
  Basis Set:

    Orbital Energies (a.u.)
    -----------------------

    Doubly Occupied:

       1A    -20.525533     2A    -15.591113     3A    -11.344266
       4A    -11.260267     5A     -1.389027     6A     -1.236605
       7A     -0.968628     8A     -0.807287     9A     -0.746474
      10A     -0.641688    11A     -0.626245    12A     -0.593381
      13A     -0.554404    14A     -0.537132    15A     -0.423809
      16A     -0.390567

  @DF-RHF Final Energy:  -207.96099481401052

   => Energetics <=

    Nuclear Repulsion Energy =            122.4784671390836053
    One-Electron Energy =                -525.6060707943015586
    Two-Electron Energy =                 195.1666088412074487
    DFT Exchange-Correlation Energy =       0.0000000000000000
    Empirical Dispersion Energy =           0.0000000000000000
    PCM Polarization Energy =               0.0000000000000000
    EFP Energy =                            0.0000000000000000
    Total Energy =                       -207.9609948140105189
    Molecular point group: c1
  Basis Set: 6-31G*
  Basis Set:

  -Total Gradient:
     Atom            X                  Y                   Z
    ------   -----------------  -----------------  -----------------
       1       -0.000001734219     0.000010161092    -0.000006236182
       2       -0.000009500741    -0.000016944759     0.000019547532
       3       -0.000093021555    -0.000086273919    -0.000112322185
       4        0.000007990507     0.000009446227    -0.000014020419
       5       -0.000066762142    -0.000074258030    -0.000036037117
       6        0.000083137503     0.000077866554     0.000090140405
       7        0.000078714342     0.000078839273     0.000057480398
       8       -0.000003144223     0.000004522168     0.000000332689
       9        0.000004320526    -0.000003358609     0.000001114880

  **** Optimization is complete! (in 8 steps) ****
    Final optimized geometry and variables:
    Molecular point group: c1

    Geometry (in Angstrom), charge = 0, multiplicity = 1:

    H           -1.262857484549     1.452560166662    -0.065622326061
    C           -0.437778220713     0.755434319746    -0.219311884834
    N           -0.498597086737    -0.302285714266     0.612627252713
    O            0.400774512144     0.940921308202    -1.050954204084
    C            0.502250125852    -1.346372956208     0.640590491862
    H           -1.215402151276    -0.308740916385     1.301429041220
    H            1.082485421967    -1.285371747330    -0.266235415598
    H            0.026002781134    -2.318083655867     0.692049153685
    H            1.169215726588    -1.237199115965     1.489635589128

  Mulliken Charges: (a.u.)
   Center  Symbol    Alpha    Beta     Spin     Total
       1     H     0.42746  0.42746  0.00000  0.14507
       2     C     2.74497  2.74497  0.00000  0.51006
       3     N     3.87472  3.87472  0.00000 -0.74945
       4     O     4.28428  4.28428  0.00000 -0.56856
       5     C     3.14388  3.14388  0.00000 -0.28775
       6     H     0.30959  0.30959  0.00000  0.38082
       7     H     0.38724  0.38724  0.00000  0.22553
       8     H     0.41409  0.41409  0.00000  0.17183
       9     H     0.41377  0.41377  0.00000  0.17246

   Total alpha = 16.00000, Total beta = 16.00000, Total charge = -0.00000
