  ==> Input File <==

--------------------------------------------------------------------------
set {
	reference rhf
	basis cc-pvtz
}

set_num_threads( 4 )
memory 2 gb

molecule MOL {
0 1

H	 2.828711	 -0.346904	 0.001083
C	 1.876752	 0.015931	 -0.363450
C	 0.776285	 -0.474665	 0.563092
H	 1.728113	 -0.357244	 -1.367440
H	 1.906171	 1.096574	 -0.386153
N	 -0.540022	 0.017605	 0.071630
H	 0.707111	 -1.548969	 0.573035
H	 0.886169	 -0.084184	 1.560432
O	 -0.998467	 0.968827	 0.609403
O	 -1.053410	 -0.592398	 -0.805140

	symmetry c1
}
set optking {
	frozen_dihedral = ("
		9 6 3 2
	")
}

ee = optimize('scf')
oeprop('DIPOLE', 'QUADRUPOLE', 'MULLIKEN_CHARGES')
f=open( 'psi4out.xyz', 'w' )
f.write( "10  " )
f.write( str(ee) + "\n" )
f.write( MOL.save_string_xyz() )
f.close()
--------------------------------------------------------------------------

    Molecular point group: c1
  Charge       = 0
  Multiplicity = 1
  Basis Set: CC-PVTZ
  Basis Set:
  @DF-RHF Final Energy:  -282.81314363759213
    Total Energy =                       -282.8131436375922476
    Molecular point group: c1
  Basis Set: CC-PVTZ
  Basis Set:
  Basis Set: CC-PVTZ
  Basis Set:
  @DF-RHF Final Energy:  -282.80831807722103
    Total Energy =                       -282.8083180772209744
  Basis Set: CC-PVTZ
  Basis Set:
  Basis Set: CC-PVTZ
  Basis Set:
  @DF-RHF Final Energy:  -282.81322540721442
    Total Energy =                       -282.8132254072143041
  Basis Set: CC-PVTZ
  Basis Set:
  Basis Set: CC-PVTZ
  Basis Set:
  @DF-RHF Final Energy:  -282.81333652403362
    Total Energy =                       -282.8133365240335024
  Basis Set: CC-PVTZ
  Basis Set:
  Charge       = 0
  Multiplicity = 1
  Basis Set: CC-PVTZ
  Basis Set:

    Orbital Energies (a.u.)
    -----------------------

    Doubly Occupied:

       1A    -20.592899     2A    -20.590871     3A    -15.838399
       4A    -11.301857     5A    -11.250674     6A     -1.637683
       7A     -1.422071     8A     -1.126514     9A     -0.966837
      10A     -0.839655    11A     -0.763633    12A     -0.739845
      13A     -0.730169    14A     -0.659516    15A     -0.590592
      16A     -0.560390    17A     -0.549314    18A     -0.488530
      19A     -0.479356    20A     -0.454878

  @DF-RHF Final Energy:  -282.81333837113755

   => Energetics <=

    Nuclear Repulsion Energy =            186.7706452787604405
    One-Electron Energy =                -756.0006080847181238
    Two-Electron Energy =                 286.4166244348202781
    DFT Exchange-Correlation Energy =       0.0000000000000000
    Empirical Dispersion Energy =           0.0000000000000000
    PCM Polarization Energy =               0.0000000000000000
    EFP Energy =                            0.0000000000000000
    Total Energy =                       -282.8133383711374336
    Molecular point group: c1
  Basis Set: CC-PVTZ
  Basis Set:

  -Total Gradient:
     Atom            X                  Y                   Z
    ------   -----------------  -----------------  -----------------
       1       -0.000015640360    -0.000007359755     0.000004903794
       2       -0.000027334462     0.000030123748     0.000032848287
       3        0.000003024595    -0.000063296875     0.000000970201
       4       -0.000032979564    -0.000020970002     0.000032541623
       5        0.000025823710     0.000024998633    -0.000023665386
       6        0.000109239073    -0.000074050450    -0.000172190188
       7        0.000006004847    -0.000017881742     0.000036197042
       8        0.000036486122     0.000029979291    -0.000024992580
       9       -0.000093331247    -0.000026400668     0.000028727415
      10       -0.000011292714     0.000124857818     0.000084659793

  **** Optimization is complete! (in 5 steps) ****
    Final optimized geometry and variables:
    Molecular point group: c1

    Geometry (in Angstrom), charge = 0, multiplicity = 1:

    H            2.831724041993    -0.337307427776    -0.007008085640
    C            1.877651888385     0.017603814113    -0.373921002928
    C            0.781347921340    -0.469033164467     0.558940453010
    H            1.727798289327    -0.363790477513    -1.373811600801
    H            1.904213086942     1.098753485244    -0.405824625207
    N           -0.539725621506     0.017781892997     0.073702404160
    H            0.713386089766    -1.544349116987     0.568311041709
    H            0.893731557687    -0.081242913525     1.556302988355
    O           -1.000710034502     0.969806618785     0.607086921460
    O           -1.030197189381    -0.569323322332    -0.831715064124

  Mulliken Charges: (a.u.)
   Center  Symbol    Alpha    Beta     Spin     Total
       1     H     0.44797  0.44797  0.00000  0.10405
       2     C     3.14086  3.14086  0.00000 -0.28173
       3     C     3.03742  3.03742  0.00000 -0.07484
       4     H     0.43917  0.43917  0.00000  0.12167
       5     H     0.44247  0.44247  0.00000  0.11505
       6     N     3.27668  3.27668  0.00000  0.44663
       7     H     0.43575  0.43575  0.00000  0.12850
       8     H     0.43391  0.43391  0.00000  0.13218
       9     O     4.17118  4.17118  0.00000 -0.34236
      10     O     4.17458  4.17458  0.00000 -0.34917

   Total alpha = 20.00000, Total beta = 20.00000, Total charge =  0.00000
