  ==> Input File <==

--------------------------------------------------------------------------
set {
	reference rhf
	basis cc-pvtz
}

set_num_threads( 4 )
memory 2 gb

molecule MOL {
0 1

H	 -2.123894	 -0.667238	 -0.609809
O	 -2.041679	 -0.058866	 0.103463
C	 -0.959304	 0.780994	 -0.094939
C	 0.354905	 0.037902	 -0.006215
H	 -0.985899	 1.279578	 -1.057596
H	 -0.969809	 1.529522	 0.682889
F	 1.339982	 0.856003	 0.319552
F	 0.290620	 -0.896075	 0.919610
F	 0.682706	 -0.539210	 -1.137347

	symmetry c1
}
set optking {
	frozen_dihedral = ("
		7 4 3 5
	")
}

ee = optimize('scf')
oeprop('DIPOLE', 'QUADRUPOLE', 'MULLIKEN_CHARGES')
f=open( 'psi4out.xyz', 'w' )
f.write( "9  " )
f.write( str(ee) + "\n" )
f.write( MOL.save_string_xyz() )
f.close()
--------------------------------------------------------------------------

    Molecular point group: c1
  Charge       = 0
  Multiplicity = 1
  Basis Set: CC-PVTZ
  Basis Set:
  @DF-RHF Final Energy:  -450.84382857001469
    Total Energy =                       -450.8438285700143524
    Molecular point group: c1
  Basis Set: CC-PVTZ
  Basis Set:
  Basis Set: CC-PVTZ
  Basis Set:
  @DF-RHF Final Energy:  -450.84427759900859
    Total Energy =                       -450.8442775990088194
  Basis Set: CC-PVTZ
  Basis Set:
  Basis Set: CC-PVTZ
  Basis Set:
  @DF-RHF Final Energy:  -450.84438343380828
    Total Energy =                       -450.8443834338082752
  Basis Set: CC-PVTZ
  Basis Set:
  Basis Set: CC-PVTZ
  Basis Set:
  @DF-RHF Final Energy:  -450.84439591069713
    Total Energy =                       -450.8443959106972443
  Basis Set: CC-PVTZ
  Basis Set:
  Basis Set: CC-PVTZ
  Basis Set:
  @DF-RHF Final Energy:  -450.84439757869347
    Total Energy =                       -450.8443975786933606
  Basis Set: CC-PVTZ
  Basis Set:
  Charge       = 0
  Multiplicity = 1
  Basis Set: CC-PVTZ
  Basis Set:

    Orbital Energies (a.u.)
    -----------------------

    Doubly Occupied:

       1A    -26.339057     2A    -26.337763     3A    -26.333257
       4A    -20.582845     5A    -11.493086     6A    -11.310352
       7A     -1.746667     8A     -1.644122     9A     -1.640565
      10A     -1.405770    11A     -1.048199    12A     -0.929078
      13A     -0.837146    14A     -0.833953    15A     -0.808776
      16A     -0.733897    17A     -0.718744    18A     -0.702561
      19A     -0.671016    20A     -0.663686    21A     -0.647536
      22A     -0.632527    23A     -0.614607    24A     -0.534014
      25A     -0.484065

  @DF-RHF Final Energy:  -450.84439770644440

   => Energetics <=

    Nuclear Repulsion Energy =            277.2398060188136242
    One-Electron Energy =               -1176.7818347547472513
    Two-Electron Energy =                 448.6976310294891164
    DFT Exchange-Correlation Energy =       0.0000000000000000
    Empirical Dispersion Energy =           0.0000000000000000
    PCM Polarization Energy =               0.0000000000000000
    EFP Energy =                            0.0000000000000000
    Total Energy =                       -450.8443977064445107
    Molecular point group: c1
  Basis Set: CC-PVTZ
  Basis Set:

  -Total Gradient:
     Atom            X                  Y                   Z
    ------   -----------------  -----------------  -----------------
       1        0.000010316831    -0.000007059771    -0.000003900969
       2       -0.000033226559     0.000000894340     0.000017851633
       3        0.002724598239     0.005230453949     0.003932792169
       4        0.000508400713     0.000084078708    -0.006291551898
       5       -0.002419755128    -0.004521742882    -0.002119470920
       6       -0.000001810148     0.000007665047    -0.000008378603
       7       -0.000763789595    -0.000760517987     0.004575401495
       8       -0.000010182402     0.000028289576    -0.000039765320
       9       -0.000014551951    -0.000062060978    -0.000062977593

  **** Optimization is complete! (in 6 steps) ****
    Final optimized geometry and variables:
    Molecular point group: c1

    Geometry (in Angstrom), charge = 0, multiplicity = 1:

    H           -2.163747867959    -0.627454205428    -0.666512552106
    O           -2.053366320183    -0.060681981642     0.076281033852
    C           -0.964901937440     0.780290256092    -0.101363177515
    C            0.356855672249     0.035884397955    -0.007834587433
    H           -0.996839732545     1.255942960557    -1.074763191664
    H           -0.989693148744     1.525563571185     0.677276289297
    F            1.332708378706     0.868858951533     0.290351661388
    F            0.338737677746    -0.891834116285     0.918947718786
    F            0.661525323455    -0.555726132325    -1.148105298417

  Mulliken Charges: (a.u.)
   Center  Symbol    Alpha    Beta     Spin     Total
       1     H     0.38887  0.38887  0.00000  0.22227
       2     O     4.18938  4.18938  0.00000 -0.37875
       3     C     2.99458  2.99458  0.00000  0.01084
       4     C     2.68598  2.68598  0.00000  0.62805
       5     H     0.46119  0.46119  0.00000  0.07762
       6     H     0.44612  0.44612  0.00000  0.10777
       7     F     4.61225  4.61225  0.00000 -0.22451
       8     F     4.60625  4.60625  0.00000 -0.21250
       9     F     4.61539  4.61539  0.00000 -0.23079

   Total alpha = 25.00000, Total beta = 25.00000, Total charge =  0.00000
