  ==> Input File <==

--------------------------------------------------------------------------
set {
	reference rhf
	basis 6-31G*
}

set_num_threads( 4 )
memory 2 gb

molecule MOL {
0 1

O	 3.807441	 -0.195609	 -0.603291
C	 2.843464	 0.164689	 -0.000222
C	 1.546494	 -0.624492	 -0.000609
C	 2.852965	 1.443997	 0.811219
C	 0.291004	 0.242674	 0.000989
H	 1.557904	 -1.283758	 -0.867573
H	 1.558622	 -1.285963	 0.864672
C	 -0.994322	 -0.586602	 0.000262
H	 0.309117	 0.896430	 -0.865270
H	 0.309661	 0.894078	 0.869017
C	 -2.259874	 0.272531	 0.000494
H	 -1.004862	 -1.240012	 -0.870939
H	 -1.005220	 -1.241071	 0.870675
C	 -3.549786	 -0.549746	 -0.000374
H	 -2.250389	 0.926680	 -0.869574
H	 -2.250838	 0.925513	 0.871430
C	 -4.809590	 0.315458	 -0.000369
H	 -3.560515	 -1.202009	 -0.871156
H	 -3.561123	 -1.202955	 0.869711
H	 -4.844746	 0.956611	 -0.876632
H	 -5.706986	 -0.295590	 -0.001609
H	 -4.845960	 0.954827	 0.877144
H	 2.629825	 1.233615	 1.853124
H	 3.823181	 1.915315	 0.737901
H	 2.089879	 2.127232	 0.449939

	symmetry c1
}
set optking {
	frozen_dihedral = ("
		1 2 3 6
	")
}

ee = optimize('scf')
oeprop('DIPOLE', 'QUADRUPOLE', 'MULLIKEN_CHARGES')
f=open( 'psi4out.xyz', 'w' )
f.write( "25  " )
f.write( str(ee) + "\n" )
f.write( MOL.save_string_xyz() )
f.close()
--------------------------------------------------------------------------

    Molecular point group: c1
  Charge       = 0
  Multiplicity = 1
  Basis Set: 6-31G*
  Basis Set:
  @DF-RHF Final Energy:  -387.13192068770837
    Total Energy =                       -387.1319206877084298
    Molecular point group: c1
  Basis Set: 6-31G*
  Basis Set:
  Basis Set: 6-31G*
  Basis Set:
  @DF-RHF Final Energy:  -387.13193045372424
    Total Energy =                       -387.1319304537244079
  Basis Set: 6-31G*
  Basis Set:
  Basis Set: 6-31G*
  Basis Set:
  @DF-RHF Final Energy:  -387.13303511941007
    Total Energy =                       -387.1330351194093282
  Basis Set: 6-31G*
  Basis Set:
  Basis Set: 6-31G*
  Basis Set:
  @DF-RHF Final Energy:  -387.13340062372441
    Total Energy =                       -387.1334006237252652
  Basis Set: 6-31G*
  Basis Set:
  Basis Set: 6-31G*
  Basis Set:
  @DF-RHF Final Energy:  -387.13345990262309
    Total Energy =                       -387.1334599026231444
  Basis Set: 6-31G*
  Basis Set:
  Basis Set: 6-31G*
  Basis Set:
  @DF-RHF Final Energy:  -387.13349350507787
    Total Energy =                       -387.1334935050776949
  Basis Set: 6-31G*
  Basis Set:
  Basis Set: 6-31G*
  Basis Set:
  @DF-RHF Final Energy:  -387.13350459212893
    Total Energy =                       -387.1335045921284745
  Basis Set: 6-31G*
  Basis Set:
  Charge       = 0
  Multiplicity = 1
  Basis Set: 6-31G*
  Basis Set:

    Orbital Energies (a.u.)
    -----------------------

    Doubly Occupied:

       1A    -20.546821     2A    -11.324751     3A    -11.231781
       4A    -11.230123     5A    -11.227331     6A    -11.224229
       7A    -11.220667     8A    -11.219971     9A    -11.212571
      10A     -1.392683    11A     -1.101673    12A     -1.061113
      13A     -1.010445    14A     -0.971126    15A     -0.898049
      16A     -0.821698    17A     -0.797524    18A     -0.731337
      19A     -0.668761    20A     -0.647931    21A     -0.636965
      22A     -0.620282    23A     -0.600338    24A     -0.589268
      25A     -0.563928    26A     -0.560455    27A     -0.546149
      28A     -0.532462    29A     -0.518108    30A     -0.498172
      31A     -0.488434    32A     -0.476865    33A     -0.469553
      34A     -0.468977    35A     -0.458193    36A     -0.395810

  @DF-RHF Final Energy:  -387.13350543245019

   => Energetics <=

    Nuclear Repulsion Energy =            438.7286157079863642
    One-Electron Energy =               -1393.7951574805829296
    Two-Electron Energy =                 567.9330363401468276
    DFT Exchange-Correlation Energy =       0.0000000000000000
    Empirical Dispersion Energy =           0.0000000000000000
    PCM Polarization Energy =               0.0000000000000000
    EFP Energy =                            0.0000000000000000
    Total Energy =                       -387.1335054324497378
    Molecular point group: c1
  Basis Set: 6-31G*
  Basis Set:

  -Total Gradient:
     Atom            X                  Y                   Z
    ------   -----------------  -----------------  -----------------
       1        0.000434025436    -0.000710749831     0.001103430267
       2       -0.000689241790     0.001169666727    -0.001625408289
       3        0.000839795829    -0.001419374812     0.001350642786
       4       -0.000004315513     0.000040312133    -0.000092567020
       5        0.000001003342    -0.000021008399    -0.000003736623
       6       -0.000574105579     0.000985002743    -0.000766252304
       7        0.000001677420    -0.000018855994     0.000000587325
       8       -0.000009317915     0.000001269386    -0.000012509306
       9       -0.000009464177    -0.000010490164    -0.000004319309
      10        0.000002205028     0.000009438530    -0.000000188595
      11        0.000000276383     0.000001730894     0.000014326154
      12       -0.000000472481     0.000009148901    -0.000006083108
      13        0.000003814913    -0.000002453787    -0.000006829652
      14        0.000001530173    -0.000004503808     0.000005297675
      15       -0.000001417011    -0.000005730679     0.000000294575
      16        0.000002178215     0.000004101167     0.000000728870
      17        0.000003121301     0.000003296316    -0.000000010734
      18        0.000002875423     0.000000174917     0.000001368386
      19       -0.000002082590     0.000001083112     0.000000318664
      20       -0.000000017643    -0.000000350139     0.000000468368
      21        0.000002213995    -0.000000643518    -0.000000670954
      22       -0.000000648278    -0.000000483025    -0.000000613870
      23        0.000000395214    -0.000017011934     0.000004027026
      24       -0.000004549557    -0.000006208251     0.000010431545
      25        0.000000519853    -0.000007360485     0.000027268127

  **** Optimization is complete! (in 8 steps) ****
    Final optimized geometry and variables:
    Molecular point group: c1

    Geometry (in Angstrom), charge = 0, multiplicity = 1:

    O            3.815644944544    -0.318178991282    -0.657525378339
    C            2.892197448848     0.111813758194    -0.035609368144
    C            1.572140314173    -0.641568454533     0.005699128993
    C            3.024828533730     1.384998428649     0.773604486489
    C            0.304502779629     0.220029582484     0.010423273725
    H            1.569562292496    -1.310133544564    -0.847139986263
    H            1.592956542896    -1.262900755499     0.900548393400
    C           -0.969732372543    -0.626426163462    -0.019222733486
    H            0.312647555600     0.883663110685    -0.852043579336
    H            0.286875375727     0.857572689306     0.890302924358
    C           -2.248681199418     0.212406281511    -0.011505370610
    H           -0.959100858683    -1.260051731841    -0.903725924396
    H           -0.973780290810    -1.298345621255     0.837298208229
    C           -3.524261160023    -0.631515383744    -0.041705762571
    H           -2.243462666142     0.884963513291    -0.867616339113
    H           -2.259135557031     0.846345353524     0.873689698621
    C           -4.798373562691     0.212321443877    -0.034810201518
    H           -3.515716146025    -1.264720040485    -0.926210806669
    H           -3.531768432339    -1.303195996429     0.814058266354
    H           -4.837288567769     0.870798849873    -0.897952707399
    H           -5.684753834014    -0.413926513875    -0.056773447106
    H           -4.853503613655     0.832265357251     0.855609288742
    H            2.685158107701     1.233361644542     1.793866502459
    H            4.059301507347     1.698689210776     0.775543308284
    H            2.414356734533     2.173185049013     0.343739725051

  Mulliken Charges: (a.u.)
   Center  Symbol    Alpha    Beta     Spin     Total
       1     O     4.26274  4.26274  0.00000 -0.52548
       2     C     2.73114  2.73114  0.00000  0.53771
       3     C     3.20699  3.20699  0.00000 -0.41399
       4     C     3.29200  3.29200  0.00000 -0.58399
       5     C     3.16387  3.16387  0.00000 -0.32773
       6     H     0.39900  0.39900  0.00000  0.20200
       7     H     0.40721  0.40721  0.00000  0.18557
       8     C     3.15230  3.15230  0.00000 -0.30460
       9     H     0.41743  0.41743  0.00000  0.16514
      10     H     0.41908  0.41908  0.00000  0.16185
      11     C     3.15120  3.15120  0.00000 -0.30241
      12     H     0.41964  0.41964  0.00000  0.16072
      13     H     0.42200  0.42200  0.00000  0.15600
      14     C     3.15196  3.15196  0.00000 -0.30393
      15     H     0.42278  0.42278  0.00000  0.15444
      16     H     0.42377  0.42377  0.00000  0.15246
      17     C     3.23960  3.23960  0.00000 -0.47919
      18     H     0.42192  0.42192  0.00000  0.15617
      19     H     0.42253  0.42253  0.00000  0.15494
      20     H     0.42126  0.42126  0.00000  0.15748
      21     H     0.41832  0.41832  0.00000  0.16336
      22     H     0.42165  0.42165  0.00000  0.15671
      23     H     0.41043  0.41043  0.00000  0.17914
      24     H     0.39585  0.39585  0.00000  0.20829
      25     H     0.40533  0.40533  0.00000  0.18934

   Total alpha = 36.00000, Total beta = 36.00000, Total charge =  0.00000
