                              Psi4 1.0.54 Driver

  ==> Input File <==

--------------------------------------------------------------------------
set {
	reference rhf
	basis cc-pvtz
}

set_num_threads( 4 )
memory 2 gb

molecule MOL {
0 1

H	 3.416357	 -0.496667	 0.842580
N	 3.091268	 -0.241216	 -0.065538
C	 1.860978	 0.530248	 0.016256
H	 2.947854	 -1.087595	 -0.575855
C	 0.644130	 -0.381765	 -0.031064
H	 1.835721	 1.204666	 -0.833114
H	 1.808789	 1.151975	 0.911067
C	 -0.678115	 0.376691	 0.025731
H	 0.693998	 -0.977147	 -0.936845
H	 0.693309	 -1.082142	 0.800523
C	 -1.900706	 -0.535531	 -0.022488
H	 -0.725296	 1.079516	 -0.802982
H	 -0.715474	 0.974884	 0.933278
C	 -3.220513	 0.226854	 0.028039
H	 -1.865036	 -1.134397	 -0.928236
H	 -1.857948	 -1.236381	 0.806820
H	 -3.309098	 0.911849	 -0.808725
H	 -4.066838	 -0.449485	 -0.008086
H	 -3.301685	 0.809374	 0.939860

	symmetry c1
}
set optking {
	frozen_dihedral = ("
		1 2 3 6
	")
}

ee,wfn = optimize('scf', return_wfn=True)
oeprop( wfn, 'DIPOLE', 'QUADRUPOLE', 'MULLIKEN_CHARGES')
f=open( 'psi4out.xyz', 'w' )
f.write( "19  " )
f.write( str(ee) + "\n" )
f.write( MOL.save_string_xyz() )
f.close()
--------------------------------------------------------------------------

    Molecular point group: c1
  Charge       = 0
  Multiplicity = 1
  Basis Set: CC-PVTZ
  Basis Set:
  @DF-RHF Final Energy:  -251.44459801998988
    Total Energy =                       -251.4445980199897690
    Molecular point group: c1
  Basis Set: CC-PVTZ
  Basis Set:
  Basis Set: CC-PVTZ
  Basis Set:
  @DF-RHF Final Energy:  -250.91196299469178
    Total Energy =                       -250.9119629946916916
  Basis Set: CC-PVTZ
  Basis Set:
  Basis Set: CC-PVTZ
  Basis Set:
  @DF-RHF Final Energy:  -251.10752493989830
    Total Energy =                       -251.1075249398983260
  Basis Set: CC-PVTZ
  Basis Set:
  Basis Set: CC-PVTZ
  Basis Set:
  @DF-RHF Final Energy:  -251.33111627546793
    Total Energy =                       -251.3311162754680481
  Basis Set: CC-PVTZ
  Basis Set:
  @DF-RHF Final Energy:  -251.44333717413687
    Total Energy =                       -251.4433371741369569
  Basis Set: CC-PVTZ
  Basis Set:
  @DF-RHF Final Energy:  -251.44609877223340
    Total Energy =                       -251.4460987722333698
  Basis Set: CC-PVTZ
  Basis Set:
  Basis Set: CC-PVTZ
  Basis Set:
  @DF-RHF Final Energy:  -251.44656912707387
    Total Energy =                       -251.4465691270739285
  Basis Set: CC-PVTZ
  Basis Set:
  Basis Set: CC-PVTZ
  Basis Set:
  @DF-RHF Final Energy:  -251.44662545519515
    Total Energy =                       -251.4466254551950328
  Basis Set: CC-PVTZ
  Basis Set:
  Charge       = 0
  Multiplicity = 1
  Basis Set: CC-PVTZ
  Basis Set:

    Orbital Energies (a.u.)
    -----------------------

    Doubly Occupied:

       1A    -15.524094     2A    -11.237712     3A    -11.214282
       4A    -11.212818     5A    -11.211119     6A    -11.207140
       7A     -1.176435     8A     -1.076242     9A     -1.000586
      10A     -0.901842    11A     -0.819307    12A     -0.792565
      13A     -0.677704    14A     -0.639980    15A     -0.601755
      16A     -0.589863    17A     -0.572598    18A     -0.557918
      19A     -0.522651    20A     -0.503656    21A     -0.481488
      22A     -0.469428    23A     -0.466292    24A     -0.462650
      25A     -0.375229

  @DF-RHF Final Energy:  -251.44662671978787

   => Energetics <=

    Nuclear Repulsion Energy =            245.8349369314391026
    One-Electron Energy =                -825.9724202034806240
    Two-Electron Energy =                 328.6908565522536492
    DFT Exchange-Correlation Energy =       0.0000000000000000
    Empirical Dispersion Energy =           0.0000000000000000
    PCM Polarization Energy =               0.0000000000000000
    EFP Energy =                            0.0000000000000000
    Total Energy =                       -251.4466267197879006
    Molecular point group: c1
  Basis Set: CC-PVTZ
  Basis Set:

  -Total Gradient:
     Atom            X                  Y                   Z
    ------   -----------------  -----------------  -----------------
       1        0.001523745908     0.002283799278    -0.001249329656
       2       -0.001693566283    -0.002299333659     0.001524150563
       3       -0.000920865150    -0.002490753859    -0.000498943275
       4        0.000003977518     0.000031917243     0.000010496553
       5        0.000016840178    -0.000005148089    -0.000004671124
       6        0.001118583340     0.002483455276     0.000211909655
       7        0.000010511528     0.000024331344    -0.000008594809
       8        0.000021531150    -0.000016539479     0.000017363420
       9       -0.000015684568    -0.000014264410     0.000005416267
      10       -0.000007794504    -0.000002669883     0.000003425471
      11       -0.000012175075     0.000018405616    -0.000022593465
      12       -0.000000506145     0.000005644655    -0.000001284082
      13        0.000002803863     0.000004284054     0.000000420360
      14       -0.000017501647    -0.000017473739     0.000006812707
      15       -0.000001441766    -0.000004812917     0.000005386893
      16       -0.000005915942    -0.000001423333    -0.000001465582
      17        0.000005022747     0.000001381891     0.000007320696
      18       -0.000032904758    -0.000002033807    -0.000002889218
      19        0.000005339604     0.000001233817    -0.000002931372

  **** Optimization is complete! (in 9 steps) ****
    Final optimized geometry and variables:
    Molecular point group: c1

    Geometry (in Angstrom), charge = 0, multiplicity = 1:

    H            3.339497747892     0.175800225218     1.301809942975
    N            3.122325273892    -0.159717222176     0.389587219036
    C            1.885722139870     0.411252191502    -0.117637620426
    H            3.097486907349    -1.156066119127     0.414290852177
    C            0.611925781427    -0.323269469861     0.288113243001
    H            1.948334926036     0.474170324093    -1.199920237988
    H            1.833543172173     1.438827167884     0.227471437447
    C           -0.655360779667     0.309214390115    -0.278843388654
    H            0.679240004265    -1.356958704560    -0.045755048378
    H            0.551948172037    -0.355006324598     1.373511026585
    C           -1.931891188322    -0.429164317666     0.114433343690
    H           -0.584410602581     0.346880476809    -1.363304647814
    H           -0.722857708081     1.341753992472     0.056294827798
    C           -3.194184359441     0.209466676385    -0.455161209496
    H           -1.867274442200    -1.460419593172    -0.221721761383
    H           -2.005043114903    -0.466782068261     1.197904782291
    H           -3.166961195876     0.230351906171    -1.539567842362
    H           -4.080825773123    -0.338589380703    -0.157523227799
    H           -3.305853114783     1.231749340188    -0.109246633438

  Mulliken Charges: (a.u.)
   Center  Symbol    Alpha    Beta     Spin     Total
       1     H     0.42892  0.42892  0.00000  0.14215
       2     N     3.69641  3.69641  0.00000 -0.39283
       3     C     3.02410  3.02410  0.00000 -0.04820
       4     H     0.42878  0.42878  0.00000  0.14244
       5     C     3.08719  3.08719  0.00000 -0.17438
       6     H     0.45527  0.45527  0.00000  0.08945
       7     H     0.45734  0.45734  0.00000  0.08533
       8     C     3.09462  3.09462  0.00000 -0.18924
       9     H     0.45891  0.45891  0.00000  0.08218
      10     H     0.45860  0.45860  0.00000  0.08279
      11     C     3.08294  3.08294  0.00000 -0.16589
      12     H     0.45441  0.45441  0.00000  0.09118
      13     H     0.45484  0.45484  0.00000  0.09032
      14     C     3.14986  3.14986  0.00000 -0.29973
      15     H     0.45448  0.45448  0.00000  0.09103
      16     H     0.45468  0.45468  0.00000  0.09064
      17     H     0.45495  0.45495  0.00000  0.09009
      18     H     0.44849  0.44849  0.00000  0.10301
      19     H     0.45518  0.45518  0.00000  0.08964

   Total alpha = 25.00000, Total beta = 25.00000, Total charge = -0.00000

*** Psi4 exiting successfully. Buy a developer a beer!
