  ==> Input File <==

--------------------------------------------------------------------------
set {
	reference rhf
	basis 6-31G*
}

set_num_threads( 4 )
memory 2 gb

molecule MOL {
0 1

H	 -2.783374	 -0.548071	 1.014603
C	 -2.702455	 -0.200716	 -0.013472
O	 -1.373620	 -0.049991	 -0.396637
H	 -3.149040	 -0.936654	 -0.667764
H	 -3.254752	 0.733495	 -0.106460
C	 -0.664241	 0.880051	 0.359043
C	 0.782885	 0.876356	 -0.074569
H	 -1.078794	 1.878719	 0.215856
H	 -0.721490	 0.641881	 1.419233
O	 1.392611	 -0.295398	 0.366430
H	 0.832532	 0.954168	 -1.158768
H	 1.286054	 1.746740	 0.348451
C	 2.706965	 -0.449871	 -0.062409
H	 2.756559	 -0.644779	 -1.131878
H	 3.305899	 0.433456	 0.155466
H	 3.125548	 -1.294566	 0.467107

	symmetry c1
}
set optking {
	frozen_dihedral = ("
		7 10 13 14
	")
}

ee = optimize('scf')
oeprop('DIPOLE', 'QUADRUPOLE', 'MULLIKEN_CHARGES')
f=open( 'psi4out.xyz', 'w' )
f.write( "16  " )
f.write( str(ee) + "\n" )
f.write( MOL.save_string_xyz() )
f.close()
--------------------------------------------------------------------------

    Molecular point group: c1
  Charge       = 0
  Multiplicity = 1
  Basis Set: 6-31G*
  Basis Set:
  @DF-RHF Final Energy:  -306.97750936864384
    Total Energy =                       -306.9775093686439504
    Molecular point group: c1
  Basis Set: 6-31G*
  Basis Set:
  Basis Set: 6-31G*
  Basis Set:
  @DF-RHF Final Energy:  -306.97751805582845
    Total Energy =                       -306.9775180558286252
  Basis Set: 6-31G*
  Basis Set:
  Charge       = 0
  Multiplicity = 1
  Basis Set: 6-31G*
  Basis Set:

    Orbital Energies (a.u.)
    -----------------------

    Doubly Occupied:

       1A    -20.553565     2A    -20.553344     3A    -11.269048
       4A    -11.268387     5A    -11.263524     6A    -11.263456
       7A     -1.388098     8A     -1.370486     9A     -1.030799
      10A     -0.936055    11A     -0.891946    12A     -0.823946
      13A     -0.684078    14A     -0.680457    15A     -0.656740
      16A     -0.635406    17A     -0.629971    18A     -0.596896
      19A     -0.550638    20A     -0.536208    21A     -0.508583
      22A     -0.477390    23A     -0.462611    24A     -0.419490
      25A     -0.410514

  @DF-RHF Final Energy:  -306.97751884983660

   => Energetics <=

    Nuclear Repulsion Energy =            258.8080187401723720
    One-Electron Energy =                -931.8478017526242638
    Two-Electron Energy =                 366.0622641626152927
    DFT Exchange-Correlation Energy =       0.0000000000000000
    Empirical Dispersion Energy =           0.0000000000000000
    PCM Polarization Energy =               0.0000000000000000
    EFP Energy =                            0.0000000000000000
    Total Energy =                       -306.9775188498365424
    Molecular point group: c1
  Basis Set: 6-31G*
  Basis Set:

  -Total Gradient:
     Atom            X                  Y                   Z
    ------   -----------------  -----------------  -----------------
       1        0.000000256657    -0.000000970992     0.000000302274
       2        0.000007238169     0.000010322262     0.000001285147
       3       -0.000000930326    -0.000000040980    -0.000003643097
       4        0.000006034756     0.000000635448    -0.000000313581
       5       -0.000002928894    -0.000000507584     0.000000585301
       6       -0.000002395161    -0.000013763939    -0.000003323057
       7        0.000355319886     0.000542740447     0.000950735986
       8        0.000005041122    -0.000003069013    -0.000005756693
       9        0.000004352299     0.000003146242     0.000004709604
      10       -0.000497656662    -0.001113832987    -0.001241897986
      11       -0.000001738942    -0.000006307956    -0.000005786153
      12       -0.000014062260     0.000009854069    -0.000008650339
      13        0.000223625563     0.001966538783     0.000052264032
      14       -0.000077633487    -0.001399643232     0.000246271924
      15       -0.000021718794     0.000007218460     0.000029633287
      16        0.000017196074    -0.000002319028    -0.000016416650

  **** Optimization is complete! (in 3 steps) ****
    Final optimized geometry and variables:
    Molecular point group: c1

    Geometry (in Angstrom), charge = 0, multiplicity = 1:

    H           -2.806244340458    -0.668873267247     0.986142475306
    C           -2.725714393535    -0.321703399601    -0.042027624539
    O           -1.397043432088    -0.169994440293    -0.425541284171
    H           -3.172003575030    -1.058015377257    -0.696078375750
    H           -3.278294260226     0.612269112896    -0.135035536896
    C           -0.688190478028     0.760845799188     0.329724249752
    C            0.758897638110     0.758161586409    -0.103842335436
    H           -1.103717618824     1.759120981349     0.186678311225
    H           -0.744940885291     0.522627969612     1.389911694948
    O            1.369912699115    -0.412510941221     0.338976892073
    H            0.807713102033     0.835534915818    -1.188181719186
    H            1.261931999770     1.628743703075     0.318388834485
    C            2.684195276033    -0.568477129538    -0.090955556928
    H            2.731382985251    -0.766030405752    -1.159921277888
    H            3.287614029208     0.309935228127     0.131546449975
    H            3.099605961525    -1.417863393805     0.434259567639

  Mulliken Charges: (a.u.)
   Center  Symbol    Alpha    Beta     Spin     Total
       1     H     0.42807  0.42807  0.00000  0.14387
       2     C     3.07951  3.07951  0.00000 -0.15901
       3     O     4.30090  4.30090  0.00000 -0.60181
       4     H     0.41129  0.41129  0.00000  0.17743
       5     H     0.43188  0.43188  0.00000  0.13624
       6     C     2.99337  2.99337  0.00000  0.01327
       7     C     2.99345  2.99345  0.00000  0.01309
       8     H     0.43228  0.43228  0.00000  0.13544
       9     H     0.42276  0.42276  0.00000  0.15448
      10     O     4.30114  4.30114  0.00000 -0.60229
      11     H     0.42290  0.42290  0.00000  0.15419
      12     H     0.43202  0.43202  0.00000  0.13596
      13     C     3.07938  3.07938  0.00000 -0.15876
      14     H     0.42685  0.42685  0.00000  0.14631
      15     H     0.43225  0.43225  0.00000  0.13550
      16     H     0.41195  0.41195  0.00000  0.17610

   Total alpha = 25.00000, Total beta = 25.00000, Total charge =  0.00000
