  ==> Input File <==

--------------------------------------------------------------------------
set {
	reference rhf
	basis 6-31G*
}

set_num_threads( 4 )
memory 2 gb

molecule MOL {
0 1

H	 2.176868	 -0.646004	 -0.217325
O	 1.337496	 -0.537251	 0.205931
C	 0.702312	 0.627605	 -0.264544
C	 -0.714990	 0.596302	 0.266387
H	 0.682322	 0.642550	 -1.350929
H	 1.215941	 1.520383	 0.085680
O	 -1.405996	 -0.526611	 -0.195820
H	 -1.257453	 1.468809	 -0.075599
H	 -0.688972	 0.618407	 1.353696
H	 -2.324319	 -0.296136	 -0.255644

	symmetry c1
}
set optking {
	frozen_dihedral = ("
		10 7 4 3
	")
}

ee = optimize('scf')
oeprop('DIPOLE', 'QUADRUPOLE', 'MULLIKEN_CHARGES')
f=open( 'psi4out.xyz', 'w' )
f.write( "10  " )
f.write( str(ee) + "\n" )
f.write( MOL.save_string_xyz() )
f.close()
--------------------------------------------------------------------------

    Molecular point group: c1
  Charge       = 0
  Multiplicity = 1
  Basis Set: 6-31G*
  Basis Set:
  @DF-RHF Final Energy:  -228.91612386028027
    Total Energy =                       -228.9161238602802371
    Molecular point group: c1
  Basis Set: 6-31G*
  Basis Set:
  Basis Set: 6-31G*
  Basis Set:
  @DF-RHF Final Energy:  -228.91776971885821
    Total Energy =                       -228.9177697188581533
  Basis Set: 6-31G*
  Basis Set:
  Basis Set: 6-31G*
  Basis Set:
  @DF-RHF Final Energy:  -228.91797418445793
    Total Energy =                       -228.9179741844579610
  Basis Set: 6-31G*
  Basis Set:
  Basis Set: 6-31G*
  Basis Set:
  @DF-RHF Final Energy:  -228.91799070972309
    Total Energy =                       -228.9179907097229716
  Basis Set: 6-31G*
  Basis Set:
  Basis Set: 6-31G*
  Basis Set:
  @DF-RHF Final Energy:  -228.91799290488638
    Total Energy =                       -228.9179929048863755
  Basis Set: 6-31G*
  Basis Set:
  Charge       = 0
  Multiplicity = 1
  Basis Set: 6-31G*
  Basis Set:

    Orbital Energies (a.u.)
    -----------------------

    Doubly Occupied:

       1A    -20.551995     2A    -20.551889     3A    -11.270369
       4A    -11.269466     5A     -1.370114     6A     -1.349888
       7A     -1.001920     8A     -0.831232     9A     -0.719010
      10A     -0.697779    11A     -0.626042    12A     -0.596423
      13A     -0.580265    14A     -0.518671    15A     -0.482713
      16A     -0.443127    17A     -0.431803

  @DF-RHF Final Energy:  -228.91799332415300

   => Energetics <=

    Nuclear Repulsion Energy =            133.3102119200881646
    One-Electron Energy =                -577.8710002174417468
    Two-Electron Energy =                 215.6427949732005516
    DFT Exchange-Correlation Energy =       0.0000000000000000
    Empirical Dispersion Energy =           0.0000000000000000
    PCM Polarization Energy =               0.0000000000000000
    EFP Energy =                            0.0000000000000000
    Total Energy =                       -228.9179933241530591
    Molecular point group: c1
  Basis Set: 6-31G*
  Basis Set:

  -Total Gradient:
     Atom            X                  Y                   Z
    ------   -----------------  -----------------  -----------------
       1        0.000018521626    -0.000011843521     0.000011751179
       2       -0.000024556181     0.000026243491    -0.000034620202
       3       -0.000329257341     0.000703357354    -0.000928315454
       4        0.000556933314    -0.000788952279     0.000914889471
       5        0.000000519014     0.000002087903    -0.000023601792
       6       -0.000005691369    -0.000014376430    -0.000008203897
       7       -0.000485561359    -0.000630221820     0.001904334290
       8       -0.000008216103    -0.000017433280    -0.000001055726
       9       -0.000003435182     0.000012455486     0.000013166909
      10        0.000280743583     0.000718683096    -0.001848344779

  **** Optimization is complete! (in 6 steps) ****
    Final optimized geometry and variables:
    Molecular point group: c1

    Geometry (in Angstrom), charge = 0, multiplicity = 1:

    H            2.221279621387    -0.640531330640    -0.200279704986
    O            1.412590388382    -0.514486657669     0.274405733308
    C            0.707050460326     0.566019311110    -0.269402148026
    C           -0.699701292970     0.559734677396     0.283107180043
    H            0.656182885643     0.500486664659    -1.352867344343
    H            1.184662589427     1.509210127935    -0.005685319071
    O           -1.411828897119    -0.522985838815    -0.254174045137
    H           -1.172450223020     1.503868167512     0.018916014516
    H           -0.659044267265     0.494279489530     1.366662769947
    H           -2.330221301788    -0.306031605685    -0.311021457429

  Mulliken Charges: (a.u.)
   Center  Symbol    Alpha    Beta     Spin     Total
       1     H     0.27980  0.27980  0.00000  0.44039
       2     O     4.36555  4.36555  0.00000 -0.73110
       3     C     2.99757  2.99757  0.00000  0.00486
       4     C     3.00085  3.00085  0.00000 -0.00171
       5     H     0.42496  0.42496  0.00000  0.15007
       6     H     0.43285  0.43285  0.00000  0.13430
       7     O     4.36628  4.36628  0.00000 -0.73255
       8     H     0.43333  0.43333  0.00000  0.13334
       9     H     0.41868  0.41868  0.00000  0.16263
      10     H     0.28012  0.28012  0.00000  0.43976

   Total alpha = 17.00000, Total beta = 17.00000, Total charge = -0.00000
