                              Psi4 1.0.54 Driver

  ==> Input File <==

--------------------------------------------------------------------------
set {
	reference rhf
	basis cc-pvtz
}

set_num_threads( 4 )
memory 2 gb

molecule MOL {
0 1

H	 4.535425	 0.317158	 0.796232
C	 3.708859	 -0.317158	 0.498676
C	 2.405276	 0.471509	 0.440997
H	 3.952062	 -0.742868	 -0.469137
H	 3.645986	 -1.132804	 1.211267
C	 1.215950	 -0.382441	 0.027187
H	 2.499234	 1.296719	 -0.256115
H	 2.207371	 0.911269	 1.415688
N	 0.000002	 0.398953	 -0.040851
H	 1.401489	 -0.802380	 -0.956884
H	 1.123511	 -1.230921	 0.711747
C	 -1.215959	 -0.382435	 0.027143
H	 -0.000012	 1.086078	 0.683841
C	 -2.451944	 0.502410	 -0.038737
H	 -1.221867	 -1.069392	 -0.813828
H	 -1.259993	 -0.999709	 0.929424
C	 -3.752217	 -0.292550	 0.005776
H	 -2.407325	 1.093801	 -0.946480
H	 -2.431979	 1.206234	 0.790023
H	 -3.817783	 -0.982946	 -0.828547
H	 -4.612613	 0.364348	 -0.042306
H	 -3.830160	 -0.871666	 0.919868

	symmetry c1
}
set optking {
	frozen_dihedral = ("
		10 6 9 12
	")
}

ee,wfn = optimize('scf', return_wfn=True)
oeprop( wfn, 'DIPOLE', 'QUADRUPOLE', 'MULLIKEN_CHARGES')
f=open( 'psi4out.xyz', 'w' )
f.write( "22  " )
f.write( str(ee) + "\n" )
f.write( MOL.save_string_xyz() )
f.close()
--------------------------------------------------------------------------

    Molecular point group: c1
  Charge       = 0
  Multiplicity = 1
  Basis Set: CC-PVTZ
  Basis Set:
  @DF-RHF Final Energy:  -290.48887554186990
    Total Energy =                       -290.4888755418699020
    Molecular point group: c1
  Basis Set: CC-PVTZ
  Basis Set:
  Basis Set: CC-PVTZ
  Basis Set:
  @DF-RHF Final Energy:  -290.48898979902998
    Total Energy =                       -290.4889897990303780
  Basis Set: CC-PVTZ
  Basis Set:
  Basis Set: CC-PVTZ
  Basis Set:
  @DF-RHF Final Energy:  -290.48900720621623
    Total Energy =                       -290.4890072062160016
  Basis Set: CC-PVTZ
  Basis Set:
  Basis Set: CC-PVTZ
  Basis Set:
  @DF-RHF Final Energy:  -290.48900826865770
    Total Energy =                       -290.4890082686575852
  Basis Set: CC-PVTZ
  Basis Set:
  Charge       = 0
  Multiplicity = 1
  Basis Set: CC-PVTZ
  Basis Set:

    Orbital Energies (a.u.)
    -----------------------

    Doubly Occupied:

       1A    -15.527873     2A    -11.236004     3A    -11.235987
       4A    -11.214275     5A    -11.211415     6A    -11.208800
       7A    -11.207338     8A     -1.207010     9A     -1.061061
      10A     -1.027407    11A     -0.928995    12A     -0.868534
      13A     -0.813059    14A     -0.794657    15A     -0.665886
      16A     -0.630936    17A     -0.616357    18A     -0.615183
      19A     -0.574040    20A     -0.562735    21A     -0.535063
      22A     -0.526796    23A     -0.515503    24A     -0.485866
      25A     -0.482152    26A     -0.474226    27A     -0.467649
      28A     -0.451550    29A     -0.362437

  @DF-RHF Final Energy:  -290.48900837276676

   => Energetics <=

    Nuclear Repulsion Energy =            313.8199846817556136
    One-Electron Energy =               -1013.6003929270144681
    Two-Electron Energy =                 409.2913998724923204
    DFT Exchange-Correlation Energy =       0.0000000000000000
    Empirical Dispersion Energy =           0.0000000000000000
    PCM Polarization Energy =               0.0000000000000000
    EFP Energy =                            0.0000000000000000
    Total Energy =                       -290.4890083727665342
    Molecular point group: c1
  Basis Set: CC-PVTZ
  Basis Set:

  -Total Gradient:
     Atom            X                  Y                   Z
    ------   -----------------  -----------------  -----------------
       1       -0.000004362018    -0.000002248586     0.000001731062
       2        0.000004761993    -0.000017355685    -0.000000878521
       3        0.000019889780     0.000025358880     0.000000473100
       4       -0.000000081057     0.000000366226     0.000009811196
       5        0.000007229927     0.000003832034    -0.000006295423
       6       -0.002092202252    -0.003043982292     0.001890039711
       7       -0.000010485458    -0.000007745320     0.000005467495
       8       -0.000005218555    -0.000003560145    -0.000012297376
       9        0.000415732502     0.000295787383    -0.003578293163
      10        0.001682466390     0.002511709515    -0.000725591442
      11        0.000006515762     0.000006960995    -0.000008207259
      12       -0.000006079084     0.000221193154     0.002417198526
      13       -0.000014805036     0.000012990485     0.000006657087
      14       -0.000001670881     0.000003434531    -0.000001016288
      15        0.000002309066    -0.000001972473    -0.000000935154
      16        0.000000909646    -0.000006122900     0.000002126029
      17       -0.000002925608    -0.000000176793     0.000001349449
      18       -0.000001032196     0.000000969368     0.000001256571
      19       -0.000002131237    -0.000000076328    -0.000001435650
      20        0.000000201002     0.000000885659     0.000000208378
      21        0.000000935839    -0.000001073684    -0.000000108263
      22        0.000000041472     0.000000825976    -0.000001260066

  **** Optimization is complete! (in 5 steps) ****
    Final optimized geometry and variables:
    Molecular point group: c1

    Geometry (in Angstrom), charge = 0, multiplicity = 1:

    H            4.558195061874     0.336411459789     0.617419334020
    C            3.731417784245    -0.299785928657     0.324511451778
    C            2.419009066194     0.475827354142     0.316242900375
    H            3.955451100222    -0.700384884295    -0.658249491409
    H            3.693063874828    -1.131893185686     1.019527340011
    C            1.226897190123    -0.383017015512    -0.083467880584
    H            2.489462008682     1.313778735743    -0.369444217217
    H            2.242903748740     0.895595699081     1.303929839563
    N            0.011906004519     0.404328025559    -0.158850710988
    H            1.426411613419    -0.805351325905    -1.064256906121
    H            1.133046002251    -1.216450940596     0.616289154508
    C           -1.207111491099    -0.374527917127    -0.102159961797
    H            0.005004912773     1.074473424106     0.581520746688
    C           -2.440646811162     0.510775731866    -0.197518362168
    H           -1.202144633868    -1.072104047436    -0.934882675386
    H           -1.263379872439    -0.981077663353     0.806225933257
    C           -3.742736270822    -0.281325895804    -0.155227761191
    H           -2.384324821678     1.087282556832    -1.114061233248
    H           -2.428827385641     1.228175301721     0.619722767688
    H           -3.799212849975    -0.986051867312    -0.978169631464
    H           -4.601384253602     0.375918639586    -0.225252958931
    H           -3.832871428255    -0.844354363538     0.767783695278

  Mulliken Charges: (a.u.)
   Center  Symbol    Alpha    Beta     Spin     Total
       1     H     0.44764  0.44764  0.00000  0.10471
       2     C     3.15305  3.15305  0.00000 -0.30611
       3     C     3.08481  3.08481  0.00000 -0.16963
       4     H     0.45408  0.45408  0.00000  0.09183
       5     H     0.45558  0.45558  0.00000  0.08885
       6     C     3.01762  3.01762  0.00000 -0.03524
       7     H     0.44840  0.44840  0.00000  0.10319
       8     H     0.46008  0.46008  0.00000  0.07984
       9     N     3.63762  3.63762  0.00000 -0.27524
      10     H     0.45964  0.45964  0.00000  0.08072
      11     H     0.47623  0.47623  0.00000  0.04755
      12     C     3.02355  3.02355  0.00000 -0.04709
      13     H     0.44783  0.44783  0.00000  0.10434
      14     C     3.08048  3.08048  0.00000 -0.16096
      15     H     0.45881  0.45881  0.00000  0.08238
      16     H     0.47367  0.47367  0.00000  0.05266
      17     C     3.15341  3.15341  0.00000 -0.30682
      18     H     0.44898  0.44898  0.00000  0.10204
      19     H     0.45977  0.45977  0.00000  0.08047
      20     H     0.45475  0.45475  0.00000  0.09050
      21     H     0.44773  0.44773  0.00000  0.10453
      22     H     0.45627  0.45627  0.00000  0.08746

   Total alpha = 29.00000, Total beta = 29.00000, Total charge =  0.00000

*** Psi4 exiting successfully. Buy a developer a beer!
