  ==> Input File <==

--------------------------------------------------------------------------
set {
	reference rhf
	basis 6-31G*
}

set_num_threads( 1 )
memory 2 gb

molecule MOL {
0 1

O	 3.098794	 0.968299	 0.843446
C	 2.843464	 0.164689	 -0.000222
C	 1.546494	 -0.624492	 -0.000609
C	 3.806110	 -0.121483	 -1.134495
C	 0.291004	 0.242674	 0.000989
H	 1.557904	 -1.283758	 -0.867573
H	 1.558622	 -1.285963	 0.864672
C	 -0.994322	 -0.586602	 0.000262
H	 0.309117	 0.896430	 -0.865270
H	 0.309661	 0.894078	 0.869017
C	 -2.259874	 0.272531	 0.000494
H	 -1.004862	 -1.240012	 -0.870939
H	 -1.005220	 -1.241071	 0.870675
C	 -3.549786	 -0.549746	 -0.000374
H	 -2.250389	 0.926680	 -0.869574
H	 -2.250838	 0.925513	 0.871430
C	 -4.809590	 0.315458	 -0.000369
H	 -3.560515	 -1.202009	 -0.871156
H	 -3.561123	 -1.202955	 0.869711
H	 -4.844746	 0.956611	 -0.876632
H	 -5.706986	 -0.295590	 -0.001609
H	 -4.845960	 0.954827	 0.877144
H	 3.333893	 0.078457	 -2.091915
H	 4.686835	 0.496819	 -1.030287
H	 4.095612	 -1.168291	 -1.130444

	symmetry c1
}
set optking {
	frozen_dihedral = ("
		9 5 8 12,
		15 11 8 12,
		15 11 14 18,
		9 5 3 6
	")
}

ee = energy('scf')
oeprop('DIPOLE', 'QUADRUPOLE', 'MULLIKEN_CHARGES')
f=open( 'psi4out.xyz', 'w' )
f.write( "25  " )
f.write( str(ee) + "\n" )
f.write( MOL.save_string_xyz() )
f.close()
--------------------------------------------------------------------------

    Molecular point group: c1

    Geometry (in Angstrom), charge = 0, multiplicity = 1:

       Center              X                  Y                   Z               Mass
    ------------   -----------------  -----------------  -----------------  -----------------
           O          3.108434762527     0.952437789147     0.877843948709    15.994914619560
           C          2.853104762527     0.148827789147     0.034175948709    12.000000000000
           C          1.556134762527    -0.640353210853     0.033788948709    12.000000000000
           C          3.815750762527    -0.137344210853    -1.100097051291    12.000000000000
           C          0.300644762527     0.226812789147     0.035386948709    12.000000000000
           H          1.567544762527    -1.299619210853    -0.833175051291     1.007825032070
           H          1.568262762527    -1.301824210853     0.899069948709     1.007825032070
           C         -0.984681237473    -0.602463210853     0.034659948709    12.000000000000
           H          0.318757762527     0.880568789147    -0.830872051291     1.007825032070
           H          0.319301762527     0.878216789147     0.903414948709     1.007825032070
           C         -2.250233237473     0.256669789147     0.034891948709    12.000000000000
           H         -0.995221237473    -1.255873210853    -0.836541051291     1.007825032070
           H         -0.995579237473    -1.256932210853     0.905072948709     1.007825032070
           C         -3.540145237473    -0.565607210853     0.034023948709    12.000000000000
           H         -2.240748237473     0.910818789147    -0.835176051291     1.007825032070
           H         -2.241197237473     0.909651789147     0.905827948709     1.007825032070
           C         -4.799949237473     0.299596789147     0.034028948709    12.000000000000
           H         -3.550874237473    -1.217870210853    -0.836758051291     1.007825032070
           H         -3.551482237473    -1.218816210853     0.904108948709     1.007825032070
           H         -4.835105237473     0.940749789147    -0.842234051291     1.007825032070
           H         -5.697345237473    -0.311451210853     0.032788948709     1.007825032070
           H         -4.836319237473     0.938965789147     0.911541948709     1.007825032070
           H          3.343533762527     0.062595789147    -2.057517051291     1.007825032070
           H          4.696475762527     0.480957789147    -0.995889051291     1.007825032070
           H          4.105252762527    -1.184152210853    -1.096046051291     1.007825032070

  Charge       = 0
  Multiplicity = 1
  Basis Set: 6-31G*
  Basis Set:

    Orbital Energies (a.u.)
    -----------------------

    Doubly Occupied:

       1A    -20.548391     2A    -11.325304     3A    -11.230249
       4A    -11.227648     5A    -11.225414     6A    -11.220661
       7A    -11.217633     8A    -11.216572     9A    -11.210123
      10A     -1.393936    11A     -1.097461    12A     -1.058538
      13A     -1.014015    14A     -0.970119    15A     -0.893052
      16A     -0.817660    17A     -0.794097    18A     -0.731399
      19A     -0.664754    20A     -0.648159    21A     -0.636352
      22A     -0.614039    23A     -0.600595    24A     -0.586095
      25A     -0.568983    26A     -0.558957    27A     -0.541911
      28A     -0.536187    29A     -0.509733    30A     -0.495949
      31A     -0.488558    32A     -0.473866    33A     -0.466995
      34A     -0.465364    35A     -0.453066    36A     -0.396120

  @DF-RHF Final Energy:  -387.13400587311662

   => Energetics <=

    Nuclear Repulsion Energy =            438.0996959586334469
    One-Electron Energy =               -1392.6715543315071955
    Two-Electron Energy =                 567.4378524997589466
    DFT Exchange-Correlation Energy =       0.0000000000000000
    Empirical Dispersion Energy =           0.0000000000000000
    PCM Polarization Energy =               0.0000000000000000
    EFP Energy =                            0.0000000000000000
    Total Energy =                       -387.1340058731148019

  Mulliken Charges: (a.u.)
   Center  Symbol    Alpha    Beta     Spin     Total
       1     O     4.26223  4.26223  0.00000 -0.52445
       2     C     2.73425  2.73425  0.00000  0.53150
       3     C     3.20499  3.20499  0.00000 -0.40998
       4     C     3.29064  3.29064  0.00000 -0.58129
       5     C     3.15564  3.15564  0.00000 -0.31128
       6     H     0.41721  0.41721  0.00000  0.16558
       7     H     0.40257  0.40257  0.00000  0.19487
       8     C     3.15336  3.15336  0.00000 -0.30671
       9     H     0.41973  0.41973  0.00000  0.16054
      10     H     0.40462  0.40462  0.00000  0.19075
      11     C     3.15144  3.15144  0.00000 -0.30287
      12     H     0.42376  0.42376  0.00000  0.15248
      13     H     0.42149  0.42149  0.00000  0.15703
      14     C     3.15180  3.15180  0.00000 -0.30361
      15     H     0.42341  0.42341  0.00000  0.15317
      16     H     0.42144  0.42144  0.00000  0.15711
      17     C     3.23946  3.23946  0.00000 -0.47892
      18     H     0.42337  0.42337  0.00000  0.15326
      19     H     0.42261  0.42261  0.00000  0.15479
      20     H     0.42161  0.42161  0.00000  0.15677
      21     H     0.41902  0.41902  0.00000  0.16196
      22     H     0.42096  0.42096  0.00000  0.15809
      23     H     0.40855  0.40855  0.00000  0.18290
      24     H     0.39767  0.39767  0.00000  0.20466
      25     H     0.40818  0.40818  0.00000  0.18363

   Total alpha = 36.00000, Total beta = 36.00000, Total charge = -0.00000
