  ==> Input File <==

--------------------------------------------------------------------------
set {
	reference rhf
	basis cc-pvtz
}

set_num_threads( 4 )
memory 2 gb

molecule MOL {
0 1

H	 2.190573	 -0.629143	 -0.208718
O	 1.355408	 -0.529451	 0.208662
C	 0.700177	 0.619554	 -0.266242
C	 -0.713111	 0.588314	 0.266177
H	 0.678680	 0.627133	 -1.351786
H	 1.199747	 1.521489	 0.077736
O	 -1.421673	 -0.521378	 -0.196983
H	 -1.244794	 1.469161	 -0.069059
H	 -0.685100	 0.604721	 1.352683
H	 -1.201567	 -0.660796	 -1.101493

	symmetry c1
}
set optking {
	frozen_dihedral = ("
		10 7 4 3
	")
}

ee = optimize('scf')
oeprop('DIPOLE', 'QUADRUPOLE', 'MULLIKEN_CHARGES')
f=open( 'psi4out.xyz', 'w' )
f.write( "10  " )
f.write( str(ee) + "\n" )
f.write( MOL.save_string_xyz() )
f.close()
--------------------------------------------------------------------------

    Molecular point group: c1
  Charge       = 0
  Multiplicity = 1
  Basis Set: CC-PVTZ
  Basis Set:
  @DF-RHF Final Energy:  -229.02130969535276
    Total Energy =                       -229.0213096953526701
    Molecular point group: c1
  Basis Set: CC-PVTZ
  Basis Set:
  Basis Set: CC-PVTZ
  Basis Set:
  @DF-RHF Final Energy:  -229.02297951314753
    Total Energy =                       -229.0229795131475896
  Basis Set: CC-PVTZ
  Basis Set:
  Basis Set: CC-PVTZ
  Basis Set:
  @DF-RHF Final Energy:  -229.02321904782184
    Total Energy =                       -229.0232190478219252
  Basis Set: CC-PVTZ
  Basis Set:
  Basis Set: CC-PVTZ
  Basis Set:
  @DF-RHF Final Energy:  -229.02323181713024
    Total Energy =                       -229.0232318171300676
  Basis Set: CC-PVTZ
  Basis Set:
  Basis Set: CC-PVTZ
  Basis Set:
  @DF-RHF Final Energy:  -229.02323367065441
    Total Energy =                       -229.0232336706542924
  Basis Set: CC-PVTZ
  Basis Set:
  Charge       = 0
  Multiplicity = 1
  Basis Set: CC-PVTZ
  Basis Set:

    Orbital Energies (a.u.)
    -----------------------

    Doubly Occupied:

       1A    -20.554746     2A    -20.544881     3A    -11.277606
       4A    -11.268373     5A     -1.381182     6A     -1.357897
       7A     -1.005183     8A     -0.849507     9A     -0.722911
      10A     -0.676986    11A     -0.661132    12A     -0.601581
      13A     -0.574394    14A     -0.551374    15A     -0.475061
      16A     -0.452153    17A     -0.441918

  @DF-RHF Final Energy:  -229.02323378066524

   => Energetics <=

    Nuclear Repulsion Energy =            133.6448029388496934
    One-Electron Energy =                -578.5423040676964774
    Two-Electron Energy =                 215.8742673481815757
    DFT Exchange-Correlation Energy =       0.0000000000000000
    Empirical Dispersion Energy =           0.0000000000000000
    PCM Polarization Energy =               0.0000000000000000
    EFP Energy =                            0.0000000000000000
    Total Energy =                       -229.0232337806652083
    Molecular point group: c1
  Basis Set: CC-PVTZ
  Basis Set:

  -Total Gradient:
     Atom            X                  Y                   Z
    ------   -----------------  -----------------  -----------------
       1       -0.000002941719    -0.000010731277     0.000005510776
       2        0.000005752446     0.000015135912    -0.000014604103
       3       -0.000078076016     0.000142283047    -0.000267275208
       4        0.000234124059    -0.000363625312     0.000452879530
       5        0.000000699669     0.000012663715    -0.000016195544
       6       -0.000011045355     0.000014007571    -0.000007221889
       7       -0.000542880035     0.000548479756    -0.000310522062
       8       -0.000012193207    -0.000001653683     0.000004077548
       9       -0.000007610476     0.000004850161     0.000006620849
      10        0.000414170636    -0.000361409893     0.000146730104

  **** Optimization is complete! (in 6 steps) ****
    Final optimized geometry and variables:
    Molecular point group: c1

    Geometry (in Angstrom), charge = 0, multiplicity = 1:

    H            2.277476776189    -0.549130939035    -0.106093783540
    O            1.396024953335    -0.544150929897     0.218334855486
    C            0.714299177007     0.581792696242    -0.250946407900
    C           -0.703320817537     0.575291552560     0.274204502317
    H            0.697947847077     0.597606701606    -1.341283096540
    H            1.195321279007     1.499420932860     0.080392571081
    O           -1.468927192875    -0.506505464121    -0.167013060658
    H           -1.170466404372     1.517142878637    -0.007602490420
    H           -0.684707536540     0.522130987068     1.354230111706
    H           -1.289277961436    -0.689695068599    -1.071087585250

  Mulliken Charges: (a.u.)
   Center  Symbol    Alpha    Beta     Spin     Total
       1     H     0.39528  0.39528  0.00000  0.20945
       2     O     4.19173  4.19173  0.00000 -0.38346
       3     C     2.97199  2.97199  0.00000  0.05602
       4     C     2.95664  2.95664  0.00000  0.08672
       5     H     0.48146  0.48146  0.00000  0.03708
       6     H     0.47258  0.47258  0.00000  0.05485
       7     O     4.19875  4.19875  0.00000 -0.39749
       8     H     0.47693  0.47693  0.00000  0.04614
       9     H     0.45962  0.45962  0.00000  0.08076
      10     H     0.39503  0.39503  0.00000  0.20995

   Total alpha = 17.00000, Total beta = 17.00000, Total charge =  0.00000
