                              Psi4 1.0.54 Driver

  ==> Input File <==

--------------------------------------------------------------------------
set {
	reference rhf
	basis cc-pvtz
}

set_num_threads( 4 )
memory 2 gb

molecule MOL {
0 1

H	 -1.140724	 0.465742	 0.677906
N	 -0.712187	 0.000026	 -0.093397
C	 0.734067	 -0.000020	 0.038424
H	 -0.995007	 0.480439	 -0.920840
H	 1.140372	 -0.872115	 -0.458226
H	 1.140363	 0.872301	 -0.457869
H	 1.095085	 -0.000244	 1.065614

	symmetry c1
}
set optking {
	frozen_dihedral = ("
		1 2 3 7
	")
}

ee,wfn = optimize('scf', return_wfn=True)
oeprop( wfn, 'DIPOLE', 'QUADRUPOLE', 'MULLIKEN_CHARGES')
f=open( 'psi4out.xyz', 'w' )
f.write( "7  " )
f.write( str(ee) + "\n" )
f.write( MOL.save_string_xyz() )
f.close()
--------------------------------------------------------------------------

    Molecular point group: c1
  Charge       = 0
  Multiplicity = 1
  Basis Set: CC-PVTZ
  Basis Set:
  @DF-RHF Final Energy:   -95.25052089487657
    Total Energy =                        -95.2505208948766153
    Molecular point group: c1
  Basis Set: CC-PVTZ
  Basis Set:
  Basis Set: CC-PVTZ
  Basis Set:
  @DF-RHF Final Energy:   -95.25182617928752
    Total Energy =                        -95.2518261792875336
  Basis Set: CC-PVTZ
  Basis Set:
  Basis Set: CC-PVTZ
  Basis Set:
  @DF-RHF Final Energy:   -95.25208689013020
    Total Energy =                        -95.2520868901301583
  Basis Set: CC-PVTZ
  Basis Set:
  Basis Set: CC-PVTZ
  Basis Set:
  @DF-RHF Final Energy:   -95.25209456469368
    Total Energy =                        -95.2520945646936639
  Basis Set: CC-PVTZ
  Basis Set:
  Charge       = 0
  Multiplicity = 1
  Basis Set: CC-PVTZ
  Basis Set:

    Orbital Energies (a.u.)
    -----------------------

    Doubly Occupied:

       1A    -15.526257     2A    -11.235478     3A     -1.169822
       4A     -0.897375     5A     -0.667653     6A     -0.601003
       7A     -0.560862     8A     -0.517970     9A     -0.382510

  @DF-RHF Final Energy:   -95.25209537999615

   => Energetics <=

    Nuclear Repulsion Energy =             42.3622048843750534
    One-Electron Energy =                -212.1107432905628229
    Two-Electron Energy =                  74.4964430261916135
    DFT Exchange-Correlation Energy =       0.0000000000000000
    Empirical Dispersion Energy =           0.0000000000000000
    PCM Polarization Energy =               0.0000000000000000
    EFP Energy =                            0.0000000000000000
    Total Energy =                        -95.2520953799961632
    Molecular point group: c1
  Basis Set: CC-PVTZ
  Basis Set:

  -Total Gradient:
     Atom            X                  Y                   Z
    ------   -----------------  -----------------  -----------------
       1       -0.000165711341    -0.002394694673     0.001311880900
       2        0.000089604192     0.003644630959    -0.001636599626
       3        0.000075488608    -0.003740164792     0.000260701551
       4       -0.000015635772     0.000000981796    -0.000005881815
       5       -0.000007560645     0.000020462470     0.000000889704
       6       -0.000016972643    -0.000012761850     0.000000853531
       7        0.000040787602     0.002481546091     0.000068155754

  **** Optimization is complete! (in 5 steps) ****
    Final optimized geometry and variables:
    Molecular point group: c1

    Geometry (in Angstrom), charge = 0, multiplicity = 1:

    H           -1.137968448649     0.434335909999     0.725020234154
    N           -0.715806265940    -0.016335984163    -0.055682913231
    C            0.733468444016    -0.040529667332     0.054215978118
    H           -1.024276270011     0.436097610681    -0.887304231547
    H            1.137035010462    -0.922677347964    -0.427581464090
    H            1.219197272345     0.830632352310    -0.380237092737
    H            1.018392311304    -0.068830833561     1.098240091235

  Mulliken Charges: (a.u.)
   Center  Symbol    Alpha    Beta     Spin     Total
       1     H     0.42623  0.42623  0.00000  0.14754
       2     N     3.69033  3.69033  0.00000 -0.38066
       3     C     3.06866  3.06866  0.00000 -0.13732
       4     H     0.42717  0.42717  0.00000  0.14567
       5     H     0.45867  0.45867  0.00000  0.08265
       6     H     0.47029  0.47029  0.00000  0.05943
       7     H     0.45865  0.45865  0.00000  0.08270

   Total alpha =  9.00000, Total beta =  9.00000, Total charge = -0.00000

*** Psi4 exiting successfully. Buy a developer a beer!
