  ==> Input File <==

--------------------------------------------------------------------------
set {
	reference rhf
	basis 6-31G*
}

set_num_threads( 1 )
memory 2 gb

molecule MOL {
0 1

H	 -4.031818	 -0.453427	 -0.000094
C	 -2.967712	 -0.297022	 -0.000064
C	 -2.458620	 0.992929	 0.000032
C	 -2.109895	 -1.385637	 -0.000122
H	 -3.124998	 1.836319	 0.000077
C	 -1.090278	 1.193236	 0.000070
H	 -2.506361	 -2.384847	 -0.000198
C	 -0.739812	 -1.187531	 -0.000085
H	 -0.678594	 2.184290	 0.000146
C	 -0.226438	 0.104061	 0.000012
H	 -0.072310	 -2.027032	 -0.000131
C	 1.239129	 0.373821	 0.000060
O	 1.860001	 -0.131391	 -1.055346
O	 1.804255	 0.980017	 0.855641
C	 3.258570	 0.078697	 -1.136202
H	 3.481162	 1.135197	 -1.168712
H	 3.575119	 -0.399726	 -2.049855
H	 3.757567	 -0.365217	 -0.287165

	symmetry c1
}
set optking {
	frozen_dihedral = ("
		12 13 15 16,
		10 12 13 15
	")
}

ee = energy('scf')
oeprop('DIPOLE', 'QUADRUPOLE', 'MULLIKEN_CHARGES')
f=open( 'psi4out.xyz', 'w' )
f.write( "18  " )
f.write( str(ee) + "\n" )
f.write( MOL.save_string_xyz() )
f.close()
--------------------------------------------------------------------------

    Molecular point group: c1

    Geometry (in Angstrom), charge = 0, multiplicity = 1:

       Center              X                  Y                   Z               Mass
    ------------   -----------------  -----------------  -----------------  -----------------
           H         -4.016174656077    -0.538439762544     0.149577847316     1.007825032070
           C         -2.952068656077    -0.382034762544     0.149607847316    12.000000000000
           C         -2.442976656077     0.907916237456     0.149703847316    12.000000000000
           C         -2.094251656077    -1.470649762544     0.149549847316    12.000000000000
           H         -3.109354656077     1.751306237456     0.149748847316     1.007825032070
           C         -1.074634656077     1.108223237456     0.149741847316    12.000000000000
           H         -2.490717656077    -2.469859762544     0.149473847316     1.007825032070
           C         -0.724168656077    -1.272543762544     0.149586847316    12.000000000000
           H         -0.662950656077     2.099277237456     0.149817847316     1.007825032070
           C         -0.210794656077     0.019048237456     0.149683847316    12.000000000000
           H         -0.056666656077    -2.112044762544     0.149540847316     1.007825032070
           C          1.254772343923     0.288808237456     0.149731847316    12.000000000000
           O          1.875644343923    -0.216403762544    -0.905674152684    15.994914619560
           O          1.819898343923     0.895004237456     1.005312847316    15.994914619560
           C          3.274213343923    -0.006315762544    -0.986530152684    12.000000000000
           H          3.496805343923     1.050184237456    -1.019040152684     1.007825032070
           H          3.590762343923    -0.484738762544    -1.900183152684     1.007825032070
           H          3.773210343923    -0.450229762544    -0.137493152684     1.007825032070

  Charge       = 0
  Multiplicity = 1
  Basis Set: 6-31G*
  Basis Set:

    Orbital Energies (a.u.)
    -----------------------

    Doubly Occupied:

       1A    -20.609357     2A    -20.548691     3A    -11.379819
       4A    -11.283128     5A    -11.250703     6A    -11.245370
       7A    -11.243574     8A    -11.241993     9A    -11.239803
      10A    -11.239159    11A     -1.474222    12A     -1.365373
      13A     -1.166476    14A     -1.049060    15A     -1.026373
      16A     -0.979291    17A     -0.861129    18A     -0.838120
      19A     -0.779664    20A     -0.738155    21A     -0.685214
      22A     -0.679383    23A     -0.675424    24A     -0.630488
      25A     -0.629630    26A     -0.598073    27A     -0.590381
      28A     -0.549813    29A     -0.534770    30A     -0.516500
      31A     -0.507703    32A     -0.501730    33A     -0.458355
      34A     -0.445462    35A     -0.343158    36A     -0.342258

  @DF-RHF Final Energy:  -457.34153929847338

   => Energetics <=

    Nuclear Repulsion Energy =            491.8349779279513427
    One-Electron Energy =               -1597.8578318393745121
    Two-Electron Energy =                 648.6813146129502456
    DFT Exchange-Correlation Energy =       0.0000000000000000
    Empirical Dispersion Energy =           0.0000000000000000
    PCM Polarization Energy =               0.0000000000000000
    EFP Energy =                            0.0000000000000000
    Total Energy =                       -457.3415392984729806

  Mulliken Charges: (a.u.)
   Center  Symbol    Alpha    Beta     Spin     Total
       1     H     0.39627  0.39627  0.00000  0.20747
       2     C     3.09562  3.09562  0.00000 -0.19124
       3     C     3.10144  3.10144  0.00000 -0.20288
       4     C     3.10197  3.10197  0.00000 -0.20395
       5     H     0.39530  0.39530  0.00000  0.20941
       6     C     3.09671  3.09671  0.00000 -0.19342
       7     H     0.39563  0.39563  0.00000  0.20874
       8     C     3.09315  3.09315  0.00000 -0.18631
       9     H     0.38680  0.38680  0.00000  0.22641
      10     C     3.01877  3.01877  0.00000 -0.03754
      11     H     0.39006  0.39006  0.00000  0.21988
      12     C     2.63335  2.63335  0.00000  0.73330
      13     O     4.29817  4.29817  0.00000 -0.59634
      14     O     4.28001  4.28001  0.00000 -0.56002
      15     C     3.09383  3.09383  0.00000 -0.18767
      16     H     0.40783  0.40783  0.00000  0.18434
      17     H     0.40689  0.40689  0.00000  0.18622
      18     H     0.40820  0.40820  0.00000  0.18359

   Total alpha = 36.00000, Total beta = 36.00000, Total charge = -0.00000
