  ==> Input File <==

--------------------------------------------------------------------------
set {
	reference rhf
	basis cc-pvtz
}

set_num_threads( 4 )
memory 2 gb

molecule MOL {
0 1

H	 4.618000	 0.383000	 -0.075000
C	 3.758000	 -0.277000	 -0.017000
C	 2.453000	 0.516000	 -0.048000
H	 3.817000	 -0.969000	 -0.852000
H	 3.848000	 -0.856000	 0.898000
C	 1.217000	 -0.374000	 0.034000
H	 2.394000	 1.106000	 -0.957000
H	 2.441000	 1.223000	 0.781000
N	 0.000000	 0.410000	 -0.029000
H	 1.215000	 -1.063000	 -0.806000
H	 1.269000	 -0.991000	 0.938000
C	 -1.217000	 -0.374000	 0.034000
H	 0.000000	 1.085000	 0.713000
C	 -2.453000	 0.516000	 -0.048000
H	 -1.215000	 -1.063000	 -0.806000
H	 -1.270000	 -0.991000	 0.938000
C	 -3.758000	 -0.277000	 -0.017000
H	 -2.394000	 1.106000	 -0.958000
H	 -2.441000	 1.223000	 0.780000
H	 -3.817000	 -0.969000	 -0.852000
H	 -4.618000	 0.383000	 -0.075000
H	 -3.848000	 -0.856000	 0.898000

	symmetry c1
}
ee = optimize('scf')
oeprop('DIPOLE', 'QUADRUPOLE', 'MULLIKEN_CHARGES')
f=open( 'psi4out.xyz', 'w' )
f.write( "22  " )
f.write( str(ee) + "\n" )
f.write( MOL.save_string_xyz() )
f.close()
--------------------------------------------------------------------------

    Molecular point group: c1
  Charge       = 0
  Multiplicity = 1
  Basis Set: CC-PVTZ
  Basis Set:
  @DF-RHF Final Energy:  -290.49001112711602
    Total Energy =                       -290.4900111271163041
    Molecular point group: c1
  Basis Set: CC-PVTZ
  Basis Set:
  Basis Set: CC-PVTZ
  Basis Set:
  @DF-RHF Final Energy:  -290.49009814930167
    Total Energy =                       -290.4900981493017298
  Basis Set: CC-PVTZ
  Basis Set:
  Basis Set: CC-PVTZ
  Basis Set:
  @DF-RHF Final Energy:  -290.49010200583785
    Total Energy =                       -290.4901020058380254
  Basis Set: CC-PVTZ
  Basis Set:
  Charge       = 0
  Multiplicity = 1
  Basis Set: CC-PVTZ
  Basis Set:

    Orbital Energies (a.u.)
    -----------------------

    Doubly Occupied:

       1A    -15.528059     2A    -11.236185     3A    -11.236168
       4A    -11.211793     5A    -11.211791     6A    -11.207536
       7A    -11.207536     8A     -1.207412     9A     -1.060434
      10A     -1.027082    11A     -0.928764    12A     -0.868927
      13A     -0.812010    14A     -0.793931    15A     -0.669682
      16A     -0.627068    17A     -0.616217    18A     -0.614925
      19A     -0.574305    20A     -0.563330    21A     -0.529395
      22A     -0.529207    23A     -0.516201    24A     -0.485542
      25A     -0.482994    26A     -0.474675    27A     -0.466176
      28A     -0.451968    29A     -0.361432

  @DF-RHF Final Energy:  -290.49010255767473

   => Energetics <=

    Nuclear Repulsion Energy =            313.6640628337617045
    One-Electron Energy =               -1013.3068416397549072
    Two-Electron Energy =                 409.1526762483188122
    DFT Exchange-Correlation Energy =       0.0000000000000000
    Empirical Dispersion Energy =           0.0000000000000000
    PCM Polarization Energy =               0.0000000000000000
    EFP Energy =                            0.0000000000000000
    Total Energy =                       -290.4901025576743905
    Molecular point group: c1
  Basis Set: CC-PVTZ
  Basis Set:

  -Total Gradient:
     Atom            X                  Y                   Z
    ------   -----------------  -----------------  -----------------
       1       -0.000006028272    -0.000012866619     0.000004262954
       2        0.000010756077     0.000004781666     0.000018498869
       3       -0.000020849522     0.000001637177     0.000004019499
       4        0.000007335674     0.000002364738     0.000002305895
       5        0.000010835440    -0.000009970410    -0.000007664977
       6        0.000042735352    -0.000036246052     0.000000231331
       7       -0.000000775831     0.000009550129    -0.000004276893
       8        0.000005598566     0.000014218958    -0.000014609944
       9        0.000003633117     0.000050098334     0.000028551906
      10       -0.000022518725     0.000007894746     0.000004114600
      11       -0.000004009501    -0.000005061322    -0.000010635603
      12       -0.000044926333    -0.000036925886     0.000007215914
      13       -0.000000447950     0.000001550353    -0.000025125521
      14        0.000023478177    -0.000000905765    -0.000012922966
      15        0.000022224535     0.000007035740     0.000002627905
      16       -0.000000090532    -0.000005364954    -0.000012761298
      17       -0.000010874465     0.000004685305     0.000020974678
      18        0.000001830980     0.000004138830     0.000004316175
      19       -0.000005882967     0.000019531689    -0.000006355686
      20       -0.000006868522     0.000001818327     0.000001909659
      21        0.000005642550    -0.000012911893     0.000003795855
      22       -0.000010797847    -0.000009053089    -0.000008472350

  **** Optimization is complete! (in 4 steps) ****
    Final optimized geometry and variables:
    Molecular point group: c1

    Geometry (in Angstrom), charge = 0, multiplicity = 1:

    H            4.612621507509     0.364305697366    -0.041918422787
    C            3.752214713847    -0.292587936121     0.006022131911
    C            2.451956673881     0.502388714818    -0.038617867337
    H            3.817882494049    -0.982944748076    -0.828324398087
    H            3.830037848297    -0.871749531596     0.920097636601
    C            1.215949744841    -0.382441360970     0.027187421068
    H            2.407430682859     1.093756554306    -0.946398668616
    H            2.431927961557     1.206236516277     0.790100426084
    N            0.000001814220     0.398952906314    -0.040850505728
    H            1.221890068992    -1.069398603664    -0.813778444976
    H            1.259907951207    -0.999711024605     0.929478409322
    C           -1.215959391686    -0.382435757688     0.027142874540
    H           -0.000012437477     1.086078187468     0.683841743083
    C           -2.451944239864     0.502409900726    -0.038737103080
    H           -1.221866768945    -1.069392103053    -0.813827763597
    H           -1.259993201664    -0.999708893102     0.929424529104
    C           -3.752216854532    -0.292549956873     0.005776741106
    H           -2.407324715307     1.093800673791    -0.946479789665
    H           -2.431978528163     1.206233420552     0.790023515020
    H           -3.817783028477    -0.982946251745    -0.828546728044
    H           -4.612612985688     0.364347841453    -0.042305315145
    H           -3.830159753781    -0.871666669018     0.919868205675

  Mulliken Charges: (a.u.)
   Center  Symbol    Alpha    Beta     Spin     Total
       1     H     0.44770  0.44770  0.00000  0.10459
       2     C     3.15361  3.15361  0.00000 -0.30722
       3     C     3.08019  3.08019  0.00000 -0.16038
       4     H     0.45474  0.45474  0.00000  0.09051
       5     H     0.45613  0.45613  0.00000  0.08773
       6     C     3.02265  3.02265  0.00000 -0.04531
       7     H     0.44915  0.44915  0.00000  0.10171
       8     H     0.45970  0.45970  0.00000  0.08061
       9     N     3.63857  3.63857  0.00000 -0.27714
      10     H     0.45914  0.45914  0.00000  0.08173
      11     H     0.47489  0.47489  0.00000  0.05023
      12     C     3.02265  3.02265  0.00000 -0.04531
      13     H     0.44562  0.44562  0.00000  0.10875
      14     C     3.08019  3.08019  0.00000 -0.16038
      15     H     0.45914  0.45914  0.00000  0.08172
      16     H     0.47488  0.47488  0.00000  0.05023
      17     C     3.15361  3.15361  0.00000 -0.30722
      18     H     0.44914  0.44914  0.00000  0.10172
      19     H     0.45970  0.45970  0.00000  0.08060
      20     H     0.45475  0.45475  0.00000  0.09051
      21     H     0.44770  0.44770  0.00000  0.10459
      22     H     0.45613  0.45613  0.00000  0.08773

   Total alpha = 29.00000, Total beta = 29.00000, Total charge = -0.00000
