  ==> Input File <==

--------------------------------------------------------------------------
set {
	reference rhf
	basis 6-31G*
}

set_num_threads( 4 )
memory 2 gb

molecule MOL {
0 1

O	 2.862325	 1.357334	 0.000267
C	 2.843464	 0.164689	 -0.000222
C	 1.546494	 -0.624492	 -0.000609
C	 4.124123	 -0.644674	 -0.000428
C	 0.291004	 0.242674	 0.000989
H	 1.557904	 -1.283758	 -0.867573
H	 1.558622	 -1.285963	 0.864672
C	 -0.134194	 0.656099	 1.410971
H	 -0.515422	 -0.298046	 -0.484222
H	 0.467670	 1.125561	 -0.605185
C	 -1.393009	 1.524960	 1.424967
H	 -0.306339	 -0.234002	 2.014405
H	 0.679660	 1.196430	 1.892376
C	 -1.824798	 1.942486	 2.831822
H	 -2.207432	 0.985530	 0.944602
H	 -1.221783	 2.415477	 0.822756
C	 -3.083028	 2.809959	 2.837592
H	 -1.997406	 1.053139	 3.434394
H	 -1.012049	 2.483113	 3.312467
H	 -3.923640	 2.284169	 2.393671
H	 -3.364225	 3.089184	 3.848365
H	 -2.930954	 3.724819	 2.271862
H	 4.165367	 -1.288615	 -0.874074
H	 4.976217	 0.020734	 -0.001915
H	 4.166763	 -1.286207	 0.874930

	symmetry c1
}
set optking {
	frozen_dihedral = ("
		9 5 3 6
	")
}

ee = optimize('scf')
oeprop('DIPOLE', 'QUADRUPOLE', 'MULLIKEN_CHARGES')
f=open( 'psi4out.xyz', 'w' )
f.write( "25  " )
f.write( str(ee) + "\n" )
f.write( MOL.save_string_xyz() )
f.close()
--------------------------------------------------------------------------

    Molecular point group: c1
  Charge       = 0
  Multiplicity = 1
  Basis Set: 6-31G*
  Basis Set:
  @DF-RHF Final Energy:  -387.13498255101121
    Total Energy =                       -387.1349825510114897
    Molecular point group: c1
  Basis Set: 6-31G*
  Basis Set:
  Basis Set: 6-31G*
  Basis Set:
  @DF-RHF Final Energy:  -387.13512922785162
    Total Energy =                       -387.1351292278518486
  Basis Set: 6-31G*
  Basis Set:
  Basis Set: 6-31G*
  Basis Set:
  @DF-RHF Final Energy:  -387.13504827881656
    Total Energy =                       -387.1350482788161571
  Basis Set: 6-31G*
  Basis Set:
  Basis Set: 6-31G*
  Basis Set:
  @DF-RHF Final Energy:  -387.13517669068972
    Total Energy =                       -387.1351766906888088
  Basis Set: 6-31G*
  Basis Set:
  Basis Set: 6-31G*
  Basis Set:
  @DF-RHF Final Energy:  -387.13517640953131
    Total Energy =                       -387.1351764095306862
  Basis Set: 6-31G*
  Basis Set:
  Basis Set: 6-31G*
  Basis Set:
  @DF-RHF Final Energy:  -387.13518232378908
    Total Energy =                       -387.1351823237897634
  Basis Set: 6-31G*
  Basis Set:
  Charge       = 0
  Multiplicity = 1
  Basis Set: 6-31G*
  Basis Set:

    Orbital Energies (a.u.)
    -----------------------

    Doubly Occupied:

       1A    -20.551691     2A    -11.327567     3A    -11.231997
       4A    -11.228973     5A    -11.216295     6A    -11.211848
       7A    -11.211307     8A    -11.209753     9A    -11.205621
      10A     -1.396957    11A     -1.090414    12A     -1.054405
      13A     -1.013764    14A     -0.967149    15A     -0.888761
      16A     -0.814676    17A     -0.787527    18A     -0.729060
      19A     -0.668423    20A     -0.637406    21A     -0.632430
      22A     -0.621970    23A     -0.590449    24A     -0.584438
      25A     -0.574247    26A     -0.556328    27A     -0.532794
      28A     -0.525065    29A     -0.515352    30A     -0.497520
      31A     -0.481132    32A     -0.473303    33A     -0.460321
      34A     -0.458202    35A     -0.440289    36A     -0.402016

  @DF-RHF Final Energy:  -387.13518241022052

   => Energetics <=

    Nuclear Repulsion Energy =            446.3437356331426145
    One-Electron Energy =               -1409.3789301767376401
    Two-Electron Energy =                 575.9000121333741617
    DFT Exchange-Correlation Energy =       0.0000000000000000
    Empirical Dispersion Energy =           0.0000000000000000
    PCM Polarization Energy =               0.0000000000000000
    EFP Energy =                            0.0000000000000000
    Total Energy =                       -387.1351824102208639
    Molecular point group: c1
  Basis Set: 6-31G*
  Basis Set:

  -Total Gradient:
     Atom            X                  Y                   Z
    ------   -----------------  -----------------  -----------------
       1        0.000001238160    -0.000012949385     0.000023188291
       2       -0.000015253817    -0.000012656452    -0.000100160897
       3        0.001897974708     0.002955487951    -0.002525391766
       4        0.000007594982    -0.000000339542     0.000087897876
       5       -0.001241393680    -0.001992515060     0.003558251007
       6       -0.001358347580    -0.002104446703     0.001546476433
       7       -0.000003063384    -0.000013105902     0.000013981959
       8        0.000026999399     0.000030131508     0.000005629249
       9        0.000715954193     0.001171266233    -0.002554011023
      10        0.000001876773     0.000002134762     0.000003179378
      11       -0.000007591725    -0.000016946041    -0.000011683061
      12       -0.000006182537     0.000002098722    -0.000024966051
      13       -0.000003998849    -0.000014054564     0.000003152444
      14       -0.000011172334     0.000001542236     0.000003293722
      15       -0.000000392620    -0.000011594744     0.000012310666
      16       -0.000015318808    -0.000009931742    -0.000006605031
      17        0.000013914960     0.000023124729     0.000006350086
      18       -0.000011739805     0.000000360152    -0.000008190793
      19        0.000003120343    -0.000011132812     0.000007505381
      20        0.000006066539    -0.000004230185     0.000004387063
      21        0.000000479428     0.000008141078     0.000000083869
      22       -0.000006087102     0.000003383902    -0.000004487649
      23       -0.000011993382     0.000017640081    -0.000016258255
      24        0.000009653527    -0.000002254278    -0.000005293787
      25        0.000007662603    -0.000009153946    -0.000018639112

  **** Optimization is complete! (in 7 steps) ****
    Final optimized geometry and variables:
    Molecular point group: c1

    Geometry (in Angstrom), charge = 0, multiplicity = 1:

    O            2.281386117989     0.527119905831    -0.928865330256
    C            2.266185104253    -0.665520607397    -0.950855361362
    C            0.974320780053    -1.464032209189    -0.974489173407
    C            3.550149002130    -1.469393651607    -0.955283443674
    C           -0.301499865376    -0.618906265271    -0.946388874862
    H            0.992078489846    -2.114999996729    -1.846491704279
    H            0.998093914594    -2.147416865641    -0.126003855399
    C           -0.724113730992    -0.197056324428     0.461219633743
    H           -1.102577218371    -1.173597876388    -1.428334336120
    H           -0.142500501183     0.266670952167    -1.551970412351
    C           -1.976255879298     0.680623093183     0.470769957116
    H           -0.903348749192    -1.085638904677     1.065473466823
    H            0.095186742868     0.340219287494     0.931575383741
    C           -2.406822462242     1.103927118569     1.876318575352
    H           -2.795425176543     0.147422003615    -0.009821778940
    H           -1.794968885700     1.568840495859    -0.131379307886
    C           -3.653042481117     1.988591167360     1.878364993629
    H           -2.593392365232     0.217141207169     2.478710295022
    H           -1.587944511684     1.633487008994     2.358244531325
    H           -4.500071684822     1.474067650808     1.433081208137
    H           -3.932768855503     2.272873081337     2.888180987419
    H           -3.486764673454     2.900641687965     1.312148480132
    H            3.594965058841    -2.108103626518    -1.832494481129
    H            4.399368132592    -0.800391232362    -0.951482668019
    H            3.594171950922    -2.115572494156    -0.083449325114

  Mulliken Charges: (a.u.)
   Center  Symbol    Alpha    Beta     Spin     Total
       1     O     4.26181  4.26181  0.00000 -0.52363
       2     C     2.73597  2.73597  0.00000  0.52807
       3     C     3.21331  3.21331  0.00000 -0.42661
       4     C     3.28695  3.28695  0.00000 -0.57389
       5     C     3.15251  3.15251  0.00000 -0.30502
       6     H     0.40661  0.40661  0.00000  0.18679
       7     H     0.40972  0.40972  0.00000  0.18056
       8     C     3.15512  3.15512  0.00000 -0.31023
       9     H     0.42111  0.42111  0.00000  0.15778
      10     H     0.40495  0.40495  0.00000  0.19010
      11     C     3.15180  3.15180  0.00000 -0.30360
      12     H     0.42753  0.42753  0.00000  0.14494
      13     H     0.41288  0.41288  0.00000  0.17423
      14     C     3.15160  3.15160  0.00000 -0.30320
      15     H     0.42572  0.42572  0.00000  0.14856
      16     H     0.42028  0.42028  0.00000  0.15944
      17     C     3.23929  3.23929  0.00000 -0.47858
      18     H     0.42450  0.42450  0.00000  0.15100
      19     H     0.42160  0.42160  0.00000  0.15680
      20     H     0.42259  0.42259  0.00000  0.15482
      21     H     0.41986  0.41986  0.00000  0.16028
      22     H     0.42106  0.42106  0.00000  0.15789
      23     H     0.40871  0.40871  0.00000  0.18257
      24     H     0.39637  0.39637  0.00000  0.20725
      25     H     0.40815  0.40815  0.00000  0.18369

   Total alpha = 36.00000, Total beta = 36.00000, Total charge = -0.00000
