  ==> Input File <==

--------------------------------------------------------------------------
set {
	reference rhf
	basis 6-31G*
}

set_num_threads( 4 )
memory 2 gb

molecule MOL {
0 1

H	 1.594398	 -1.082076	 1.073132
C	 0.715974	 -1.190795	 0.451959
O	 0.000000	 0.000000	 0.521119
H	 1.030316	 -1.408462	 -0.567599
H	 0.128075	 -2.031376	 0.817318
C	 -1.165642	 0.000000	 -0.238270
H	 -1.228672	 0.883184	 -0.872070
H	 -2.003012	 0.000000	 0.445920
H	 -1.228672	 -0.883184	 -0.872070

	symmetry c1
}
set optking {
	frozen_dihedral = ("
		2 3 6 7
	")
}

ee = optimize('scf')
oeprop('DIPOLE', 'QUADRUPOLE', 'MULLIKEN_CHARGES')
f=open( 'psi4out.xyz', 'w' )
f.write( "9  " )
f.write( str(ee) + "\n" )
f.write( MOL.save_string_xyz() )
f.close()
--------------------------------------------------------------------------

    Molecular point group: c1
  Charge       = 0
  Multiplicity = 1
  Basis Set: 6-31G*
  Basis Set:
  @DF-RHF Final Energy:  -154.06006955161752
    Total Energy =                       -154.0600695516174312
    Molecular point group: c1
  Basis Set: 6-31G*
  Basis Set:
  Basis Set: 6-31G*
  Basis Set:
  @DF-RHF Final Energy:  -154.06066466776718
    Total Energy =                       -154.0606646677673552
  Basis Set: 6-31G*
  Basis Set:
  Basis Set: 6-31G*
  Basis Set:
  @DF-RHF Final Energy:  -154.06079988860245
    Total Energy =                       -154.0607998886024461
  Basis Set: 6-31G*
  Basis Set:
  Charge       = 0
  Multiplicity = 1
  Basis Set: 6-31G*
  Basis Set:

    Orbital Energies (a.u.)
    -----------------------

    Doubly Occupied:

       1A    -20.552278     2A    -11.265626     3A    -11.264667
       4A     -1.374079     5A     -0.974865     6A     -0.872895
       7A     -0.656898     8A     -0.652783     9A     -0.642732
      10A     -0.559445    11A     -0.527451    12A     -0.472658
      13A     -0.412009

  @DF-RHF Final Energy:  -154.06080047321419

   => Energetics <=

    Nuclear Repulsion Energy =             84.4858726753330131
    One-Electron Energy =                -376.6365731126335277
    Two-Electron Energy =                 138.0898999640863281
    DFT Exchange-Correlation Energy =       0.0000000000000000
    Empirical Dispersion Energy =           0.0000000000000000
    PCM Polarization Energy =               0.0000000000000000
    EFP Energy =                            0.0000000000000000
    Total Energy =                       -154.0608004732142149
    Molecular point group: c1
  Basis Set: 6-31G*
  Basis Set:

  -Total Gradient:
     Atom            X                  Y                   Z
    ------   -----------------  -----------------  -----------------
       1        0.000026960833    -0.000044440390     0.000010033904
       2        0.000796873303     0.000441452068    -0.001021465089
       3       -0.000853283533    -0.000858946896     0.001163240438
       4       -0.000026679920    -0.000002374832     0.000004482488
       5       -0.000031872507     0.000063077586    -0.000015852331
       6       -0.000640219579     0.001192795176     0.001055180699
       7        0.000738886396    -0.000799783862    -0.001185159848
       8       -0.000007601070     0.000006106212    -0.000004126254
       9       -0.000003063925     0.000002114938    -0.000006334008

  **** Optimization is complete! (in 4 steps) ****
    Final optimized geometry and variables:
    Molecular point group: c1

    Geometry (in Angstrom), charge = 0, multiplicity = 1:

    H            1.766777790889    -0.648942374448     0.830419595401
    C            0.884327055213    -0.783607199939     0.219871571546
    O            0.155346023330     0.401134214033     0.274179483685
    H            1.194264074988    -1.016783457610    -0.796820140860
    H            0.315911354380    -1.626052646261     0.609625746244
    C           -1.027362768903     0.417332243477    -0.469597989101
    H           -1.047613001359     1.310566944113    -1.083187567018
    H           -1.889135406017     0.419358582500     0.190528753647
    H           -1.102557196395    -0.443264963188    -1.128544089023

  Mulliken Charges: (a.u.)
   Center  Symbol    Alpha    Beta     Spin     Total
       1     H     0.41273  0.41273  0.00000  0.17455
       2     C     3.07881  3.07881  0.00000 -0.15762
       3     O     4.30025  4.30025  0.00000 -0.60051
       4     H     0.42990  0.42990  0.00000  0.14021
       5     H     0.43026  0.43026  0.00000  0.13948
       6     C     3.07746  3.07746  0.00000 -0.15491
       7     H     0.41799  0.41799  0.00000  0.16401
       8     H     0.42211  0.42211  0.00000  0.15578
       9     H     0.43049  0.43049  0.00000  0.13902

   Total alpha = 13.00000, Total beta = 13.00000, Total charge =  0.00000
