  ==> Input File <==

--------------------------------------------------------------------------
set {
	reference rhf
	basis 6-31G*
}

set_num_threads( 4 )
memory 2 gb

molecule MOL {
0 1

O	 2.862325	 1.357334	 0.000267
C	 2.843464	 0.164689	 -0.000222
C	 1.546494	 -0.624492	 -0.000609
C	 4.124123	 -0.644674	 -0.000428
C	 0.291004	 0.242674	 0.000989
H	 1.557904	 -1.283758	 -0.867573
H	 1.558622	 -1.285963	 0.864672
C	 -0.913588	 -0.468575	 -0.617756
H	 0.493489	 1.162763	 -0.538052
H	 0.062730	 0.536290	 1.020709
C	 -2.178097	 0.392076	 -0.622780
H	 -0.676579	 -0.763305	 -1.639034
H	 -1.110093	 -1.391167	 -0.073443
C	 -3.387417	 -0.312382	 -1.240272
H	 -1.983030	 1.314313	 -1.167250
H	 -2.416476	 0.686574	 0.397731
C	 -4.646593	 0.553734	 -1.241886
H	 -3.150749	 -0.606185	 -2.260807
H	 -3.584325	 -1.233661	 -0.695909
H	 -4.492566	 1.468217	 -1.807702
H	 -5.485943	 0.027542	 -1.686087
H	 -4.929900	 0.835342	 -0.231648
H	 4.165367	 -1.288615	 -0.874074
H	 4.976217	 0.020734	 -0.001915
H	 4.166763	 -1.286207	 0.874930

	symmetry c1
}
set optking {
	frozen_dihedral = ("
		9 5 3 6
	")
}

ee = optimize('scf')
oeprop('DIPOLE', 'QUADRUPOLE', 'MULLIKEN_CHARGES')
f=open( 'psi4out.xyz', 'w' )
f.write( "25  " )
f.write( str(ee) + "\n" )
f.write( MOL.save_string_xyz() )
f.close()
--------------------------------------------------------------------------

    Molecular point group: c1
  Charge       = 0
  Multiplicity = 1
  Basis Set: 6-31G*
  Basis Set:
  @DF-RHF Final Energy:  -387.13454215324538
    Total Energy =                       -387.1345421532452065
    Molecular point group: c1
  Basis Set: 6-31G*
  Basis Set:
  Basis Set: 6-31G*
  Basis Set:
  @DF-RHF Final Energy:  -387.13473327990943
    Total Energy =                       -387.1347332799089145
  Basis Set: 6-31G*
  Basis Set:
  Basis Set: 6-31G*
  Basis Set:
  @DF-RHF Final Energy:  -387.13476776481156
    Total Energy =                       -387.1347677648109311
  Basis Set: 6-31G*
  Basis Set:
  Basis Set: 6-31G*
  Basis Set:
  @DF-RHF Final Energy:  -387.13464935724068
    Total Energy =                       -387.1346493572403915
  Basis Set: 6-31G*
  Basis Set:
  Basis Set: 6-31G*
  Basis Set:
  @DF-RHF Final Energy:  -387.13479490070102
    Total Energy =                       -387.1347949007007401
  Basis Set: 6-31G*
  Basis Set:
  Charge       = 0
  Multiplicity = 1
  Basis Set: 6-31G*
  Basis Set:

    Orbital Energies (a.u.)
    -----------------------

    Doubly Occupied:

       1A    -20.550899     2A    -11.326976     3A    -11.231802
       4A    -11.228508     5A    -11.217112     6A    -11.215917
       7A    -11.215334     8A    -11.213451     9A    -11.208280
      10A     -1.396267    11A     -1.093101    12A     -1.056038
      13A     -1.014681    14A     -0.969051    15A     -0.890940
      16A     -0.814607    17A     -0.791007    18A     -0.730517
      19A     -0.662579    20A     -0.649749    21A     -0.631468
      22A     -0.623960    23A     -0.595522    24A     -0.584132
      25A     -0.568650    26A     -0.559168    27A     -0.539533
      28A     -0.526077    29A     -0.512732    30A     -0.492501
      31A     -0.485780    32A     -0.471120    33A     -0.464111
      34A     -0.461520    35A     -0.450038    36A     -0.400495

  @DF-RHF Final Energy:  -387.13479543850815

   => Energetics <=

    Nuclear Repulsion Energy =            438.3386988147398142
    One-Electron Energy =               -1393.2597447018099501
    Two-Electron Energy =                 567.7862504485618729
    DFT Exchange-Correlation Energy =       0.0000000000000000
    Empirical Dispersion Energy =           0.0000000000000000
    PCM Polarization Energy =               0.0000000000000000
    EFP Energy =                            0.0000000000000000
    Total Energy =                       -387.1347954385082630
    Molecular point group: c1
  Basis Set: 6-31G*
  Basis Set:

  -Total Gradient:
     Atom            X                  Y                   Z
    ------   -----------------  -----------------  -----------------
       1       -0.000023593174    -0.000047904726    -0.000003572883
       2       -0.000044474971     0.000065642164    -0.000051564202
       3        0.002373414419     0.003413382073    -0.001521493871
       4       -0.000007238633    -0.000029069589     0.000024310436
       5       -0.001644027790    -0.002546837713    -0.003179371922
       6       -0.001688822958    -0.002401927472     0.001800278945
       7       -0.000014557203    -0.000017051885    -0.000008806437
       8        0.000026200890     0.000002906449    -0.000022354412
       9        0.001012128428     0.001536245932     0.002919006784
      10       -0.000007285328     0.000008634271     0.000028502410
      11        0.000005425699     0.000004104070     0.000032097371
      12       -0.000020069570    -0.000000464281    -0.000005790918
      13        0.000029367183     0.000012792911     0.000005368787
      14        0.000002470299     0.000002031776    -0.000014090985
      15       -0.000009252298    -0.000001120960     0.000013840139
      16        0.000003618350    -0.000012257161     0.000008247714
      17        0.000003050765     0.000005958008    -0.000013941056
      18        0.000002603528    -0.000013275800    -0.000000328728
      19       -0.000004416258     0.000010917594     0.000007275162
      20       -0.000003206854     0.000003066887    -0.000000816609
      21        0.000000713574     0.000001065106    -0.000002184727
      22        0.000003777771    -0.000002410303    -0.000001368400
      23        0.000000525295    -0.000007534114    -0.000003437013
      24        0.000003038607     0.000001147176    -0.000003714665
      25        0.000000610229     0.000011959588    -0.000006090922

  **** Optimization is complete! (in 6 steps) ****
    Final optimized geometry and variables:
    Molecular point group: c1

    Geometry (in Angstrom), charge = 0, multiplicity = 1:

    O            2.845329590852     1.275747120839     0.457828491834
    C            2.804010174359     0.084046884715     0.433421748505
    C            1.496534378920    -0.684571586612     0.375760749789
    C            4.068978899402    -0.749072379240     0.465632457874
    C            0.239624087486     0.187094119400     0.344467108895
    H            1.526496231920    -1.358405551798    -0.479418087269
    H            1.473584189719    -1.349846589029     1.238233111346
    C           -0.973278830230    -0.536247421374    -0.240535678946
    H            0.448635775965     1.099140748966    -0.202642343679
    H            0.013943814219     0.510359198827     1.357591084919
    C           -2.245523721059     0.312101172184    -0.214757682382
    H           -0.757160593837    -0.828382713799    -1.267038847598
    H           -1.146836747342    -1.460807963134     0.308513248220
    C           -3.459452727513    -0.398899785296    -0.815524831717
    H           -2.068758369059     1.240378211968    -0.755069371056
    H           -2.467905478548     0.595999847162     0.812413110730
    C           -4.726012192039     0.455950744871    -0.788557869198
    H           -3.238529162903    -0.683392446057    -1.842176749466
    H           -3.638444934420    -1.325679924972    -0.274287612764
    H           -4.590262539978     1.375414497452    -1.350920007459
    H           -5.568600401786    -0.074783309774    -1.221041029230
    H           -4.993469943021     0.728394743151     0.228511737126
    H            4.128241994298    -1.383028709492    -0.414180094402
    H            4.932436028120    -0.099522810584     0.501698914331
    H            4.070198889952    -1.401571226499     1.333866362021

  Mulliken Charges: (a.u.)
   Center  Symbol    Alpha    Beta     Spin     Total
       1     O     4.26072  4.26072  0.00000 -0.52143
       2     C     2.73624  2.73624  0.00000  0.52752
       3     C     3.21293  3.21293  0.00000 -0.42587
       4     C     3.28693  3.28693  0.00000 -0.57386
       5     C     3.15112  3.15112  0.00000 -0.30224
       6     H     0.40939  0.40939  0.00000  0.18122
       7     H     0.40886  0.40886  0.00000  0.18228
       8     C     3.15464  3.15464  0.00000 -0.30927
       9     H     0.40298  0.40298  0.00000  0.19404
      10     H     0.41771  0.41771  0.00000  0.16458
      11     C     3.15115  3.15115  0.00000 -0.30231
      12     H     0.42384  0.42384  0.00000  0.15233
      13     H     0.42507  0.42507  0.00000  0.14985
      14     C     3.15153  3.15153  0.00000 -0.30305
      15     H     0.42161  0.42161  0.00000  0.15677
      16     H     0.42309  0.42309  0.00000  0.15383
      17     C     3.23933  3.23933  0.00000 -0.47866
      18     H     0.42330  0.42330  0.00000  0.15340
      19     H     0.42369  0.42369  0.00000  0.15263
      20     H     0.42115  0.42115  0.00000  0.15770
      21     H     0.41952  0.41952  0.00000  0.16095
      22     H     0.42160  0.42160  0.00000  0.15679
      23     H     0.40871  0.40871  0.00000  0.18257
      24     H     0.39639  0.39639  0.00000  0.20722
      25     H     0.40850  0.40850  0.00000  0.18299

   Total alpha = 36.00000, Total beta = 36.00000, Total charge = -0.00000
