  ==> Input File <==

--------------------------------------------------------------------------
set {
	reference rhf
	basis 6-31G*
}

set_num_threads( 4 )
memory 2 gb

molecule MOL {
0 1

O	 -2.821601	 1.309235	 -0.001213
C	 -2.668563	 0.129746	 -0.000350
C	 -3.801572	 -0.864014	 -0.000442
O	 -1.481751	 -0.454642	 0.000584
H	 -4.417280	 -0.689587	 -0.874708
H	 -3.443784	 -1.883046	 -0.000565
H	 -4.417179	 -0.689832	 0.873954
C	 -0.334255	 0.388708	 0.000906
C	 0.891947	 -0.504646	 0.000751
H	 -0.365390	 1.025305	 -0.873475
H	 -0.365484	 1.024911	 0.875569
C	 2.010903	 0.053373	 -0.880738
H	 0.605249	 -1.494382	 -0.343729
H	 1.244152	 -0.617724	 1.022331
C	 3.257013	 -0.833946	 -0.894889
H	 1.645882	 0.173804	 -1.899237
H	 2.284348	 1.048714	 -0.534897
C	 4.374097	 -0.277231	 -1.776397
H	 2.985626	 -1.828893	 -1.240585
H	 3.624463	 -0.953469	 0.121853
H	 4.047391	 -0.177883	 -2.807613
H	 5.243051	 -0.927654	 -1.766152
H	 4.691260	 0.703940	 -1.434749

	symmetry c1
}
set optking {
	frozen_dihedral = ("
		13 9 8 10
	")
}

ee = optimize('scf')
oeprop('DIPOLE', 'QUADRUPOLE', 'MULLIKEN_CHARGES')
f=open( 'psi4out.xyz', 'w' )
f.write( "23  " )
f.write( str(ee) + "\n" )
f.write( MOL.save_string_xyz() )
f.close()
--------------------------------------------------------------------------

    Molecular point group: c1
  Charge       = 0
  Multiplicity = 1
  Basis Set: 6-31G*
  Basis Set:
  @DF-RHF Final Energy:  -422.97512585527937
    Total Energy =                       -422.9751258552789750
    Molecular point group: c1
  Basis Set: 6-31G*
  Basis Set:
  Basis Set: 6-31G*
  Basis Set:
  @DF-RHF Final Energy:  -422.97543648525067
    Total Energy =                       -422.9754364852508388
  Basis Set: 6-31G*
  Basis Set:
  Basis Set: 6-31G*
  Basis Set:
  @DF-RHF Final Energy:  -422.97550537998035
    Total Energy =                       -422.9755053799806319
  Basis Set: 6-31G*
  Basis Set:
  Basis Set: 6-31G*
  Basis Set:
  @DF-RHF Final Energy:  -422.97534736589148
    Total Energy =                       -422.9753473658905705
  Basis Set: 6-31G*
  Basis Set:
  Basis Set: 6-31G*
  Basis Set:
  @DF-RHF Final Energy:  -422.97554622246832
    Total Energy =                       -422.9755462224683242
  Basis Set: 6-31G*
  Basis Set:
  Charge       = 0
  Multiplicity = 1
  Basis Set: 6-31G*
  Basis Set:

    Orbital Energies (a.u.)
    -----------------------

    Doubly Occupied:

       1A    -20.603718     2A    -20.540894     3A    -11.374289
       4A    -11.281366     5A    -11.232620     6A    -11.224013
       7A    -11.223396     8A    -11.221205     9A    -11.212794
      10A     -1.468401    11A     -1.361128    12A     -1.092719
      13A     -1.041494    14A     -1.003034    15A     -0.930902
      16A     -0.842458    17A     -0.802306    18A     -0.777897
      19A     -0.688988    20A     -0.683247    21A     -0.668091
      22A     -0.645972    23A     -0.606370    24A     -0.585925
      25A     -0.582275    26A     -0.568388    27A     -0.558776
      28A     -0.536871    29A     -0.524316    30A     -0.504371
      31A     -0.493360    32A     -0.476715    33A     -0.470735
      34A     -0.464861    35A     -0.447490    36A     -0.435632

  @DF-RHF Final Energy:  -422.97554637128246

   => Energetics <=

    Nuclear Repulsion Energy =            449.8150105600832376
    One-Electron Energy =               -1467.2270784936822565
    Two-Electron Energy =                 594.4365215623173526
    DFT Exchange-Correlation Energy =       0.0000000000000000
    Empirical Dispersion Energy =           0.0000000000000000
    PCM Polarization Energy =               0.0000000000000000
    EFP Energy =                            0.0000000000000000
    Total Energy =                       -422.9755463712816663
    Molecular point group: c1
  Basis Set: 6-31G*
  Basis Set:

  -Total Gradient:
     Atom            X                  Y                   Z
    ------   -----------------  -----------------  -----------------
       1       -0.000018581895     0.000029982163     0.000001093681
       2        0.000072447593    -0.000041005151    -0.000012274583
       3       -0.000011211472     0.000002937123     0.000011175774
       4       -0.000046772889    -0.000048256850    -0.000028405161
       5        0.000002479336     0.000000915395    -0.000001642959
       6        0.000000207403    -0.000001524658    -0.000000187835
       7       -0.000001170450     0.000000161457    -0.000000880595
       8       -0.002886508037    -0.003976514498    -0.001772396851
       9        0.001558875986     0.002288358855    -0.004299927039
      10        0.002208000465     0.002980350482     0.002168562231
      11       -0.000004715739    -0.000004416068    -0.000001143809
      12       -0.000029056255     0.000007484570    -0.000042937691
      13       -0.000815567431    -0.001212696319     0.003951721531
      14       -0.000013306892    -0.000002358072     0.000014275327
      15       -0.000011588952    -0.000005496387     0.000026262167
      16       -0.000001527608    -0.000018592142    -0.000004350086
      17       -0.000013732744    -0.000008272934    -0.000014536225
      18        0.000008929138     0.000004511880     0.000005054710
      19        0.000010726865     0.000008666440    -0.000011760900
      20       -0.000012878318    -0.000008810374     0.000004995941
      21       -0.000003883491     0.000002582240     0.000006864501
      22        0.000002864575     0.000001001397    -0.000001889208
      23        0.000005970820     0.000000991447     0.000002327079

  **** Optimization is complete! (in 6 steps) ****
    Final optimized geometry and variables:
    Molecular point group: c1

    Geometry (in Angstrom), charge = 0, multiplicity = 1:

    O           -2.737667839500     1.432334855863     0.443157944836
    C           -2.604000235362     0.250663710493     0.424079240179
    C           -3.752291738130    -0.724803391212     0.458374325003
    O           -1.427997378924    -0.353087401743     0.369602465878
    H           -4.400100086319    -0.529555909822    -0.387825074612
    H           -3.411748442021    -1.749385848483     0.431549079020
    H           -4.328771460264    -0.551803486639     1.359271080086
    C           -0.268826421836     0.471355397518     0.337260526834
    C            0.965891042174    -0.427794951531     0.314610830036
    H           -0.308802474500     1.124230796618    -0.525071007671
    H           -0.276198623761     1.112982179161     1.207967815210
    C            2.106117832953     0.147598532382    -0.525528403864
    H            0.673909301308    -1.409345909664    -0.044542488663
    H            1.310498280919    -0.584219335058     1.333793314617
    C            3.371301835305    -0.710334282092    -0.484989687553
    H            1.773936364259     0.253473800253    -1.556484359343
    H            2.343288677806     1.151861700195    -0.177079928467
    C            4.507185608740    -0.136590005146    -1.331006000401
    H            3.134876682655    -1.714516691755    -0.830033350867
    H            3.704285884185    -0.812104468467     0.545524642372
    H            4.216314304956    -0.054403455300    -2.374365815747
    H            5.389607044332    -0.766824456606    -1.282533916069
    H            4.789500580162     0.854755937976    -0.988085285577

  Mulliken Charges: (a.u.)
   Center  Symbol    Alpha    Beta     Spin     Total
       1     O     4.28376  4.28376  0.00000 -0.56753
       2     C     2.61529  2.61529  0.00000  0.76941
       3     C     3.28766  3.28766  0.00000 -0.57532
       4     O     4.31117  4.31117  0.00000 -0.62234
       5     H     0.39743  0.39743  0.00000  0.20513
       6     H     0.39999  0.39999  0.00000  0.20002
       7     H     0.39742  0.39742  0.00000  0.20516
       8     C     3.00034  3.00034  0.00000 -0.00067
       9     C     3.16937  3.16937  0.00000 -0.33875
      10     H     0.40925  0.40925  0.00000  0.18150
      11     H     0.40900  0.40900  0.00000  0.18201
      12     C     3.15936  3.15936  0.00000 -0.31872
      13     H     0.40762  0.40762  0.00000  0.18476
      14     H     0.41638  0.41638  0.00000  0.16723
      15     C     3.15242  3.15242  0.00000 -0.30483
      16     H     0.41972  0.41972  0.00000  0.16055
      17     H     0.42129  0.42129  0.00000  0.15741
      18     C     3.23979  3.23979  0.00000 -0.47959
      19     H     0.42126  0.42126  0.00000  0.15748
      20     H     0.42165  0.42165  0.00000  0.15670
      21     H     0.42083  0.42083  0.00000  0.15835
      22     H     0.41808  0.41808  0.00000  0.16384
      23     H     0.42090  0.42090  0.00000  0.15820

   Total alpha = 36.00000, Total beta = 36.00000, Total charge = -0.00000
