                              Psi4 1.0.54 Driver

  ==> Input File <==

--------------------------------------------------------------------------
set {
	reference rhf
	basis cc-pvtz
}

set_num_threads( 4 )
memory 2 gb

molecule MOL {
0 1

H	 2.499177	 0.742428	 0.001548
O	 2.063695	 -0.083403	 -0.105237
C	 0.742924	 0.005675	 0.350750
H	 0.731380	 0.039219	 1.440080
C	 -0.064076	 -1.193495	 -0.124425
C	 -0.047832	 1.190568	 -0.194462
H	 0.194729	 -1.376165	 -1.161308
H	 0.163013	 -2.094508	 0.429933
C	 -1.533112	 -0.752002	 0.006102
H	 0.148003	 1.266545	 -1.259275
H	 0.226235	 2.136493	 0.259722
C	 -1.506634	 0.799189	 0.067162
H	 -2.124360	 -1.110499	 -0.826089
H	 -1.983103	 -1.158030	 0.903403
H	 -2.183808	 1.252169	 -0.644677
H	 -1.813926	 1.138698	 1.049457

	symmetry c1
}
set optking {
	frozen_dihedral = ("
		1 2 3 6
	")
}

ee,wfn = optimize('scf', return_wfn=True)
oeprop( wfn, 'DIPOLE', 'QUADRUPOLE', 'MULLIKEN_CHARGES')
f=open( 'psi4out.xyz', 'w' )
f.write( "16  " )
f.write( str(ee) + "\n" )
f.write( MOL.save_string_xyz() )
f.close()
--------------------------------------------------------------------------

    Molecular point group: c1
  Charge       = 0
  Multiplicity = 1
  Basis Set: CC-PVTZ
  Basis Set:
  @DF-RHF Final Energy:  -270.11656581020009
    Total Energy =                       -270.1165658102001430
    Molecular point group: c1
  Basis Set: CC-PVTZ
  Basis Set:
  Basis Set: CC-PVTZ
  Basis Set:
  @DF-RHF Final Energy:  -270.11658216864834
    Total Energy =                       -270.1165821686482218
  Basis Set: CC-PVTZ
  Basis Set:
  Basis Set: CC-PVTZ
  Basis Set:
  @DF-RHF Final Energy:  -270.11658494963791
    Total Energy =                       -270.1165849496380247
  Basis Set: CC-PVTZ
  Basis Set:
  Charge       = 0
  Multiplicity = 1
  Basis Set: CC-PVTZ
  Basis Set:

    Orbital Energies (a.u.)
    -----------------------

    Doubly Occupied:

       1A    -20.545385     2A    -11.267029     3A    -11.216149
       4A    -11.213868     5A    -11.212686     6A    -11.207183
       7A     -1.365541     8A     -1.115688     9A     -0.967902
      10A     -0.949479    11A     -0.793089    12A     -0.777796
      13A     -0.700823    14A     -0.661006    15A     -0.617235
      16A     -0.594994    17A     -0.571076    18A     -0.527143
      19A     -0.503970    20A     -0.483023    21A     -0.471921
      22A     -0.457361    23A     -0.447452    24A     -0.424927

  @DF-RHF Final Energy:  -270.11658530530354

   => Energetics <=

    Nuclear Repulsion Energy =            255.6492423271460552
    One-Electron Energy =                -873.3462002413377832
    Two-Electron Energy =                 347.5803726088880694
    DFT Exchange-Correlation Energy =       0.0000000000000000
    Empirical Dispersion Energy =           0.0000000000000000
    PCM Polarization Energy =               0.0000000000000000
    EFP Energy =                            0.0000000000000000
    Total Energy =                       -270.1165853053036017
    Molecular point group: c1
  Basis Set: CC-PVTZ
  Basis Set:

  -Total Gradient:
     Atom            X                  Y                   Z
    ------   -----------------  -----------------  -----------------
       1       -0.000388998720     0.000371887540    -0.001193725314
       2        0.000619888934    -0.000260978192     0.001760194809
       3       -0.000476335041    -0.000576260095    -0.001269692826
       4       -0.000021363655     0.000006747786    -0.000000068614
       5        0.000035211982    -0.000011472946     0.000016313804
       6        0.000247085911     0.000462831514     0.000710616496
       7       -0.000007842056    -0.000004905570     0.000010875355
       8       -0.000003383279     0.000001675373     0.000003849975
       9       -0.000014592147     0.000014326289     0.000048162435
      10       -0.000009632413     0.000005904437    -0.000014681573
      11        0.000004235625     0.000004276742     0.000002394187
      12        0.000011306488    -0.000012031934    -0.000059280904
      13        0.000009012555     0.000007670192    -0.000018196003
      14       -0.000009109924    -0.000004376122    -0.000021090245
      15       -0.000016626601    -0.000003610561     0.000014121754
      16        0.000021142341    -0.000001684454     0.000010206665

  **** Optimization is complete! (in 4 steps) ****
    Final optimized geometry and variables:
    Molecular point group: c1

    Geometry (in Angstrom), charge = 0, multiplicity = 1:

    H            2.502243789465     0.740573053526     0.018620104650
    O            2.067523375406    -0.084473281774    -0.097320788559
    C            0.742713155894     0.002747128953     0.347051090679
    H            0.726314905796     0.038154917619     1.436563052097
    C           -0.065281886549    -1.195551329143    -0.127183791769
    C           -0.046542364464     1.189284533766    -0.194980162119
    H            0.186095177288    -1.375764323304    -1.166221640458
    H            0.163884450787    -2.098101218429     0.423814900024
    C           -1.533056698814    -0.752543879402     0.014831578624
    H            0.143684546171     1.268759027933    -1.261077266336
    H            0.229812509754     2.133326755365     0.262038141716
    C           -1.505265021471     0.798879407864     0.070628904808
    H           -2.131496081636    -1.113378341188    -0.811183053903
    H           -1.975696678886    -1.155057926691     0.917249198033
    H           -2.183275979149     1.250145301512    -0.641445836062
    H           -1.809772871507     1.142193901932     1.052303728976

  Mulliken Charges: (a.u.)
   Center  Symbol    Alpha    Beta     Spin     Total
       1     H     0.39422  0.39422  0.00000  0.21155
       2     O     4.20175  4.20175  0.00000 -0.40351
       3     C     2.92227  2.92227  0.00000  0.15546
       4     H     0.46575  0.46575  0.00000  0.06849
       5     C     3.10100  3.10100  0.00000 -0.20201
       6     C     3.10801  3.10801  0.00000 -0.21601
       7     H     0.45184  0.45184  0.00000  0.09632
       8     H     0.44276  0.44276  0.00000  0.11448
       9     C     3.11038  3.11038  0.00000 -0.22077
      10     H     0.45300  0.45300  0.00000  0.09400
      11     H     0.44813  0.44813  0.00000  0.10374
      12     C     3.11391  3.11391  0.00000 -0.22781
      13     H     0.44532  0.44532  0.00000  0.10936
      14     H     0.44840  0.44840  0.00000  0.10320
      15     H     0.44325  0.44325  0.00000  0.11350
      16     H     0.45000  0.45000  0.00000  0.10001

   Total alpha = 24.00000, Total beta = 24.00000, Total charge = -0.00000

*** Psi4 exiting successfully. Buy a developer a beer!
