  ==> Input File <==

--------------------------------------------------------------------------
set {
	reference rhf
	basis 6-31G*
}

set_num_threads( 1 )
memory 2 gb

molecule MOL {
0 1

H	 -2.646374	 -0.642757	 1.268656
C	 -2.083525	 -0.384536	 0.393091
O	 -0.807605	 -0.127164	 0.768327
F	 -2.118945	 -1.383102	 -0.486752
F	 -2.621877	 0.670592	 -0.209486
C	 0.084052	 0.273579	 -0.209957
C	 0.040182	 1.795483	 -0.255179
Cl	 -0.355917	 -0.410232	 -1.783502
H	 1.093456	 -0.029468	 0.006932
F	 0.878743	 2.252684	 -1.160674
F	 0.409863	 2.265728	 0.919403
F	 -1.160080	 2.248047	 -0.524496

	symmetry c1
}
set optking {
	frozen_dihedral = ("
		10 7 6 9,
		6 3 2 4
	")
}

ee = energy('scf')
oeprop('DIPOLE', 'QUADRUPOLE', 'MULLIKEN_CHARGES')
f=open( 'psi4out.xyz', 'w' )
f.write( "12  " )
f.write( str(ee) + "\n" )
f.write( MOL.save_string_xyz() )
f.close()
--------------------------------------------------------------------------

    Molecular point group: c1

    Geometry (in Angstrom), charge = 0, multiplicity = 1:

       Center              X                  Y                   Z               Mass
    ------------   -----------------  -----------------  -----------------  -----------------
           H         -1.895896600466    -1.285100591514     1.689549741232     1.007825032070
           C         -1.333047600466    -1.026879591514     0.813984741232    12.000000000000
           O         -0.057127600466    -0.769507591514     1.189220741232    15.994914619560
           F         -1.368467600466    -2.025445591514    -0.065858258768    18.998403224000
           F         -1.871399600466     0.028248408486     0.211407741232    18.998403224000
           C          0.834529399534    -0.368764591514     0.210936741232    12.000000000000
           C          0.790659399534     1.153139408486     0.165714741232    12.000000000000
          CL          0.394560399534    -1.052575591514    -1.362608258768    34.968852682000
           H          1.843933399534    -0.671811591514     0.427825741232     1.007825032070
           F          1.629220399534     1.610340408486    -0.739780258768    18.998403224000
           F          1.160340399534     1.623384408486     1.340296741232    18.998403224000
           F         -0.409602600466     1.605703408486    -0.103602258768    18.998403224000

  Charge       = 0
  Multiplicity = 1
  Basis Set: 6-31G*
  Basis Set:

    Orbital Energies (a.u.)
    -----------------------

    Doubly Occupied:

       1A   -104.833032     2A    -26.355354     3A    -26.354623
       4A    -26.347891     5A    -26.330413     6A    -26.329444
       7A    -20.647078     8A    -11.520482     9A    -11.482229
      10A    -11.398626    11A    -10.569565    12A     -8.038774
      13A     -8.035267    14A     -8.035080    15A     -1.756895
      16A     -1.708394    17A     -1.652883    18A     -1.652584
      19A     -1.626323    20A     -1.484588    21A     -1.176598
      22A     -1.049138    23A     -0.987505    24A     -0.908648
      25A     -0.851874    26A     -0.848922    27A     -0.841932
      28A     -0.832366    29A     -0.801449    30A     -0.760516
      31A     -0.731110    32A     -0.718653    33A     -0.703187
      34A     -0.694825    35A     -0.677281    36A     -0.663403
      37A     -0.661654    38A     -0.654268    39A     -0.635551
      40A     -0.629726    41A     -0.596038    42A     -0.558035
      43A     -0.528410    44A     -0.463284    45A     -0.454792

  @DF-RHF Final Energy: -1146.27282433525579

   => Energetics <=

    Nuclear Repulsion Energy =            777.4627632570319520
    One-Electron Energy =               -3138.2937493942290530
    Two-Electron Energy =                1214.5581618019414236
    DFT Exchange-Correlation Energy =       0.0000000000000000
    Empirical Dispersion Energy =           0.0000000000000000
    PCM Polarization Energy =               0.0000000000000000
    EFP Energy =                            0.0000000000000000
    Total Energy =                      -1146.2728243352557911

  Mulliken Charges: (a.u.)
   Center  Symbol    Alpha    Beta     Spin     Total
       1     H     0.39980  0.39980  0.00000  0.20040
       2     C     2.56166  2.56166  0.00000  0.87668
       3     O     4.30538  4.30538  0.00000 -0.61076
       4     F     4.68318  4.68318  0.00000 -0.36636
       5     F     4.68275  4.68275  0.00000 -0.36549
       6     C     3.05168  3.05168  0.00000 -0.10337
       7     C     2.43407  2.43407  0.00000  1.13186
       8    CL     8.50000  8.50000  0.00000  0.00000
       9     H     0.36380  0.36380  0.00000  0.27239
      10     F     4.67499  4.67499  0.00000 -0.34999
      11     F     4.67686  4.67686  0.00000 -0.35372
      12     F     4.66583  4.66583  0.00000 -0.33166

   Total alpha = 45.00000, Total beta = 45.00000, Total charge = -0.00000
