                              Psi4 1.0.54 Driver

  ==> Input File <==

--------------------------------------------------------------------------
set {
	reference rhf
	basis cc-pvtz
}

set_num_threads( 4 )
memory 2 gb

molecule MOL {
0 1

O	 0.074770	 1.259872	 0.000487
C	 0.029490	 0.077183	 0.000078
C	 -1.232113	 -0.748027	 0.000015
O	 1.106773	 -0.690081	 -0.000204
C	 -2.501422	 0.088592	 -0.000052
H	 -1.188777	 -1.400384	 -0.865133
H	 -1.188857	 -1.400312	 0.865225
H	 -2.548170	 0.725504	 -0.873205
H	 -3.371613	 -0.556398	 -0.000040
H	 -2.548215	 0.725571	 0.873047
C	 2.193393	 -0.283242	 0.806877
H	 2.556094	 0.685806	 0.497639
H	 2.960387	 -1.028348	 0.671367
H	 1.899871	 -0.234794	 1.845021

	symmetry c1
}
set optking {
	frozen_dihedral = ("
		11 4 2 3
	")
}

ee,wfn = optimize('scf', return_wfn=True)
oeprop( wfn, 'DIPOLE', 'QUADRUPOLE', 'MULLIKEN_CHARGES')
f=open( 'psi4out.xyz', 'w' )
f.write( "14  " )
f.write( str(ee) + "\n" )
f.write( MOL.save_string_xyz() )
f.close()
--------------------------------------------------------------------------

    Molecular point group: c1
  Charge       = 0
  Multiplicity = 1
  Basis Set: CC-PVTZ
  Basis Set:
  @DF-RHF Final Energy:  -305.97953467165235
    Total Energy =                       -305.9795346716521180
    Molecular point group: c1
  Basis Set: CC-PVTZ
  Basis Set:
  Basis Set: CC-PVTZ
  Basis Set:
  @DF-RHF Final Energy:  -305.97722299501265
    Total Energy =                       -305.9772229950127098
  Basis Set: CC-PVTZ
  Basis Set:
  Basis Set: CC-PVTZ
  Basis Set:
  @DF-RHF Final Energy:  -305.98012470627032
    Total Energy =                       -305.9801247062699758
  Basis Set: CC-PVTZ
  Basis Set:
  Basis Set: CC-PVTZ
  Basis Set:
  @DF-RHF Final Energy:  -305.98026396334774
    Total Energy =                       -305.9802639633477952
  Basis Set: CC-PVTZ
  Basis Set:
  Basis Set: CC-PVTZ
  Basis Set:
  @DF-RHF Final Energy:  -305.98029917810874
    Total Energy =                       -305.9802991781087371
  Basis Set: CC-PVTZ
  Basis Set:
  Basis Set: CC-PVTZ
  Basis Set:
  @DF-RHF Final Energy:  -305.98030340734471
    Total Energy =                       -305.9803034073444223
  Basis Set: CC-PVTZ
  Basis Set:
  Charge       = 0
  Multiplicity = 1
  Basis Set: CC-PVTZ
  Basis Set:

    Orbital Energies (a.u.)
    -----------------------

    Doubly Occupied:

       1A    -20.589818     2A    -20.538601     3A    -11.366672
       4A    -11.282064     5A    -11.238742     6A    -11.215778
       7A     -1.468637     8A     -1.367649     9A     -1.064991
      10A     -0.979389    11A     -0.883326    12A     -0.769271
      13A     -0.702445    14A     -0.681739    15A     -0.675926
      16A     -0.621769    17A     -0.607312    18A     -0.553732
      19A     -0.540810    20A     -0.522012    21A     -0.512316
      22A     -0.498170    23A     -0.459989    24A     -0.440722

  @DF-RHF Final Energy:  -305.98030380627301

   => Energetics <=

    Nuclear Repulsion Energy =            247.2490426869236728
    One-Electron Energy =                -907.2949301445333958
    Two-Electron Energy =                 354.0655836513369081
    DFT Exchange-Correlation Energy =       0.0000000000000000
    Empirical Dispersion Energy =           0.0000000000000000
    PCM Polarization Energy =               0.0000000000000000
    EFP Energy =                            0.0000000000000000
    Total Energy =                       -305.9803038062728433
    Molecular point group: c1
  Basis Set: CC-PVTZ
  Basis Set:

  -Total Gradient:
     Atom            X                  Y                   Z
    ------   -----------------  -----------------  -----------------
       1       -0.000002694756    -0.000108309248    -0.000061775219
       2       -0.001739456701    -0.000790324831    -0.006997802898
       3        0.000329536659    -0.001062472500     0.006807538989
       4        0.003929971183     0.006909889223    -0.005098285083
       5        0.000001188351    -0.000003149624    -0.000005850112
       6       -0.000003488750     0.000026501495     0.000028458475
       7       -0.000002226756     0.000008659823    -0.000009458663
       8       -0.000009547853    -0.000001293975     0.000004936517
       9        0.000004758468     0.000006568346    -0.000000282108
      10        0.000010765016    -0.000013503293    -0.000009116471
      11       -0.002531816315    -0.005000881241     0.005353992621
      12        0.000002730066    -0.000002993818     0.000000736254
      13       -0.000007159755     0.000020509365    -0.000000136564
      14        0.000017441146     0.000010800279    -0.000012955736

  **** Optimization is complete! (in 7 steps) ****
    Final optimized geometry and variables:
    Molecular point group: c1

    Geometry (in Angstrom), charge = 0, multiplicity = 1:

    O            0.075498367506     1.292774889775     0.155594986880
    C            0.048089340917     0.140453340830    -0.102517240531
    C           -1.199086800060    -0.701339565725    -0.169854623558
    O            1.148085976646    -0.592336141789    -0.268734671646
    C           -2.484355476994     0.108532458591    -0.222615482464
    H           -1.113205166183    -1.374144941613    -1.014713887811
    H           -1.168333760948    -1.330964033586     0.714565872596
    H           -2.518131090932     0.726790399295    -1.110599359738
    H           -3.341931067272    -0.552894909999    -0.237184881498
    H           -2.567929266930     0.761044475703     0.635336640420
    C            2.262031369319    -0.278516584182     0.543050303776
    H            2.641384803050     0.707547828680     0.322276463515
    H            3.012381382047    -1.020862164404     0.324986015419
    H            1.988497315926    -0.330639827246     1.588664640096

  Mulliken Charges: (a.u.)
   Center  Symbol    Alpha    Beta     Spin     Total
       1     O     4.18775  4.18775  0.00000 -0.37550
       2     C     2.80113  2.80113  0.00000  0.39774
       3     C     3.09288  3.09288  0.00000 -0.18575
       4     O     4.15593  4.15593  0.00000 -0.31187
       5     C     3.14098  3.14098  0.00000 -0.28196
       6     H     0.43873  0.43873  0.00000  0.12255
       7     H     0.44583  0.44583  0.00000  0.10833
       8     H     0.45002  0.45002  0.00000  0.09996
       9     H     0.45028  0.45028  0.00000  0.09945
      10     H     0.44579  0.44579  0.00000  0.10842
      11     C     3.03523  3.03523  0.00000 -0.07047
      12     H     0.44737  0.44737  0.00000  0.10525
      13     H     0.44549  0.44549  0.00000  0.10903
      14     H     0.46259  0.46259  0.00000  0.07482

   Total alpha = 24.00000, Total beta = 24.00000, Total charge = -0.00000

*** Psi4 exiting successfully. Buy a developer a beer!
