                              Psi4 1.0.54 Driver

  ==> Input File <==

--------------------------------------------------------------------------
set {
	reference rhf
	basis cc-pvtz
}

set_num_threads( 4 )
memory 2 gb

molecule MOL {
0 1

H	 -2.626237	 1.996872	 1.565766
C	 -2.073006	 1.211653	 2.075913
O	 -0.783153	 1.091830	 1.576450
H	 -1.999767	 1.462773	 3.123989
H	 -2.628145	 0.280496	 1.977674
C	 -0.718530	 0.758693	 0.228682
C	 0.718529	 0.758687	 -0.228709
H	 -1.141212	 -0.232408	 0.064275
H	 -1.284564	 1.468360	 -0.370825
O	 1.401606	 -0.295166	 0.366636
H	 0.748705	 0.673477	 -1.312803
H	 1.176496	 1.708671	 0.046552
C	 2.714315	 -0.441627	 -0.061017
H	 2.765292	 -0.641548	 -1.128869
H	 3.305661	 0.447341	 0.150952
H	 3.143725	 -1.278506	 0.470147

	symmetry c1
}
set optking {
	frozen_dihedral = ("
		3 6 7 11
	")
}

ee,wfn = optimize('scf', return_wfn=True)
oeprop( wfn, 'DIPOLE', 'QUADRUPOLE', 'MULLIKEN_CHARGES')
f=open( 'psi4out.xyz', 'w' )
f.write( "16  " )
f.write( str(ee) + "\n" )
f.write( MOL.save_string_xyz() )
f.close()
--------------------------------------------------------------------------

    Molecular point group: c1
  Charge       = 0
  Multiplicity = 1
  Basis Set: CC-PVTZ
  Basis Set:
  @DF-RHF Final Energy:  -307.09750290121588
    Total Energy =                       -307.0975029012158188
    Molecular point group: c1
  Basis Set: CC-PVTZ
  Basis Set:
  Basis Set: CC-PVTZ
  Basis Set:
  @DF-RHF Final Energy:  -307.09784998647990
    Total Energy =                       -307.0978499864801279
  Basis Set: CC-PVTZ
  Basis Set:
  Basis Set: CC-PVTZ
  Basis Set:
  @DF-RHF Final Energy:  -307.09789860518458
    Total Energy =                       -307.0978986051845823
  Basis Set: CC-PVTZ
  Basis Set:
  Charge       = 0
  Multiplicity = 1
  Basis Set: CC-PVTZ
  Basis Set:

    Orbital Energies (a.u.)
    -----------------------

    Doubly Occupied:

       1A    -20.547661     2A    -20.547538     3A    -11.267720
       4A    -11.267040     5A    -11.261555     6A    -11.261514
       7A     -1.391886     8A     -1.374282     9A     -1.032148
      10A     -0.936971    11A     -0.892647    12A     -0.823875
      13A     -0.686957    14A     -0.682459    15A     -0.659577
      16A     -0.638778    17A     -0.631258    18A     -0.598323
      19A     -0.552559    20A     -0.534844    21A     -0.509878
      22A     -0.479435    23A     -0.464900    24A     -0.422670
      25A     -0.414058

  @DF-RHF Final Energy:  -307.09790238461534

   => Energetics <=

    Nuclear Repulsion Energy =            259.1071908259138468
    One-Electron Energy =                -932.6491198838848504
    Two-Electron Energy =                 366.4440266733556086
    DFT Exchange-Correlation Energy =       0.0000000000000000
    Empirical Dispersion Energy =           0.0000000000000000
    PCM Polarization Energy =               0.0000000000000000
    EFP Energy =                            0.0000000000000000
    Total Energy =                       -307.0979023846153382
    Molecular point group: c1
  Basis Set: CC-PVTZ
  Basis Set:

  -Total Gradient:
     Atom            X                  Y                   Z
    ------   -----------------  -----------------  -----------------
       1       -0.000008666648    -0.000008498728     0.000007781466
       2        0.000003590546     0.000050447486    -0.000004452127
       3        0.000002878078    -0.000745773415     0.000211402763
       4       -0.000007095747    -0.000006161046     0.000007451020
       5        0.000007170583    -0.000014608472    -0.000004055627
       6        0.000032364729     0.000657332979    -0.000251090984
       7        0.000049085372     0.000973355480    -0.000029863710
       8       -0.000012651993     0.000012510522     0.000037184836
       9        0.000039849527     0.000002405285    -0.000042389028
      10       -0.000157702181    -0.000004204567     0.000099609011
      11       -0.000065543195    -0.000908734676     0.000047691825
      12       -0.000000590163    -0.000015733441     0.000000257833
      13        0.000137204084    -0.000004166233    -0.000125220785
      14        0.000023310820    -0.000008818836     0.000024704992
      15       -0.000013157572    -0.000006787165     0.000017774428
      16       -0.000030046243     0.000027434829     0.000003214088

  **** Optimization is complete! (in 4 steps) ****
    Final optimized geometry and variables:
    Molecular point group: c1

    Geometry (in Angstrom), charge = 0, multiplicity = 1:

    H           -2.850983537074     1.408323149120     1.004915119384
    C           -2.206382601971     0.675152788322     1.486399132574
    O           -0.941360617421     0.653845252194     0.914819381528
    H           -2.094563987132     0.942006791660     2.527144601773
    H           -2.687441412081    -0.298371695990     1.424581495682
    C           -0.927933494527     0.329569959093    -0.436067115855
    C            0.494863640164     0.240339008225    -0.927146887272
    H           -1.425034631166    -0.623251542090    -0.605894471746
    H           -1.452529861743     1.089755002228    -1.014951105395
    O            1.112447173649    -0.876019939255    -0.375978406534
    H            0.485018253908     0.163356817864    -2.014462095000
    H            1.028525617926     1.148657288993    -0.656014064725
    C            2.456247276867    -1.005729775697    -0.700371912096
    H            2.602024512247    -1.092801627362    -1.775556557182
    H            3.035787562192    -0.157774323852    -0.342589078347
    H            2.825322366994    -1.903511232421    -0.226507005378

  Mulliken Charges: (a.u.)
   Center  Symbol    Alpha    Beta     Spin     Total
       1     H     0.47367  0.47367  0.00000  0.05266
       2     C     3.03205  3.03205  0.00000 -0.06410
       3     O     4.16983  4.16983  0.00000 -0.33967
       4     H     0.44628  0.44628  0.00000  0.10744
       5     H     0.47035  0.47035  0.00000  0.05929
       6     C     2.96083  2.96083  0.00000  0.07834
       7     C     2.96110  2.96110  0.00000  0.07780
       8     H     0.47098  0.47098  0.00000  0.05803
       9     H     0.47598  0.47598  0.00000  0.04805
      10     O     4.16990  4.16990  0.00000 -0.33981
      11     H     0.47596  0.47596  0.00000  0.04808
      12     H     0.47068  0.47068  0.00000  0.05864
      13     C     3.03201  3.03201  0.00000 -0.06403
      14     H     0.47375  0.47375  0.00000  0.05251
      15     H     0.47034  0.47034  0.00000  0.05933
      16     H     0.44628  0.44628  0.00000  0.10744

   Total alpha = 25.00000, Total beta = 25.00000, Total charge = -0.00000

*** Psi4 exiting successfully. Buy a developer a beer!
