  ==> Input File <==

--------------------------------------------------------------------------
set {
	reference rhf
	basis 6-31G*
}

set_num_threads( 1 )
memory 2 gb

molecule MOL {
0 1

O	 -0.988096	 -1.408613	 0.050699
C	 -0.676749	 -0.249230	 -0.009274
C	 -1.746085	 0.827156	 -0.009539
N	 0.623947	 0.147590	 -0.102813
H	 -1.701500	 1.431508	 -0.908902
H	 -2.703425	 0.330732	 0.036390
H	 -1.647323	 1.487769	 0.845106
C	 1.420582	 0.207473	 1.107006
C	 1.179506	 0.839752	 -1.244965
H	 2.429392	 -0.127398	 0.892109
H	 0.984204	 -0.430673	 1.855528
H	 1.472028	 1.221957	 1.496360
H	 2.224089	 0.571074	 -1.348391
H	 0.679412	 0.562272	 -2.159211
H	 1.120834	 1.920867	 -1.132884

	symmetry c1
}
set optking {
	frozen_dihedral = ("
		2 4 8 10
	")
}

ee = energy('scf')
oeprop('DIPOLE', 'QUADRUPOLE', 'MULLIKEN_CHARGES')
f=open( 'psi4out.xyz', 'w' )
f.write( "15  " )
f.write( str(ee) + "\n" )
f.write( MOL.save_string_xyz() )
f.close()
--------------------------------------------------------------------------

    Molecular point group: c1

    Geometry (in Angstrom), charge = 0, multiplicity = 1:

       Center              X                  Y                   Z               Mass
    ------------   -----------------  -----------------  -----------------  -----------------
           O         -0.964433981054    -1.478219352310     0.084433941655    15.994914619560
           C         -0.653086981054    -0.318836352310     0.024460941655    12.000000000000
           C         -1.722422981054     0.757549647690     0.024195941655    12.000000000000
           N          0.647609018946     0.077983647690    -0.069078058345    14.003074004780
           H         -1.677837981054     1.361901647690    -0.875167058345     1.007825032070
           H         -2.679762981054     0.261125647690     0.070124941655     1.007825032070
           H         -1.623660981054     1.418162647690     0.878840941655     1.007825032070
           C          1.444244018946     0.137866647690     1.140740941655    12.000000000000
           C          1.203168018946     0.770145647690    -1.211230058345    12.000000000000
           H          2.453054018946    -0.197004352310     0.925843941655     1.007825032070
           H          1.007866018946    -0.500279352310     1.889262941655     1.007825032070
           H          1.495690018946     1.152350647690     1.530094941655     1.007825032070
           H          2.247751018946     0.501467647690    -1.314656058345     1.007825032070
           H          0.703074018946     0.492665647690    -2.125476058345     1.007825032070
           H          1.144496018946     1.851260647690    -1.099149058345     1.007825032070

  Charge       = 0
  Multiplicity = 1
  Basis Set: 6-31G*
  Basis Set:

    Orbital Energies (a.u.)
    -----------------------

    Doubly Occupied:

       1A    -20.543626     2A    -15.551958     3A    -11.347361
       4A    -11.261381     5A    -11.257657     6A    -11.225193
       7A     -1.395916     8A     -1.237498     9A     -1.006819
      10A     -0.974294    11A     -0.917625    12A     -0.739763
      13A     -0.675690    14A     -0.659394    15A     -0.645228
      16A     -0.600018    17A     -0.582591    18A     -0.578894
      19A     -0.558761    20A     -0.547088    21A     -0.536590
      22A     -0.484787    23A     -0.422794    24A     -0.352043

  @DF-RHF Final Energy:  -285.99622685676650

   => Energetics <=

    Nuclear Repulsion Energy =            251.1554750636630899
    One-Electron Energy =                -886.0974415513452414
    Two-Electron Energy =                 348.9457396309154547
    DFT Exchange-Correlation Energy =       0.0000000000000000
    Empirical Dispersion Energy =           0.0000000000000000
    PCM Polarization Energy =               0.0000000000000000
    EFP Energy =                            0.0000000000000000
    Total Energy =                       -285.9962268567667252

  Mulliken Charges: (a.u.)
   Center  Symbol    Alpha    Beta     Spin     Total
       1     O     4.25488  4.25488  0.00000 -0.50976
       2     C     2.65643  2.65643  0.00000  0.68714
       3     C     3.28584  3.28584  0.00000 -0.57167
       4     N     3.82438  3.82438  0.00000 -0.64876
       5     H     0.40898  0.40898  0.00000  0.18203
       6     H     0.39804  0.39804  0.00000  0.20392
       7     H     0.40826  0.40826  0.00000  0.18348
       8     C     3.13751  3.13751  0.00000 -0.27502
       9     C     3.13744  3.13744  0.00000 -0.27489
      10     H     0.41326  0.41326  0.00000  0.17348
      11     H     0.40375  0.40375  0.00000  0.19250
      12     H     0.42596  0.42596  0.00000  0.14808
      13     H     0.41006  0.41006  0.00000  0.17988
      14     H     0.40918  0.40918  0.00000  0.18163
      15     H     0.42602  0.42602  0.00000  0.14796

   Total alpha = 24.00000, Total beta = 24.00000, Total charge =  0.00000
