                              Psi4 1.0.54 Driver

  ==> Input File <==

--------------------------------------------------------------------------
set {
	reference rhf
	basis cc-pvtz
}

set_num_threads( 4 )
memory 2 gb

molecule MOL {
0 1

H	 3.273419	 0.176595	 -0.102789
N	 2.433987	 -0.362316	 -0.080024
C	 1.263552	 0.494993	 0.021953
H	 2.497638	 -0.973615	 0.707122
C	 -0.016533	 -0.325589	 -0.026925
H	 1.280915	 1.180773	 -0.818522
H	 1.263064	 1.106893	 0.925038
C	 -1.280353	 0.525521	 0.047747
H	 -0.016686	 -0.912532	 -0.939714
H	 -0.014099	 -1.037598	 0.796369
C	 -1.222828	 1.584215	 1.144036
H	 -2.138087	 -0.119856	 0.217293
H	 -1.448938	 1.009876	 -0.910300
H	 -1.088555	 1.129437	 2.119677
H	 -2.135098	 2.168859	 1.174110
H	 -0.396489	 2.268787	 0.983700

	symmetry c1
}
set optking {
	frozen_dihedral = ("
		12 8 5 9
	")
}

ee,wfn = optimize('scf', return_wfn=True)
oeprop( wfn, 'DIPOLE', 'QUADRUPOLE', 'MULLIKEN_CHARGES')
f=open( 'psi4out.xyz', 'w' )
f.write( "16  " )
f.write( str(ee) + "\n" )
f.write( MOL.save_string_xyz() )
f.close()
--------------------------------------------------------------------------

    Molecular point group: c1
  Charge       = 0
  Multiplicity = 1
  Basis Set: CC-PVTZ
  Basis Set:
  @DF-RHF Final Energy:  -212.39515902665454
    Total Energy =                       -212.3951590266544827
    Molecular point group: c1
  Basis Set: CC-PVTZ
  Basis Set:
  Basis Set: CC-PVTZ
  Basis Set:
  @DF-RHF Final Energy:  -212.39501720044535
    Total Energy =                       -212.3950172004454657
  Basis Set: CC-PVTZ
  Basis Set:
  Basis Set: CC-PVTZ
  Basis Set:
  @DF-RHF Final Energy:  -212.39701155439349
    Total Energy =                       -212.3970115543935435
  Basis Set: CC-PVTZ
  Basis Set:
  Basis Set: CC-PVTZ
  Basis Set:
  @DF-RHF Final Energy:  -212.39715563581098
    Total Energy =                       -212.3971556358109183
  Basis Set: CC-PVTZ
  Basis Set:
  Basis Set: CC-PVTZ
  Basis Set:
  @DF-RHF Final Energy:  -212.39716843895960
    Total Energy =                       -212.3971684389596248
  Basis Set: CC-PVTZ
  Basis Set:
  Basis Set: CC-PVTZ
  Basis Set:
  @DF-RHF Final Energy:  -212.39717014151671
    Total Energy =                       -212.3971701415166535
  Basis Set: CC-PVTZ
  Basis Set:
  Charge       = 0
  Multiplicity = 1
  Basis Set: CC-PVTZ
  Basis Set:

    Orbital Energies (a.u.)
    -----------------------

    Doubly Occupied:

       1A    -15.526158     2A    -11.237183     3A    -11.213641
       4A    -11.208435     5A    -11.206511     6A     -1.177884
       7A     -1.059245     8A     -0.955468     9A     -0.860970
      10A     -0.777884    11A     -0.655298    12A     -0.641452
      13A     -0.623166    14A     -0.569752    15A     -0.556896
      16A     -0.536119    17A     -0.505684    18A     -0.467327
      19A     -0.464674    20A     -0.458248    21A     -0.383312

  @DF-RHF Final Energy:  -212.39717023427860

   => Energetics <=

    Nuclear Repulsion Energy =            189.2763738407062704
    One-Electron Energy =                -661.1764717887764391
    Two-Electron Energy =                 259.5029277137915074
    DFT Exchange-Correlation Energy =       0.0000000000000000
    Empirical Dispersion Energy =           0.0000000000000000
    PCM Polarization Energy =               0.0000000000000000
    EFP Energy =                            0.0000000000000000
    Total Energy =                       -212.3971702342786898
    Molecular point group: c1
  Basis Set: CC-PVTZ
  Basis Set:

  -Total Gradient:
     Atom            X                  Y                   Z
    ------   -----------------  -----------------  -----------------
       1       -0.000003434734    -0.000002390858    -0.000002717717
       2        0.000000468081    -0.000001741242     0.000002641178
       3        0.000003019019     0.000001033279     0.000003913876
       4        0.000002261122     0.000005401250    -0.000001394500
       5       -0.001757439154    -0.003358974278     0.003136868361
       6        0.000001033857    -0.000002274071     0.000003681218
       7       -0.000004746659    -0.000007077442    -0.000008480081
       8       -0.000308918489     0.000046933026    -0.004872667855
       9        0.001528531798     0.002824076236    -0.001903689188
      10       -0.000001792134     0.000004904739    -0.000002698230
      11       -0.000002052783     0.000009836208     0.000004384441
      12        0.000541556889     0.000492675360     0.003634593140
      13        0.000000958584    -0.000004586629     0.000002276868
      14       -0.000005848865     0.000004094589    -0.000000792367
      15        0.000012648868    -0.000000666569    -0.000001067986
      16       -0.000006245403    -0.000011243599     0.000005148841

  **** Optimization is complete! (in 7 steps) ****
    Final optimized geometry and variables:
    Molecular point group: c1

    Geometry (in Angstrom), charge = 0, multiplicity = 1:

    H            3.006899838214    -0.104921293581    -0.600523651885
    N            2.184135803911    -0.665443587156    -0.531074350909
    C            1.015367374322     0.155838355345    -0.249840918453
    H            2.339913602645    -1.323645524031     0.204016471724
    C           -0.235916448847    -0.712069603153    -0.178929374121
    H            0.909711802315     0.870166960212    -1.060598493804
    H            1.122998303871     0.732813132501     0.666274547228
    C           -1.554736376325     0.061254050624    -0.088365572211
    H           -0.243227801073    -1.316470158077    -1.079045080874
    H           -0.150012471510    -1.390042899094     0.667232613942
    C           -1.604377991607     1.139374793506     0.994526788074
    H           -2.346718840254    -0.649693477343     0.124544818889
    H           -1.779334040731     0.509667639590    -1.051163195525
    H           -1.351724306704     0.729913067984     1.967688472884
    H           -2.600677445385     1.560746781420     1.064626191049
    H           -0.920731600359     1.954640270579     0.791668417675

  Mulliken Charges: (a.u.)
   Center  Symbol    Alpha    Beta     Spin     Total
       1     H     0.43010  0.43010  0.00000  0.13979
       2     N     3.69104  3.69104  0.00000 -0.38208
       3     C     3.02705  3.02705  0.00000 -0.05409
       4     H     0.43092  0.43092  0.00000  0.13816
       5     C     3.09118  3.09118  0.00000 -0.18236
       6     H     0.45673  0.45673  0.00000  0.08654
       7     H     0.46468  0.46468  0.00000  0.07065
       8     C     3.09303  3.09303  0.00000 -0.18606
       9     H     0.44473  0.44473  0.00000  0.11054
      10     H     0.45804  0.45804  0.00000  0.08391
      11     C     3.15679  3.15679  0.00000 -0.31358
      12     H     0.44985  0.44985  0.00000  0.10031
      13     H     0.45187  0.45187  0.00000  0.09627
      14     H     0.45466  0.45466  0.00000  0.09069
      15     H     0.44574  0.44574  0.00000  0.10853
      16     H     0.45361  0.45361  0.00000  0.09279

   Total alpha = 21.00000, Total beta = 21.00000, Total charge = -0.00000

*** Psi4 exiting successfully. Buy a developer a beer!
