  ==> Input File <==

--------------------------------------------------------------------------
set {
	reference rhf
	basis cc-pvtz
}

set_num_threads( 4 )
memory 2 gb

molecule MOL {
0 1

H	 2.646708	 0.758099	 0.000000
O	 2.258158	 -0.097743	 0.000000
C	 0.911162	 -0.015915	 0.000000
C	 0.197397	 -1.203072	 0.000000
C	 0.242941	 1.194003	 0.000000
H	 0.732428	 -2.132180	 0.000000
C	 -1.180238	 -1.168487	 0.000000
H	 0.796735	 2.115395	 0.000000
C	 -1.140561	 1.213548	 0.000000
H	 -1.728158	 -2.091625	 0.000000
C	 -1.861129	 0.037660	 0.000000
H	 -1.651614	 2.157556	 0.000000
H	 -2.933294	 0.056573	 0.000000

	symmetry c1
}
set optking {
	frozen_dihedral = ("
		4 3 2 1
	")
}

ee = optimize('scf')
oeprop('DIPOLE', 'QUADRUPOLE', 'MULLIKEN_CHARGES')
f=open( 'psi4out.xyz', 'w' )
f.write( "13  " )
f.write( str(ee) + "\n" )
f.write( MOL.save_string_xyz() )
f.close()
--------------------------------------------------------------------------

    Molecular point group: c1
  Charge       = 0
  Multiplicity = 1
  Basis Set: CC-PVTZ
  Basis Set:

    Orbital Energies (a.u.)
    -----------------------

    Doubly Occupied:

       1A    -20.585087     2A    -11.297752     3A    -11.235266
       4A    -11.233462     5A    -11.226152     6A    -11.220557
       7A    -11.219364     8A     -1.415752     9A     -1.152666
      10A     -1.022846    11A     -1.008406    12A     -0.851570
      13A     -0.826711    14A     -0.741620    15A     -0.688379
      16A     -0.654920    17A     -0.612272    18A     -0.595494
      19A     -0.592292    20A     -0.568783    21A     -0.517582
      22A     -0.492816    23A     -0.485766    24A     -0.343278
      25A     -0.314628

  @DF-RHF Final Energy:  -305.67055859342400

   => Energetics <=

    Nuclear Repulsion Energy =            273.8411305241081095
    One-Electron Energy =                -957.2165368992530148
    Two-Electron Energy =                 377.7048477817210141
    DFT Exchange-Correlation Energy =       0.0000000000000000
    Empirical Dispersion Energy =           0.0000000000000000
    PCM Polarization Energy =               0.0000000000000000
    EFP Energy =                            0.0000000000000000
    Total Energy =                       -305.6705585934238343
    Molecular point group: c1
  Basis Set: CC-PVTZ
  Basis Set:

  -Total Gradient:
     Atom            X                  Y                   Z
    ------   -----------------  -----------------  -----------------
       1        0.000007119431    -0.000080353823     0.000000000000
       2        0.000257662228     0.000090001703    -0.000000000000
       3       -0.000287785887     0.000148573230     0.000000000000
       4       -0.000121679457    -0.000104186249    -0.000000000000
       5        0.000193474391    -0.000065358451    -0.000000000000
       6        0.000018888469     0.000034563550     0.000000000000
       7        0.000099201129    -0.000103455959     0.000000000000
       8       -0.000016842767    -0.000016465483     0.000000000000
       9       -0.000154156528    -0.000053807044    -0.000000000000
      10       -0.000012781726     0.000022838404    -0.000000000000
      11        0.000000268270     0.000144079034    -0.000000000000
      12       -0.000000173528    -0.000011778979    -0.000000000000
      13        0.000016805976    -0.000004649934     0.000000000000

  **** Optimization is complete! (in 1 steps) ****
    Final optimized geometry and variables:
    Molecular point group: c1

    Geometry (in Angstrom), charge = 0, multiplicity = 1:

    H            2.646708108589     0.758098676060     0.000000000000
    O            2.258158108589    -0.097743323940     0.000000000000
    C            0.911162108589    -0.015915323940     0.000000000000
    C            0.197397108589    -1.203072323940     0.000000000000
    C            0.242941108589     1.194002676060     0.000000000000
    H            0.732428108589    -2.132180323940     0.000000000000
    C           -1.180237891411    -1.168487323940     0.000000000000
    H            0.796735108589     2.115394676060     0.000000000000
    C           -1.140560891411     1.213547676060     0.000000000000
    H           -1.728157891411    -2.091625323940     0.000000000000
    C           -1.861128891411     0.037659676060     0.000000000000
    H           -1.651613891411     2.157555676060     0.000000000000
    H           -2.933293891411     0.056572676060     0.000000000000

  Mulliken Charges: (a.u.)
   Center  Symbol    Alpha    Beta     Spin     Total
       1     H     0.38746  0.38746  0.00000  0.22507
       2     O     4.17477  4.17477  0.00000 -0.34953
       3     C     2.84884  2.84884  0.00000  0.30232
       4     C     3.11110  3.11110  0.00000 -0.22219
       5     C     3.13454  3.13454  0.00000 -0.26909
       6     H     0.41954  0.41954  0.00000  0.16093
       7     C     3.05641  3.05641  0.00000 -0.11282
       8     H     0.43514  0.43514  0.00000  0.12972
       9     C     3.06466  3.06466  0.00000 -0.12933
      10     H     0.42242  0.42242  0.00000  0.15515
      11     C     3.09881  3.09881  0.00000 -0.19763
      12     H     0.42237  0.42237  0.00000  0.15525
      13     H     0.42394  0.42394  0.00000  0.15213

   Total alpha = 25.00000, Total beta = 25.00000, Total charge = -0.00000
