                              Psi4 1.0.54 Driver

  ==> Input File <==

--------------------------------------------------------------------------
set {
	reference rhf
	basis cc-pvtz
}

set_num_threads( 4 )
memory 2 gb

molecule MOL {
0 1

H	 2.867672	 -0.456275	 0.875795
C	 2.403497	 -0.020426	 0.000000
N	 0.989899	 -0.304564	 0.000000
H	 2.867672	 -0.456275	 -0.875795
H	 2.620366	 1.051270	 0.000000
C	 0.187629	 0.878615	 0.232412
C	 0.636182	 -1.352953	 0.934523
H	 0.406822	 1.325023	 1.207306
H	 0.415681	 1.618678	 -0.525893
C	 -1.286669	 0.528850	 0.166426
H	 1.193352	 -2.250266	 0.691379
H	 0.889113	 -1.074393	 1.962226
C	 -0.849641	 -1.645380	 0.850496
H	 -1.891810	 1.385230	 0.429187
H	 -1.542828	 0.222939	 -0.845947
O	 -1.604392	 -0.490196	 1.067393
H	 -1.138882	 -2.360617	 1.607730
H	 -1.083185	 -2.063802	 -0.126478

	symmetry c1
}
set optking {
	frozen_dihedral = ("
		6 3 2 5
	")
}

ee,wfn = optimize('scf', return_wfn=True)
oeprop( wfn, 'DIPOLE', 'QUADRUPOLE', 'MULLIKEN_CHARGES')
f=open( 'psi4out.xyz', 'w' )
f.write( "18  " )
f.write( str(ee) + "\n" )
f.write( MOL.save_string_xyz() )
f.close()
--------------------------------------------------------------------------

    Molecular point group: c1
  Charge       = 0
  Multiplicity = 1
  Basis Set: CC-PVTZ
  Basis Set:
  @DF-RHF Final Energy:  -325.13964197329148
    Total Energy =                       -325.1396419732913046
    Molecular point group: c1
  Basis Set: CC-PVTZ
  Basis Set:
  Basis Set: CC-PVTZ
  Basis Set:
  @DF-RHF Final Energy:  -325.14050442734776
    Total Energy =                       -325.1405044273477642
  Basis Set: CC-PVTZ
  Basis Set:
  Basis Set: CC-PVTZ
  Basis Set:
  @DF-RHF Final Energy:  -325.14065016402014
    Total Energy =                       -325.1406501640202009
  Basis Set: CC-PVTZ
  Basis Set:
  Basis Set: CC-PVTZ
  Basis Set:
  @DF-RHF Final Energy:  -325.14066300330444
    Total Energy =                       -325.1406630033044394
  Basis Set: CC-PVTZ
  Basis Set:
  Charge       = 0
  Multiplicity = 1
  Basis Set: CC-PVTZ
  Basis Set:

    Orbital Energies (a.u.)
    -----------------------

    Doubly Occupied:

       1A    -20.547051     2A    -15.540420     3A    -11.263632
       4A    -11.263554     5A    -11.242567     6A    -11.242382
       7A    -11.239010     8A     -1.385871     9A     -1.229586
      10A     -1.039011    11A     -0.981196    12A     -0.883938
      13A     -0.870248    14A     -0.773207    15A     -0.684477
      16A     -0.645828    17A     -0.644658    18A     -0.632519
      19A     -0.628246    20A     -0.572530    21A     -0.557844
      22A     -0.547646    23A     -0.526799    24A     -0.499893
      25A     -0.485564    26A     -0.453539    27A     -0.410198
      28A     -0.347474

  @DF-RHF Final Energy:  -325.14066399694377

   => Energetics <=

    Nuclear Repulsion Energy =            341.4079842643545817
    One-Electron Energy =               -1118.8195225774938990
    Two-Electron Energy =                 452.2708743161953748
    DFT Exchange-Correlation Energy =       0.0000000000000000
    Empirical Dispersion Energy =           0.0000000000000000
    PCM Polarization Energy =               0.0000000000000000
    EFP Energy =                            0.0000000000000000
    Total Energy =                       -325.1406639969439425
    Molecular point group: c1
  Basis Set: CC-PVTZ
  Basis Set:

  -Total Gradient:
     Atom            X                  Y                   Z
    ------   -----------------  -----------------  -----------------
       1        0.000008736002     0.000004306069     0.000005776030
       2       -0.000129959682     0.000057869502    -0.005365421186
       3        0.000207140617    -0.000490908525     0.004478462486
       4       -0.000037982117    -0.000005344709     0.000048663446
       5        0.000126186051     0.000109664828     0.003374944986
       6       -0.000161729932     0.000406796838    -0.002518194662
       7       -0.000009582752    -0.000017956838    -0.000030380988
       8        0.000018009865    -0.000009770379    -0.000004382326
       9       -0.000004347487    -0.000006160700    -0.000001831357
      10       -0.000009747900    -0.000051625058    -0.000037021976
      11       -0.000003013647    -0.000000623899     0.000003740232
      12       -0.000009791346    -0.000000875580    -0.000011813697
      13       -0.000013344318    -0.000020907309     0.000052168720
      14        0.000004071018    -0.000010719041     0.000009155180
      15       -0.000002764794     0.000016061701    -0.000018853819
      16        0.000025452527     0.000019902661     0.000005269770
      17       -0.000025732711    -0.000008696151     0.000002918068
      18        0.000018400604     0.000008986591     0.000006801092

  **** Optimization is complete! (in 5 steps) ****
    Final optimized geometry and variables:
    Molecular point group: c1

    Geometry (in Angstrom), charge = 0, multiplicity = 1:

    H            2.865884873922    -0.005122423438     0.392160868020
    C            2.344408449715     0.357101394309    -0.492471366161
    N            0.923298727133     0.077997320590    -0.430447631837
    H            2.800895463340    -0.105268256163    -1.360079365947
    H            2.524081800066     1.424108310957    -0.531716076524
    C            0.090333217896     1.238742949618    -0.205846888786
    C            0.582426704666    -1.011243091582     0.455844200844
    H            0.276601828329     1.692384557220     0.773055768543
    H            0.306388134589     1.985416754016    -0.960459855020
    C           -1.372711159526     0.848259525790    -0.298391323171
    H            1.157847420372    -1.888697471318     0.182862999952
    H            0.821702528071    -0.771271582645     1.496711040137
    C           -0.896458098557    -1.329705094402     0.346261045604
    H           -2.005674499184     1.683113616740    -0.031426982301
    H           -1.604700586351     0.551669193333    -1.319503599512
    O           -1.675183649419    -0.194152949187     0.580770844439
    H           -1.181390444095    -2.068420910866     1.082500039607
    H           -1.110189577301    -1.728542737154    -0.643448986002

  Mulliken Charges: (a.u.)
   Center  Symbol    Alpha    Beta     Spin     Total
       1     H     0.46421  0.46421  0.00000  0.07158
       2     C     3.09073  3.09073  0.00000 -0.18146
       3     N     3.61883  3.61883  0.00000 -0.23766
       4     H     0.44914  0.44914  0.00000  0.10172
       5     H     0.45712  0.45712  0.00000  0.08576
       6     C     3.04037  3.04037  0.00000 -0.08075
       7     C     3.04104  3.04104  0.00000 -0.08209
       8     H     0.46953  0.46953  0.00000  0.06094
       9     H     0.45388  0.45388  0.00000  0.09224
      10     C     2.98429  2.98429  0.00000  0.03141
      11     H     0.45382  0.45382  0.00000  0.09235
      12     H     0.46912  0.46912  0.00000  0.06176
      13     C     2.98424  2.98424  0.00000  0.03152
      14     H     0.45011  0.45011  0.00000  0.09978
      15     H     0.46853  0.46853  0.00000  0.06294
      16     O     4.18642  4.18642  0.00000 -0.37283
      17     H     0.45017  0.45017  0.00000  0.09967
      18     H     0.46844  0.46844  0.00000  0.06312

   Total alpha = 28.00000, Total beta = 28.00000, Total charge = -0.00000

*** Psi4 exiting successfully. Buy a developer a beer!
