  ==> Input File <==

--------------------------------------------------------------------------
set {
	reference rhf
	basis 6-31G*
}

set_num_threads( 1 )
memory 2 gb

molecule MOL {
0 1

O	 -0.682937	 1.318834	 -0.186099
C	 -0.860635	 0.152188	 -0.042321
C	 -2.173363	 -0.477127	 0.338347
O	 0.083258	 -0.765189	 -0.202595
H	 -2.477673	 -1.180929	 -0.427595
H	 -2.923125	 0.290956	 0.455536
H	 -2.058825	 -1.029004	 1.264191
C	 1.392086	 -0.334687	 -0.569248
C	 2.197188	 0.093489	 0.643651
H	 1.313707	 0.464735	 -1.290304
H	 1.837415	 -1.196496	 -1.045133
H	 3.210141	 0.342638	 0.342684
H	 1.757073	 0.965592	 1.110666
H	 2.245729	 -0.708839	 1.371887

	symmetry c1
}
set optking {
	frozen_dihedral = ("
		10 8 4 2
	")
}

ee = energy('scf')
oeprop('DIPOLE', 'QUADRUPOLE', 'MULLIKEN_CHARGES')
f=open( 'psi4out.xyz', 'w' )
f.write( "14  " )
f.write( str(ee) + "\n" )
f.write( MOL.save_string_xyz() )
f.close()
--------------------------------------------------------------------------

    Molecular point group: c1

    Geometry (in Angstrom), charge = 0, multiplicity = 1:

       Center              X                  Y                   Z               Mass
    ------------   -----------------  -----------------  -----------------  -----------------
           O         -0.682921860698     1.318896898338    -0.186370387536    15.994914619560
           C         -0.860619860698     0.152250898338    -0.042592387536    12.000000000000
           C         -2.173347860698    -0.477064101662     0.338075612464    12.000000000000
           O          0.083273139302    -0.765126101662    -0.202866387536    15.994914619560
           H         -2.477657860698    -1.180866101662    -0.427866387536     1.007825032070
           H         -2.923109860698     0.291018898338     0.455264612464     1.007825032070
           H         -2.058809860698    -1.028941101662     1.263919612464     1.007825032070
           C          1.392101139302    -0.334624101662    -0.569519387536    12.000000000000
           C          2.197203139302     0.093551898338     0.643379612464    12.000000000000
           H          1.313722139302     0.464797898338    -1.290575387536     1.007825032070
           H          1.837430139302    -1.196433101662    -1.045404387536     1.007825032070
           H          3.210156139302     0.342700898338     0.342412612464     1.007825032070
           H          1.757088139302     0.965654898338     1.110394612464     1.007825032070
           H          2.245744139302    -0.708776101662     1.371615612464     1.007825032070

  Charge       = 0
  Multiplicity = 1
  Basis Set: 6-31G*
  Basis Set:

    Orbital Energies (a.u.)
    -----------------------

    Doubly Occupied:

       1A    -20.601914     2A    -20.544685     3A    -11.375966
       4A    -11.285296     5A    -11.233389     6A    -11.218419
       7A     -1.467683     8A     -1.362894     9A     -1.055050
      10A     -0.998747    11A     -0.882718    12A     -0.765301
      13A     -0.699316    14A     -0.681973    15A     -0.657138
      16A     -0.610372    17A     -0.587014    18A     -0.570137
      19A     -0.558890    20A     -0.528883    21A     -0.516442
      22A     -0.494317    23A     -0.450643    24A     -0.438950

  @DF-RHF Final Energy:  -305.87549732329342

   => Energetics <=

    Nuclear Repulsion Energy =            248.8325872984729870
    One-Electron Energy =                -910.2438218920327699
    Two-Electron Energy =                 355.5357372702662815
    DFT Exchange-Correlation Energy =       0.0000000000000000
    Empirical Dispersion Energy =           0.0000000000000000
    PCM Polarization Energy =               0.0000000000000000
    EFP Energy =                            0.0000000000000000
    Total Energy =                       -305.8754973232935299

  Mulliken Charges: (a.u.)
   Center  Symbol    Alpha    Beta     Spin     Total
       1     O     4.28456  4.28456  0.00000 -0.56912
       2     C     2.61996  2.61996  0.00000  0.76008
       3     C     3.28158  3.28158  0.00000 -0.56316
       4     O     4.30714  4.30714  0.00000 -0.61429
       5     H     0.40019  0.40019  0.00000  0.19962
       6     H     0.39706  0.39706  0.00000  0.20589
       7     H     0.40045  0.40045  0.00000  0.19909
       8     C     3.00680  3.00680  0.00000 -0.01361
       9     C     3.25489  3.25489  0.00000 -0.50978
      10     H     0.40290  0.40290  0.00000  0.19420
      11     H     0.41005  0.41005  0.00000  0.17989
      12     H     0.41759  0.41759  0.00000  0.16483
      13     H     0.40236  0.40236  0.00000  0.19528
      14     H     0.41446  0.41446  0.00000  0.17107

   Total alpha = 24.00000, Total beta = 24.00000, Total charge =  0.00000
