  ==> Input File <==

--------------------------------------------------------------------------
set {
	reference rhf
	basis 6-31G*
}

set_num_threads( 4 )
memory 2 gb

molecule MOL {
0 1

H	 1.328810	 2.601113	 4.269596
C	 0.837708	 1.659922	 4.546363
C	 -0.367569	 1.301470	 3.714841
O	 1.261612	 1.006423	 5.443578
C	 -0.073724	 1.332271	 2.208534
H	 -0.724486	 0.328304	 4.031494
H	 -1.142622	 2.031992	 3.943503
C	 0.906196	 0.246994	 1.755509
H	 -1.011415	 1.218049	 1.672837
H	 0.312925	 2.313044	 1.935873
C	 1.180775	 0.282413	 0.250794
H	 0.508758	 -0.728148	 2.029348
H	 1.846340	 0.350527	 2.293977
C	 2.148627	 -0.814315	 -0.201312
H	 0.237543	 0.189075	 -0.281497
H	 1.589636	 1.255463	 -0.018259
C	 3.580890	 -0.659131	 0.322722
H	 2.166869	 -0.852443	 -1.289387
H	 1.762857	 -1.776509	 0.128956
C	 4.324889	 0.564933	 -0.213704
H	 4.142010	 -1.551473	 0.056605
H	 3.564836	 -0.624694	 1.410140
H	 4.342616	 0.565491	 -1.300421
H	 3.866655	 1.493402	 0.110242
H	 5.353900	 0.572371	 0.132816

	symmetry c1
}
set optking {
	frozen_dihedral = ("
		8 11 14 18
	")
}

ee = optimize('scf')
oeprop('DIPOLE', 'QUADRUPOLE', 'MULLIKEN_CHARGES')
f=open( 'psi4out.xyz', 'w' )
f.write( "25  " )
f.write( str(ee) + "\n" )
f.write( MOL.save_string_xyz() )
f.close()
--------------------------------------------------------------------------

    Molecular point group: c1
  Charge       = 0
  Multiplicity = 1
  Basis Set: 6-31G*
  Basis Set:
  @DF-RHF Final Energy:  -387.11986891609081
    Total Energy =                       -387.1198689160908089
    Molecular point group: c1
  Basis Set: 6-31G*
  Basis Set:
  Basis Set: 6-31G*
  Basis Set:
  @DF-RHF Final Energy:  -387.12019066903804
    Total Energy =                       -387.1201906690386068
  Basis Set: 6-31G*
  Basis Set:
  Basis Set: 6-31G*
  Basis Set:
  @DF-RHF Final Energy:  -387.12033101535735
    Total Energy =                       -387.1203310153570101
  Basis Set: 6-31G*
  Basis Set:
  Basis Set: 6-31G*
  Basis Set:
  @DF-RHF Final Energy:  -387.12048354376861
    Total Energy =                       -387.1204835437683869
  Basis Set: 6-31G*
  Basis Set:
  Basis Set: 6-31G*
  Basis Set:
  @DF-RHF Final Energy:  -387.12047585632047
    Total Energy =                       -387.1204758563206951
  Basis Set: 6-31G*
  Basis Set:
  Basis Set: 6-31G*
  Basis Set:
  @DF-RHF Final Energy:  -387.12048071296607
    Total Energy =                       -387.1204807129656729
  Basis Set: 6-31G*
  Basis Set:
  Basis Set: 6-31G*
  Basis Set:
  @DF-RHF Final Energy:  -387.12048836436122
    Total Energy =                       -387.1204883643613357
  Basis Set: 6-31G*
  Basis Set:
  Charge       = 0
  Multiplicity = 1
  Basis Set: 6-31G*
  Basis Set:

    Orbital Energies (a.u.)
    -----------------------

    Doubly Occupied:

       1A    -20.562236     2A    -11.326366     3A    -11.235489
       4A    -11.234780     5A    -11.223658     6A    -11.219892
       7A    -11.217467     8A    -11.216709     9A    -11.210432
      10A     -1.402167    11A     -1.104002    12A     -1.068571
      13A     -1.011151    14A     -0.944086    15A     -0.875270
      16A     -0.829815    17A     -0.788522    18A     -0.769339
      19A     -0.665516    20A     -0.660928    21A     -0.631837
      22A     -0.625695    23A     -0.610505    24A     -0.588938
      25A     -0.565029    26A     -0.559417    27A     -0.537655
      28A     -0.522241    29A     -0.513703    30A     -0.499515
      31A     -0.487842    32A     -0.479903    33A     -0.459067
      34A     -0.452278    35A     -0.445489    36A     -0.409708

  @DF-RHF Final Energy:  -387.12048901994177

   => Energetics <=

    Nuclear Repulsion Energy =            448.2603342093518108
    One-Electron Energy =               -1412.8512095066605525
    Two-Electron Energy =                 577.4703862773668561
    DFT Exchange-Correlation Energy =       0.0000000000000000
    Empirical Dispersion Energy =           0.0000000000000000
    PCM Polarization Energy =               0.0000000000000000
    EFP Energy =                            0.0000000000000000
    Total Energy =                       -387.1204890199418287
    Molecular point group: c1
  Basis Set: 6-31G*
  Basis Set:

  -Total Gradient:
     Atom            X                  Y                   Z
    ------   -----------------  -----------------  -----------------
       1        0.000004383862    -0.000003438102    -0.000004595168
       2        0.000006277190    -0.000012640096     0.000005279131
       3        0.000003338686    -0.000012062433    -0.000014045688
       4       -0.000006011591    -0.000000127399     0.000002349344
       5        0.000012978194     0.000014597357     0.000021123185
       6       -0.000031807820     0.000007469554    -0.000008766455
       7        0.000017756904     0.000022164583     0.000012504737
       8       -0.000563375014    -0.000425835754    -0.000111284499
       9        0.000007974475    -0.000033940551    -0.000000001062
      10       -0.000029484876     0.000006956799     0.000000106786
      11        0.000630726726     0.000478544652     0.000138353464
      12        0.000004944932    -0.000001574664     0.000010497847
      13       -0.000005464035     0.000007760570    -0.000011889381
      14        0.000664370965     0.000596576720    -0.000060608663
      15        0.000003567659     0.000007880035     0.000008501841
      16        0.000004073168     0.000012453684     0.000000041485
      17        0.000003014976     0.000002286745    -0.000001927763
      18       -0.000725644197    -0.000657168902     0.000017453893
      19       -0.000000123635    -0.000006742825     0.000012268034
      20       -0.000001646854     0.000003653418     0.000006923430
      21        0.000002041560     0.000010704646    -0.000015362763
      22       -0.000000553348    -0.000018808224    -0.000009832905
      23        0.000004396898    -0.000003491551     0.000001275257
      24       -0.000005578999     0.000002590968    -0.000002915048
      25       -0.000000155826     0.000002190769     0.000004550951

  **** Optimization is complete! (in 8 steps) ****
    Final optimized geometry and variables:
    Molecular point group: c1

    Geometry (in Angstrom), charge = 0, multiplicity = 1:

    H           -0.314958214395     2.116738962218     2.284060277689
    C           -0.763755662933     1.155470891017     2.564061016493
    C           -1.947308409989     0.737608022547     1.729085652338
    O           -0.317600828186     0.529974122683     3.470487444760
    C           -1.643408474957     0.760173592855     0.224491523781
    H           -2.266713641297    -0.245201731673     2.056015134732
    H           -2.753071941012     1.438876676146     1.942284945446
    C           -0.615843023911    -0.289687215722    -0.207262546166
    H           -2.571593221658     0.600449689287    -0.316404091766
    H           -1.295482377838     1.752267160413    -0.058661255592
    C           -0.345112100989    -0.262915457056    -1.713814477078
    H           -0.975070094828    -1.276680707285     0.077337079513
    H            0.311284419914    -0.137074427585     0.339813224784
    C            0.600993333789    -1.365604337118    -2.207060436666
    H           -1.293155595742    -0.374623609720    -2.236198826044
    H            0.036995347277     0.714513028753    -1.997634526439
    C            2.056998576943    -1.274174999809    -1.732153978873
    H            0.586819229481    -1.371252025958    -3.295114547060
    H            0.197136204869    -2.328553235965    -1.900368988998
    C            2.800514538822    -0.023850671015    -2.205273027953
    H            2.583995118840    -2.151839759887    -2.098017795428
    H            2.100814838249    -1.332440612353    -0.647983491237
    H            2.765991318294     0.065773900783    -3.287751260885
    H            2.379414340798     0.884012571936    -1.785485845328
    H            3.844535406276    -0.062731311107    -1.910493924041

  Mulliken Charges: (a.u.)
   Center  Symbol    Alpha    Beta     Spin     Total
       1     H     0.43262  0.43262  0.00000  0.13476
       2     C     2.83096  2.83096  0.00000  0.33808
       3     C     3.20791  3.20791  0.00000 -0.41581
       4     O     4.23783  4.23783  0.00000 -0.47565
       5     C     3.16632  3.16632  0.00000 -0.33263
       6     H     0.39973  0.39973  0.00000  0.20053
       7     H     0.40669  0.40669  0.00000  0.18661
       8     C     3.15648  3.15648  0.00000 -0.31295
       9     H     0.41280  0.41280  0.00000  0.17441
      10     H     0.41972  0.41972  0.00000  0.16056
      11     C     3.15608  3.15608  0.00000 -0.31217
      12     H     0.41837  0.41837  0.00000  0.16327
      13     H     0.41703  0.41703  0.00000  0.16594
      14     C     3.15434  3.15434  0.00000 -0.30868
      15     H     0.42134  0.42134  0.00000  0.15732
      16     H     0.42112  0.42112  0.00000  0.15777
      17     C     3.15520  3.15520  0.00000 -0.31041
      18     H     0.42158  0.42158  0.00000  0.15685
      19     H     0.42153  0.42153  0.00000  0.15694
      20     C     3.24099  3.24099  0.00000 -0.48197
      21     H     0.41979  0.41979  0.00000  0.16042
      22     H     0.41958  0.41958  0.00000  0.16084
      23     H     0.42196  0.42196  0.00000  0.15608
      24     H     0.42213  0.42213  0.00000  0.15574
      25     H     0.41792  0.41792  0.00000  0.16416

   Total alpha = 36.00000, Total beta = 36.00000, Total charge = -0.00000
