                              Psi4 1.0.54 Driver

  ==> Input File <==

--------------------------------------------------------------------------
set {
	reference rhf
	basis cc-pvtz
}

set_num_threads( 4 )
memory 2 gb

molecule MOL {
0 1

H	 -2.644180	 -0.653737	 1.272255
C	 -2.092774	 -0.380414	 0.391915
O	 -0.808934	 -0.154049	 0.752536
F	 -2.163230	 -1.351640	 -0.507133
F	 -2.627232	 0.691260	 -0.169301
C	 0.085006	 0.250800	 -0.215074
C	 1.370439	 -0.548013	 -0.012993
Cl	 0.421658	 1.987697	 -0.091007
H	 -0.272219	 0.063284	 -1.212508
F	 1.665649	 -1.222448	 -1.095126
F	 1.190491	 -1.407090	 0.962159
F	 2.383572	 0.214235	 0.294887

	symmetry c1
}
set optking {
	frozen_dihedral = ("
		10 7 6 9
	")
}

ee,wfn = optimize('scf', return_wfn=True)
oeprop( wfn, 'DIPOLE', 'QUADRUPOLE', 'MULLIKEN_CHARGES')
f=open( 'psi4out.xyz', 'w' )
f.write( "12  " )
f.write( str(ee) + "\n" )
f.write( MOL.save_string_xyz() )
f.close()
--------------------------------------------------------------------------

    Molecular point group: c1
  Charge       = 0
  Multiplicity = 1
  Basis Set: CC-PVTZ
  Basis Set:
  @DF-RHF Final Energy: -1146.60837886559921
    Total Energy =                      -1146.6083788655996614
    Molecular point group: c1
  Basis Set: CC-PVTZ
  Basis Set:
  Basis Set: CC-PVTZ
  Basis Set:
  @DF-RHF Final Energy: -1146.60827057414417
    Total Energy =                      -1146.6082705741441714
  Basis Set: CC-PVTZ
  Basis Set:
  Basis Set: CC-PVTZ
  Basis Set:
  @DF-RHF Final Energy: -1146.61082695347613
    Total Energy =                      -1146.6108269534761348
  Basis Set: CC-PVTZ
  Basis Set:
  Basis Set: CC-PVTZ
  Basis Set:
  @DF-RHF Final Energy: -1146.61096741276879
    Total Energy =                      -1146.6109674127687867
  Basis Set: CC-PVTZ
  Basis Set:
  @DF-RHF Final Energy: -1146.61098154725869
    Total Energy =                      -1146.6109815472595983
  @DF-RHF Final Energy: -1146.61098635523240
    Total Energy =                      -1146.6109863552328534
  Basis Set: CC-PVTZ
  Basis Set:
  @DF-RHF Final Energy: -1146.61099224515237
    Total Energy =                      -1146.6109922451532839
  Basis Set: CC-PVTZ
  Basis Set:
  Basis Set: CC-PVTZ
  Basis Set:
  @DF-RHF Final Energy: -1146.61099555901092
    Total Energy =                      -1146.6109955590113714
  Basis Set: CC-PVTZ
  Basis Set:
  Basis Set: CC-PVTZ
  Basis Set:
  @DF-RHF Final Energy: -1146.61099705044717
    Total Energy =                      -1146.6109970504467128
  Basis Set: CC-PVTZ
  Basis Set:
  Charge       = 0
  Multiplicity = 1
  Basis Set: CC-PVTZ
  Basis Set:

    Orbital Energies (a.u.)
    -----------------------

    Doubly Occupied:

       1A   -104.855355     2A    -26.353589     3A    -26.353225
       4A    -26.352750     5A    -26.343435     6A    -26.343185
       7A    -20.639371     8A    -11.522728     9A    -11.483784
      10A    -11.402403    11A    -10.580966    12A     -8.047743
      13A     -8.045772    14A     -8.045685    15A     -1.768531
      16A     -1.724616    17A     -1.662261    18A     -1.660489
      19A     -1.644766    20A     -1.486676    21A     -1.174941
      22A     -1.048249    23A     -0.991216    24A     -0.924117
      25A     -0.862127    26A     -0.858306    27A     -0.851996
      28A     -0.831505    29A     -0.819682    30A     -0.795927
      31A     -0.733111    32A     -0.731876    33A     -0.710671
      34A     -0.708539    35A     -0.684771    36A     -0.680033
      37A     -0.665397    38A     -0.662532    39A     -0.650527
      40A     -0.634399    41A     -0.598308    42A     -0.579331
      43A     -0.523549    44A     -0.476717    45A     -0.468601

  @DF-RHF Final Energy: -1146.61099723424104

   => Energetics <=

    Nuclear Repulsion Energy =            735.5152504155898896
    One-Electron Energy =               -3054.2849753594196045
    Two-Electron Energy =                1172.1587277095895843
    DFT Exchange-Correlation Energy =       0.0000000000000000
    Empirical Dispersion Energy =           0.0000000000000000
    PCM Polarization Energy =               0.0000000000000000
    EFP Energy =                            0.0000000000000000
    Total Energy =                      -1146.6109972342401306
    Molecular point group: c1
  Basis Set: CC-PVTZ
  Basis Set:

  -Total Gradient:
     Atom            X                  Y                   Z
    ------   -----------------  -----------------  -----------------
       1        0.000004096800    -0.000005749482    -0.000004781286
       2        0.000057478476     0.000016091192    -0.000006227546
       3       -0.000035520491    -0.000005755184     0.000053857505
       4       -0.000017023298    -0.000018905407    -0.000000005290
       5       -0.000024918994     0.000018242306    -0.000008173706
       6       -0.000869619595    -0.001146579966     0.000352080059
       7        0.000732109703     0.001024907110    -0.000338629977
       8       -0.000001066149    -0.000039419212     0.000004815554
       9        0.000642362378     0.000832026532    -0.000283853214
      10       -0.000508308307    -0.000671718684     0.000236461160
      11        0.000021738458    -0.000010524512     0.000003962195
      12       -0.000001329000     0.000007385453    -0.000009505445

  **** Optimization is complete! (in 10 steps) ****
    Final optimized geometry and variables:
    Molecular point group: c1

    Geometry (in Angstrom), charge = 0, multiplicity = 1:

    H           -2.768110729729    -0.603100671377     1.046711954796
    C           -2.123142096724    -0.348502194985     0.226408739323
    O           -0.894749584443    -0.081987077451     0.722145106858
    F           -2.071082831201    -1.352938447500    -0.638326909249
    F           -2.609939448971     0.690036127968    -0.433284138138
    C            0.092601711218     0.307289013314    -0.156629142537
    C            1.356297188934    -0.578851202297     0.056615522708
    CL           0.450907446789     2.031266779315     0.055179229850
    H           -0.206796868988     0.188154141356    -1.181139026986
    F            1.636770240080    -1.176339393496    -1.082377484499
    F            1.138877571717    -1.507521573766     0.948274394271
    F            2.412408229078     0.090661938535     0.423465967743

  Mulliken Charges: (a.u.)
   Center  Symbol    Alpha    Beta     Spin     Total
       1     H     0.45153  0.45153  0.00000  0.09694
       2     C     2.73848  2.73848  0.00000  0.52305
       3     O     4.14963  4.14963  0.00000 -0.29925
       4     F     4.61876  4.61876  0.00000 -0.23752
       5     F     4.61574  4.61574  0.00000 -0.23148
       6     C     2.96404  2.96404  0.00000  0.07191
       7     C     2.66102  2.66102  0.00000  0.67797
       8    CL     8.56880  8.56880  0.00000 -0.13760
       9     H     0.43162  0.43162  0.00000  0.13677
      10     F     4.60725  4.60725  0.00000 -0.21450
      11     F     4.59809  4.59809  0.00000 -0.19618
      12     F     4.59505  4.59505  0.00000 -0.19011

   Total alpha = 45.00000, Total beta = 45.00000, Total charge =  0.00000

*** Psi4 exiting successfully. Buy a developer a beer!
