  ==> Input File <==

--------------------------------------------------------------------------
set {
	reference rhf
	basis 6-31G*
}

set_num_threads( 4 )
memory 2 gb

molecule MOL {
0 1

H	 0.968429	 -0.216380	 -1.741405
O	 1.203735	 0.609519	 -1.340937
C	 0.709265	 0.639550	 -0.033818
C	 -0.793441	 0.596080	 0.058728
H	 1.074733	 1.560209	 0.406662
H	 1.127145	 -0.175029	 0.556828
C	 -1.530462	 -0.493172	 -0.025500
H	 -1.268471	 1.554324	 0.202247
H	 -1.092586	 -1.461565	 -0.186463
H	 -2.602122	 -0.450675	 0.050101

	symmetry c1
}
set optking {
	frozen_dihedral = ("
		5 3 4 7
	")
}

ee = optimize('scf')
oeprop('DIPOLE', 'QUADRUPOLE', 'MULLIKEN_CHARGES')
f=open( 'psi4out.xyz', 'w' )
f.write( "10  " )
f.write( str(ee) + "\n" )
f.write( MOL.save_string_xyz() )
f.close()
--------------------------------------------------------------------------

    Molecular point group: c1
  Charge       = 0
  Multiplicity = 1
  Basis Set: 6-31G*
  Basis Set:
  @DF-RHF Final Energy:  -191.91252306597616
    Total Energy =                       -191.9125230659763020
    Molecular point group: c1
  Basis Set: 6-31G*
  Basis Set:
  Basis Set: 6-31G*
  Basis Set:
  @DF-RHF Final Energy:  -191.91373897721482
    Total Energy =                       -191.9137389772148481
  Basis Set: 6-31G*
  Basis Set:
  Basis Set: 6-31G*
  Basis Set:
  @DF-RHF Final Energy:  -191.91390212383419
    Total Energy =                       -191.9139021238341343
  Basis Set: 6-31G*
  Basis Set:
  Basis Set: 6-31G*
  Basis Set:
  @DF-RHF Final Energy:  -191.91392395446366
    Total Energy =                       -191.9139239544636553
  Basis Set: 6-31G*
  Basis Set:
  Basis Set: 6-31G*
  Basis Set:
  @DF-RHF Final Energy:  -191.91392593982056
    Total Energy =                       -191.9139259398206150
  Basis Set: 6-31G*
  Basis Set:
  Charge       = 0
  Multiplicity = 1
  Basis Set: 6-31G*
  Basis Set:

    Orbital Energies (a.u.)
    -----------------------

    Doubly Occupied:

       1A    -20.554056     2A    -11.275782     3A    -11.235096
       4A    -11.231029     5A     -1.360825     6A     -1.064302
       7A     -0.923736     8A     -0.775143     9A     -0.700289
      10A     -0.629277    11A     -0.623450    12A     -0.586849
      13A     -0.535876    14A     -0.490284    15A     -0.438171
      16A     -0.377591

  @DF-RHF Final Energy:  -191.91392606542530

   => Energetics <=

    Nuclear Repulsion Energy =            118.2457857873030918
    One-Electron Energy =                -494.7159120090332749
    Two-Electron Energy =                 184.5562001563048682
    DFT Exchange-Correlation Energy =       0.0000000000000000
    Empirical Dispersion Energy =           0.0000000000000000
    PCM Polarization Energy =               0.0000000000000000
    EFP Energy =                            0.0000000000000000
    Total Energy =                       -191.9139260654253292
    Molecular point group: c1
  Basis Set: 6-31G*
  Basis Set:

  -Total Gradient:
     Atom            X                  Y                   Z
    ------   -----------------  -----------------  -----------------
       1       -0.000000751613    -0.000000397973     0.000001476895
       2        0.000001677266    -0.000004168242    -0.000006840283
       3        0.000114325740    -0.002227475643     0.003069174142
       4        0.000179379042    -0.000121700899     0.005020473453
       5       -0.000159841332     0.001940976599    -0.004012577623
       6        0.000011886488    -0.000006457928    -0.000002740966
       7       -0.000148886262     0.000422311268    -0.004051937863
       8       -0.000001551504     0.000003147328     0.000001588323
       9        0.000002447873    -0.000003475469    -0.000012393001
      10        0.000001314302    -0.000002759042    -0.000006223075

  **** Optimization is complete! (in 6 steps) ****
    Final optimized geometry and variables:
    Molecular point group: c1

    Geometry (in Angstrom), charge = 0, multiplicity = 1:

    H            0.817870044621    -0.427154803768    -1.425151824653
    O            1.226392150805     0.282994592963    -0.949817482331
    C            0.751681794241     0.279123266090     0.375708526635
    C           -0.757950856622     0.270533630654     0.429825452414
    H            1.140977945857     1.192881800852     0.802536612556
    H            1.156873223667    -0.565350255616     0.926825787582
    C           -1.483631951516    -0.828106605826     0.344780954411
    H           -1.248806632801     1.229809102460     0.437799166480
    H           -1.032658848179    -1.807340724054     0.326577709257
    H           -2.557993009168    -0.798721691254     0.309102413937

  Mulliken Charges: (a.u.)
   Center  Symbol    Alpha    Beta     Spin     Total
       1     H     0.28340  0.28340  0.00000  0.43320
       2     O     4.36678  4.36678  0.00000 -0.73356
       3     C     3.00500  3.00500  0.00000 -0.01001
       4     C     3.08818  3.08818  0.00000 -0.17637
       5     H     0.41240  0.41240  0.00000  0.17520
       6     H     0.42398  0.42398  0.00000  0.15204
       7     C     3.19612  3.19612  0.00000 -0.39223
       8     H     0.40396  0.40396  0.00000  0.19208
       9     H     0.41314  0.41314  0.00000  0.17373
      10     H     0.40705  0.40705  0.00000  0.18590

   Total alpha = 16.00000, Total beta = 16.00000, Total charge = -0.00000
