  ==> Input File <==

--------------------------------------------------------------------------
set {
	reference rhf
	basis cc-pvtz
}

set_num_threads( 4 )
memory 2 gb

molecule MOL {
0 1

H	 1.224061	 -0.536759	 -0.994961
C	 0.788096	 -0.429819	 0.000000
N	 -0.537714	 -0.645117	 0.000000
O	 1.451474	 -0.152640	 0.948589
C	 -1.522613	 0.412524	 0.000000
H	 -0.845894	 -1.585866	 0.000000
H	 -2.150256	 0.356137	 -0.880771
H	 -1.005621	 1.357208	 0.000000
H	 -2.150256	 0.356137	 0.880771

	symmetry c1
}
set optking {
	frozen_dihedral = ("
		1 2 3 6
	")
}

ee = optimize('scf')
oeprop('DIPOLE', 'QUADRUPOLE', 'MULLIKEN_CHARGES')
f=open( 'psi4out.xyz', 'w' )
f.write( "9  " )
f.write( str(ee) + "\n" )
f.write( MOL.save_string_xyz() )
f.close()
--------------------------------------------------------------------------

    Molecular point group: c1
  Charge       = 0
  Multiplicity = 1
  Basis Set: CC-PVTZ
  Basis Set:
  @DF-RHF Final Energy:  -208.00102248226312
    Total Energy =                       -208.0010224822632949
    Molecular point group: c1
  Basis Set: CC-PVTZ
  Basis Set:
  Basis Set: CC-PVTZ
  Basis Set:
  @DF-RHF Final Energy:  -208.00629225187424
    Total Energy =                       -208.0062922518742425
  Basis Set: CC-PVTZ
  Basis Set:
  Basis Set: CC-PVTZ
  Basis Set:
  @DF-RHF Final Energy:  -208.01084373905957
    Total Energy =                       -208.0108437390595952
  Basis Set: CC-PVTZ
  Basis Set:
  Basis Set: CC-PVTZ
  Basis Set:
  @DF-RHF Final Energy:  -207.94151262084819
    Total Energy =                       -207.9415126208481297
  Basis Set: CC-PVTZ
  Basis Set:
  @DF-RHF Final Energy:  -208.00674689275112
    Total Energy =                       -208.0067468927511527
  @DF-RHF Final Energy:  -208.02186314254584
    Total Energy =                       -208.0218631425458682
  @DF-RHF Final Energy:  -208.01957253787359
    Total Energy =                       -208.0195725378735574
  @DF-RHF Final Energy:  -208.02002464937010
    Total Energy =                       -208.0200246493700149
  @DF-RHF Final Energy:  -208.02501912367453
    Total Energy =                       -208.0250191236744968
  @DF-RHF Final Energy:  -208.02553432848009
    Total Energy =                       -208.0255343284800347
  @DF-RHF Final Energy:  -208.02581209296673
    Total Energy =                       -208.0258120929667598
  @DF-RHF Final Energy:  -208.02591137740939
    Total Energy =                       -208.0259113774092725
  @DF-RHF Final Energy:  -208.02591392990485
    Total Energy =                       -208.0259139299048172
  Basis Set: CC-PVTZ
  Basis Set:
  @DF-RHF Final Energy:  -208.02556214081528
    Total Energy =                       -208.0255621408150546
  Basis Set: CC-PVTZ
  Basis Set:
  Basis Set: CC-PVTZ
  Basis Set:
  @DF-RHF Final Energy:  -208.02554934873524
    Total Energy =                       -208.0255493487351828
  Basis Set: CC-PVTZ
  Basis Set:
  Basis Set: CC-PVTZ
  Basis Set:
  @DF-RHF Final Energy:  -208.02590206882439
    Total Energy =                       -208.0259020688244505
  Basis Set: CC-PVTZ
  Basis Set:
  Charge       = 0
  Multiplicity = 1
  Basis Set: CC-PVTZ
  Basis Set:

    Orbital Energies (a.u.)
    -----------------------

    Doubly Occupied:

       1A    -20.548393     2A    -15.574306     3A    -11.345904
       4A    -11.250915     5A     -1.418504     6A     -1.228268
       7A     -0.950515     8A     -0.809734     9A     -0.727329
      10A     -0.660607    11A     -0.646906    12A     -0.571305
      13A     -0.548540    14A     -0.534282    15A     -0.444477
      16A     -0.415272

  @DF-RHF Final Energy:  -208.02591432232407

   => Energetics <=

    Nuclear Repulsion Energy =            122.8196145383414120
    One-Electron Energy =                -526.3405451703998779
    Two-Electron Energy =                 195.4950163097344671
    DFT Exchange-Correlation Energy =       0.0000000000000000
    Empirical Dispersion Energy =           0.0000000000000000
    PCM Polarization Energy =               0.0000000000000000
    EFP Energy =                            0.0000000000000000
    Total Energy =                       -208.0259143223240130
    Molecular point group: c1
  Basis Set: CC-PVTZ
  Basis Set:

  -Total Gradient:
     Atom            X                  Y                   Z
    ------   -----------------  -----------------  -----------------
       1        0.002175375519     0.011801178202    -0.006114234884
       2       -0.004222931584    -0.014412786881     0.010930227994
       3        0.007739785108    -0.002036150989    -0.017348242017
       4        0.000030378932     0.000042507128     0.000038479444
       5       -0.000111595640    -0.000052332429     0.000064018690
       6       -0.005600618146     0.004640168566     0.012425302030
       7       -0.000013617295     0.000025927464     0.000003390330
       8        0.000020527177    -0.000049277757    -0.000008584608
       9       -0.000017304072     0.000040766696     0.000009643024

  **** Optimization is complete! (in 17 steps) ****
    Final optimized geometry and variables:
    Molecular point group: c1

    Geometry (in Angstrom), charge = 0, multiplicity = 1:

    H            1.575503494644    -0.845829021600    -0.735239118965
    C            0.813643960990    -0.383284981033    -0.106888464900
    N           -0.464006595909    -0.444087493545    -0.665399011829
    O            1.112624655641     0.254003145720     0.841824816515
    C           -1.401436475390     0.544594202863    -0.130968787586
    H           -0.858830756966    -1.350932087111    -0.508816031198
    H           -2.344431949046     0.427090260142    -0.646209867486
    H           -1.023498466043     1.536416119498    -0.329009715654
    H           -1.561088078543     0.451666396623     0.936316493071

  Mulliken Charges: (a.u.)
   Center  Symbol    Alpha    Beta     Spin     Total
       1     H     0.45116  0.45116  0.00000  0.09769
       2     C     2.88433  2.88433  0.00000  0.23134
       3     N     3.61438  3.61438  0.00000 -0.22875
       4     O     4.17961  4.17961  0.00000 -0.35921
       5     C     3.08381  3.08381  0.00000 -0.16763
       6     H     0.43355  0.43355  0.00000  0.13291
       7     H     0.45136  0.45136  0.00000  0.09728
       8     H     0.44717  0.44717  0.00000  0.10565
       9     H     0.45463  0.45463  0.00000  0.09073

   Total alpha = 16.00000, Total beta = 16.00000, Total charge = -0.00000
