  ==> Input File <==

--------------------------------------------------------------------------
set {
	reference rhf
	basis 6-31G*
}

set_num_threads( 4 )
memory 2 gb

molecule MOL {
0 1

H	 2.291278	 0.705112	 -0.578770
O	 2.064459	 -0.086912	 -0.111827
C	 0.745630	 0.005118	 0.354752
H	 0.739005	 0.037656	 1.444976
C	 -0.064159	 -1.194875	 -0.122754
C	 -0.046302	 1.193543	 -0.190431
H	 0.197384	 -1.376065	 -1.160690
H	 0.162855	 -2.097978	 0.431858
C	 -1.535782	 -0.752177	 0.006642
H	 0.154512	 1.271315	 -1.255561
H	 0.226209	 2.140461	 0.267302
C	 -1.509193	 0.801505	 0.065617
H	 -2.127797	 -1.112194	 -0.826847
H	 -1.986849	 -1.158408	 0.905561
H	 -2.183670	 1.254107	 -0.651985
H	 -1.821727	 1.144320	 1.047089

	symmetry c1
}
set optking {
	frozen_dihedral = ("
		1 2 3 6
	")
}

ee = optimize('scf')
oeprop('DIPOLE', 'QUADRUPOLE', 'MULLIKEN_CHARGES')
f=open( 'psi4out.xyz', 'w' )
f.write( "16  " )
f.write( str(ee) + "\n" )
f.write( MOL.save_string_xyz() )
f.close()
--------------------------------------------------------------------------

    Molecular point group: c1
  Charge       = 0
  Multiplicity = 1
  Basis Set: 6-31G*
  Basis Set:
  @DF-RHF Final Energy:  -270.01154769987073
    Total Energy =                       -270.0115476998706754
    Molecular point group: c1
  Basis Set: 6-31G*
  Basis Set:
  Basis Set: 6-31G*
  Basis Set:
  @DF-RHF Final Energy:  -270.01191779549208
    Total Energy =                       -270.0119177954920815
  Basis Set: 6-31G*
  Basis Set:
  Basis Set: 6-31G*
  Basis Set:
  @DF-RHF Final Energy:  -270.01202650057269
    Total Energy =                       -270.0120265005724605
  Basis Set: 6-31G*
  Basis Set:
  Basis Set: 6-31G*
  Basis Set:
  @DF-RHF Final Energy:  -270.01203248737261
    Total Energy =                       -270.0120324873724940
  Basis Set: 6-31G*
  Basis Set:
  @DF-RHF Final Energy:  -270.01203923789365
    Total Energy =                       -270.0120392378937026
  @DF-RHF Final Energy:  -270.01204252612627
    Total Energy =                       -270.0120425261262653
  Basis Set: 6-31G*
  Basis Set:
  @DF-RHF Final Energy:  -270.01204504916370
    Total Energy =                       -270.0120450491638167
  Basis Set: 6-31G*
  Basis Set:
  Basis Set: 6-31G*
  Basis Set:
  @DF-RHF Final Energy:  -270.01204733776683
    Total Energy =                       -270.0120473377667736
  Basis Set: 6-31G*
  Basis Set:
  Basis Set: 6-31G*
  Basis Set:
  @DF-RHF Final Energy:  -270.01204949021297
    Total Energy =                       -270.0120494902130304
  Basis Set: 6-31G*
  Basis Set:
  Charge       = 0
  Multiplicity = 1
  Basis Set: 6-31G*
  Basis Set:

    Orbital Energies (a.u.)
    -----------------------

    Doubly Occupied:

       1A    -20.549475     2A    -11.268165     3A    -11.220827
       4A    -11.220013     5A    -11.216762     6A    -11.207910
       7A     -1.358823     8A     -1.115663     9A     -0.969061
      10A     -0.948891    11A     -0.798787    12A     -0.779737
      13A     -0.683026    14A     -0.665377    15A     -0.608007
      16A     -0.600433    17A     -0.575231    18A     -0.529771
      19A     -0.501134    20A     -0.485264    21A     -0.472862
      22A     -0.459310    23A     -0.445859    24A     -0.419505

  @DF-RHF Final Energy:  -270.01205000928076

   => Energetics <=

    Nuclear Repulsion Energy =            255.1158320796218959
    One-Electron Energy =                -872.0559727201659825
    Two-Electron Energy =                 346.9280906312634443
    DFT Exchange-Correlation Energy =       0.0000000000000000
    Empirical Dispersion Energy =           0.0000000000000000
    PCM Polarization Energy =               0.0000000000000000
    EFP Energy =                            0.0000000000000000
    Total Energy =                       -270.0120500092806424
    Molecular point group: c1
  Basis Set: 6-31G*
  Basis Set:

  -Total Gradient:
     Atom            X                  Y                   Z
    ------   -----------------  -----------------  -----------------
       1       -0.000243752472    -0.000320867974    -0.000736200650
       2        0.000366911225     0.000534584122     0.001105533968
       3       -0.000273195060    -0.000486930027    -0.000799041206
       4        0.000002173650    -0.000006274483     0.000000868819
       5        0.000002439314     0.000006832637    -0.000001217385
       6        0.000142462478     0.000293658388     0.000427926757
       7        0.000000352706    -0.000022436380     0.000002544071
       8       -0.000000250135     0.000010771885     0.000018336483
       9        0.000001615072    -0.000000490395     0.000012056418
      10        0.000000251665    -0.000018632067    -0.000001862023
      11       -0.000001237077     0.000009243935    -0.000016525276
      12       -0.000000009149     0.000002129994    -0.000011239860
      13        0.000022393766     0.000014469335    -0.000024640063
      14       -0.000028534621    -0.000015006474    -0.000017901193
      15       -0.000019648287     0.000014067098     0.000025905621
      16        0.000028026925    -0.000015119596     0.000015455519

  **** Optimization is complete! (in 10 steps) ****
    Final optimized geometry and variables:
    Molecular point group: c1

    Geometry (in Angstrom), charge = 0, multiplicity = 1:

    H            2.335021638357     0.729461849535    -0.500792199302
    O            2.086045176954    -0.073600599294    -0.068111988776
    C            0.745807091013    -0.005889382176     0.346343773693
    H            0.728363619250     0.019314393440     1.434498678126
    C           -0.072324813595    -1.197532711458    -0.143185540211
    C           -0.042668048576     1.189108978599    -0.187073556437
    H            0.158300651447    -1.352973557602    -1.193071980936
    H            0.168430706714    -2.114956445117     0.381695145037
    C           -1.536692300361    -0.755952326617     0.041194558207
    H            0.151947258516     1.282736761500    -1.254475094707
    H            0.233295421571     2.128094500137     0.283210367241
    C           -1.509846440837     0.799586135372     0.057636270368
    H           -2.169971315304    -1.141047728933    -0.749645813954
    H           -1.939869286706    -1.135066019899     0.974144090024
    H           -2.170182894566     1.231706576484    -0.685117311272
    H           -1.838768647600     1.171708114874     1.022261570754

  Mulliken Charges: (a.u.)
   Center  Symbol    Alpha    Beta     Spin     Total
       1     H     0.27910  0.27910  0.00000  0.44181
       2     O     4.38359  4.38359  0.00000 -0.76717
       3     C     2.89550  2.89550  0.00000  0.20899
       4     H     0.42598  0.42598  0.00000  0.14805
       5     C     3.16538  3.16538  0.00000 -0.33075
       6     C     3.18888  3.18888  0.00000 -0.37776
       7     H     0.41674  0.41674  0.00000  0.16651
       8     H     0.41208  0.41208  0.00000  0.17584
       9     C     3.17040  3.17040  0.00000 -0.34079
      10     H     0.42098  0.42098  0.00000  0.15804
      11     H     0.41446  0.41446  0.00000  0.17108
      12     C     3.16703  3.16703  0.00000 -0.33407
      13     H     0.41439  0.41439  0.00000  0.17121
      14     H     0.41607  0.41607  0.00000  0.16787
      15     H     0.41373  0.41373  0.00000  0.17253
      16     H     0.41569  0.41569  0.00000  0.16861

   Total alpha = 24.00000, Total beta = 24.00000, Total charge = -0.00000
