                              Psi4 1.0.54 Driver

  ==> Input File <==

--------------------------------------------------------------------------
set {
	reference rhf
	basis cc-pvtz
}

set_num_threads( 4 )
memory 2 gb

molecule MOL {
0 1

H	 -2.171709	 0.882708	 0.500286
C	 -2.016894	 0.001719	 -0.114152
O	 -0.775228	 0.000056	 -0.739966
H	 -2.760846	 0.003757	 -0.898169
H	 -2.174774	 -0.879864	 0.498643
C	 0.378464	 0.385253	 -0.018927
C	 1.508346	 0.250505	 -1.033863
C	 0.274395	 1.836524	 0.453958
C	 0.628005	 -0.551378	 1.164732
H	 1.323642	 0.892945	 -1.885484
H	 1.570969	 -0.770189	 -1.389342
H	 2.460172	 0.523306	 -0.593891
H	 0.032760	 2.486694	 -0.378245
H	 1.218416	 2.159778	 0.876122
H	 -0.482620	 1.962884	 1.217845
H	 0.635292	 -1.582731	 0.833147
H	 1.587510	 -0.332264	 1.617741
H	 -0.125955	 -0.444849	 1.934643

	symmetry c1
}
set optking {
	frozen_dihedral = ("
		6 3 2 5
	")
}

ee,wfn = optimize('scf', return_wfn=True)
oeprop( wfn, 'DIPOLE', 'QUADRUPOLE', 'MULLIKEN_CHARGES')
f=open( 'psi4out.xyz', 'w' )
f.write( "18  " )
f.write( str(ee) + "\n" )
f.write( MOL.save_string_xyz() )
f.close()
--------------------------------------------------------------------------

    Molecular point group: c1
  Charge       = 0
  Multiplicity = 1
  Basis Set: CC-PVTZ
  Basis Set:
  @DF-RHF Final Energy:  -271.27614249507144
    Total Energy =                       -271.2761424950717242
    Molecular point group: c1
  Basis Set: CC-PVTZ
  Basis Set:
  Basis Set: CC-PVTZ
  Basis Set:
  @DF-RHF Final Energy:  -271.27417141361281
    Total Energy =                       -271.2741714136125779
  Basis Set: CC-PVTZ
  Basis Set:
  Basis Set: CC-PVTZ
  Basis Set:
  @DF-RHF Final Energy:  -271.27606266263916
    Total Energy =                       -271.2760626626389922
  Basis Set: CC-PVTZ
  Basis Set:
  Basis Set: CC-PVTZ
  Basis Set:
  @DF-RHF Final Energy:  -271.27639169525150
    Total Energy =                       -271.2763916952514478
  Basis Set: CC-PVTZ
  Basis Set:
  Basis Set: CC-PVTZ
  Basis Set:
  @DF-RHF Final Energy:  -271.27635898690784
    Total Energy =                       -271.2763589869078373
  Basis Set: CC-PVTZ
  Basis Set:
  Basis Set: CC-PVTZ
  Basis Set:
  @DF-RHF Final Energy:  -271.27642164777558
    Total Energy =                       -271.2764216477754644
  Basis Set: CC-PVTZ
  Basis Set:
  Basis Set: CC-PVTZ
  Basis Set:
  @DF-RHF Final Energy:  -271.27642308187671
    Total Energy =                       -271.2764230818766009
  Basis Set: CC-PVTZ
  Basis Set:
  Charge       = 0
  Multiplicity = 1
  Basis Set: CC-PVTZ
  Basis Set:

    Orbital Energies (a.u.)
    -----------------------

    Doubly Occupied:

       1A    -20.540129     2A    -11.280197     3A    -11.258330
       4A    -11.207878     5A    -11.206300     6A    -11.201860
       7A     -1.373250     8A     -1.074468     9A     -0.947083
      10A     -0.940550    11A     -0.913272    12A     -0.753547
      13A     -0.656563    14A     -0.646869    15A     -0.639850
      16A     -0.592595    17A     -0.574410    18A     -0.553265
      19A     -0.535500    20A     -0.525160    21A     -0.515268
      22A     -0.490066    23A     -0.487706    24A     -0.440749
      25A     -0.406559

  @DF-RHF Final Energy:  -271.27642398411183

   => Energetics <=

    Nuclear Repulsion Energy =            272.6996695192214020
    One-Electron Energy =                -908.4293412520266884
    Two-Electron Energy =                 364.4532477486936841
    DFT Exchange-Correlation Energy =       0.0000000000000000
    Empirical Dispersion Energy =           0.0000000000000000
    PCM Polarization Energy =               0.0000000000000000
    EFP Energy =                            0.0000000000000000
    Total Energy =                       -271.2764239841116023
    Molecular point group: c1
  Basis Set: CC-PVTZ
  Basis Set:

  -Total Gradient:
     Atom            X                  Y                   Z
    ------   -----------------  -----------------  -----------------
       1        0.000001881947    -0.000003378914    -0.000004520441
       2        0.000558621348     0.001191754181     0.001306221793
       3        0.000178203117    -0.001722925286    -0.000017833506
       4       -0.000002004269    -0.000004739898     0.000000928535
       5       -0.000512762032    -0.000513224960    -0.001076079273
       6       -0.000211748073     0.001055661068    -0.000206049010
       7        0.000012108570    -0.000023238151     0.000001130350
       8       -0.000014261590    -0.000016239834     0.000015940264
       9        0.000004465238    -0.000021099843     0.000021367674
      10       -0.000008863284     0.000009829813     0.000017910530
      11        0.000007409515    -0.000001092324    -0.000024006395
      12        0.000000020898    -0.000017707472     0.000001331391
      13        0.000008393413     0.000011100104    -0.000027753077
      14        0.000011801741    -0.000004979939     0.000013817826
      15       -0.000026794401     0.000017736502     0.000020590334
      16       -0.000002794339     0.000060090354     0.000022912750
      17       -0.000051357435    -0.000014262747    -0.000021819654
      18        0.000047679637    -0.000003282655    -0.000044090094

  **** Optimization is complete! (in 8 steps) ****
    Final optimized geometry and variables:
    Molecular point group: c1

    Geometry (in Angstrom), charge = 0, multiplicity = 1:

    H           -2.160061142014     0.397269246320     0.661795052648
    C           -1.978747438093    -0.394936097566    -0.055686327444
    O           -0.757167065204    -0.267719256211    -0.709651866813
    H           -2.749375860323    -0.343940549102    -0.812549969792
    H           -2.069244246319    -1.351766759938     0.449544987016
    C            0.399253598367     0.082949377367     0.024658224912
    C            1.537068154706    -0.067348202165    -0.979038677359
    C            0.317471811757     1.534771885921     0.501011457390
    C            0.615539917889    -0.864312982305     1.205691007574
    H            1.368810026952     0.577515385779    -1.832198805419
    H            1.590547888417    -1.088668571923    -1.334181319079
    H            2.487931070907     0.193912208944    -0.529903409632
    H            0.119087625875     2.191335829110    -0.337216575671
    H            1.254767453318     1.833778384005     0.955391731470
    H           -0.460870654224     1.680122287654     1.239492452783
    H            0.626281613346    -1.893640784974     0.867862789042
    H            1.564107207477    -0.653982470644     1.684667178406
    H           -0.159245657476    -0.759398700569     1.955264239118

  Mulliken Charges: (a.u.)
   Center  Symbol    Alpha    Beta     Spin     Total
       1     H     0.46955  0.46955  0.00000  0.06090
       2     C     3.04514  3.04514  0.00000 -0.09027
       3     O     4.19094  4.19094  0.00000 -0.38187
       4     H     0.44277  0.44277  0.00000  0.11445
       5     H     0.46556  0.46556  0.00000  0.06888
       6     C     2.87601  2.87601  0.00000  0.24797
       7     C     3.14177  3.14177  0.00000 -0.28355
       8     C     3.15952  3.15952  0.00000 -0.31904
       9     C     3.16638  3.16638  0.00000 -0.33277
      10     H     0.44838  0.44838  0.00000  0.10325
      11     H     0.44942  0.44942  0.00000  0.10116
      12     H     0.45928  0.45928  0.00000  0.08143
      13     H     0.44630  0.44630  0.00000  0.10740
      14     H     0.44984  0.44984  0.00000  0.10031
      15     H     0.44896  0.44896  0.00000  0.10208
      16     H     0.44523  0.44523  0.00000  0.10953
      17     H     0.44670  0.44670  0.00000  0.10661
      18     H     0.44824  0.44824  0.00000  0.10352

   Total alpha = 25.00000, Total beta = 25.00000, Total charge =  0.00000

*** Psi4 exiting successfully. Buy a developer a beer!
