  ==> Input File <==

--------------------------------------------------------------------------
set {
	reference rhf
	basis cc-pvtz
}

set_num_threads( 4 )
memory 2 gb

molecule MOL {
0 1

H	 2.427117	 -0.880065	 -0.932947
N	 2.433987	 -0.362316	 -0.080024
C	 1.263552	 0.494993	 0.021953
H	 3.273629	 0.178281	 -0.070337
C	 -0.016533	 -0.325589	 -0.026925
H	 1.280915	 1.180773	 -0.818522
H	 1.263064	 1.106893	 0.925038
C	 -1.280353	 0.525521	 0.047747
H	 -0.016686	 -0.912532	 -0.939714
H	 -0.014099	 -1.037598	 0.796369
C	 -2.560681	 -0.301323	 -0.007747
H	 -1.279957	 1.241025	 -0.770189
H	 -1.270445	 1.110526	 0.963468
H	 -2.617064	 -0.872870	 -0.928010
H	 -3.439525	 0.331102	 0.043462
H	 -2.609427	 -1.002736	 0.818585

	symmetry c1
}
set optking {
	frozen_dihedral = ("
		1 2 3 6
	")
}

ee = optimize('scf')
oeprop('DIPOLE', 'QUADRUPOLE', 'MULLIKEN_CHARGES')
f=open( 'psi4out.xyz', 'w' )
f.write( "16  " )
f.write( str(ee) + "\n" )
f.write( MOL.save_string_xyz() )
f.close()
--------------------------------------------------------------------------

    Molecular point group: c1
  Charge       = 0
  Multiplicity = 1
  Basis Set: CC-PVTZ
  Basis Set:
  @DF-RHF Final Energy:  -212.39836022853697
    Total Energy =                       -212.3983602285371148
    Molecular point group: c1
  Basis Set: CC-PVTZ
  Basis Set:
  Basis Set: CC-PVTZ
  Basis Set:
  @DF-RHF Final Energy:  -212.40008507431267
    Total Energy =                       -212.4000850743127558
  Basis Set: CC-PVTZ
  Basis Set:
  Basis Set: CC-PVTZ
  Basis Set:
  @DF-RHF Final Energy:  -212.40031988892031
    Total Energy =                       -212.4003198889204214
  Basis Set: CC-PVTZ
  Basis Set:
  Basis Set: CC-PVTZ
  Basis Set:
  @DF-RHF Final Energy:  -212.40032281136718
    Total Energy =                       -212.4003228113670616
  Basis Set: CC-PVTZ
  Basis Set:
  Charge       = 0
  Multiplicity = 1
  Basis Set: CC-PVTZ
  Basis Set:

    Orbital Energies (a.u.)
    -----------------------

    Doubly Occupied:

       1A    -15.526452     2A    -11.238021     3A    -11.213060
       4A    -11.208143     5A    -11.205956     6A     -1.178273
       7A     -1.060945     8A     -0.959835     9A     -0.844224
      10A     -0.792612    11A     -0.664960    12A     -0.639240
      13A     -0.606367    14A     -0.576594    15A     -0.565965
      16A     -0.525357    17A     -0.501106    18A     -0.470331
      19A     -0.465503    20A     -0.462648    21A     -0.383911

  @DF-RHF Final Energy:  -212.40032345619392

   => Energetics <=

    Nuclear Repulsion Energy =            186.5810010829375756
    One-Electron Energy =                -655.7836374948409457
    Two-Electron Energy =                 256.8023129557094535
    DFT Exchange-Correlation Energy =       0.0000000000000000
    Empirical Dispersion Energy =           0.0000000000000000
    PCM Polarization Energy =               0.0000000000000000
    EFP Energy =                            0.0000000000000000
    Total Energy =                       -212.4003234561939166
    Molecular point group: c1
  Basis Set: CC-PVTZ
  Basis Set:

  -Total Gradient:
     Atom            X                  Y                   Z
    ------   -----------------  -----------------  -----------------
       1       -0.000111576682    -0.000130949088     0.000082870621
       2        0.000163033648     0.000185962592    -0.000063262068
       3       -0.000202695340    -0.000175196983    -0.000155613677
       4        0.000012997743     0.000012216055    -0.000006188684
       5        0.000024835035     0.000001445811     0.000015242628
       6        0.000108964393     0.000104249418     0.000102102276
       7       -0.000008110209    -0.000023444594     0.000005157820
       8       -0.000001807187     0.000008711748     0.000012890382
       9        0.000021075510     0.000014039353     0.000007717328
      10        0.000000152545     0.000005556629     0.000002494115
      11       -0.000005360549     0.000000622682    -0.000003275614
      12        0.000005151792    -0.000001821496     0.000003064299
      13       -0.000003789995    -0.000000858732     0.000001124624
      14        0.000000714955    -0.000002368733     0.000000032446
      15       -0.000002822555    -0.000000792163    -0.000004263477
      16       -0.000000763102     0.000002627502    -0.000000093020

  **** Optimization is complete! (in 5 steps) ****
    Final optimized geometry and variables:
    Molecular point group: c1

    Geometry (in Angstrom), charge = 0, multiplicity = 1:

    H            2.464601498515    -0.878253201159    -0.891785296679
    N            2.434383189927    -0.366541275148    -0.034728842946
    C            1.263779552744     0.495038562466     0.014242209937
    H            3.276303508377     0.166078596169     0.020846572335
    C           -0.016403784373    -0.325972951062    -0.017528129614
    H            1.241519357811     1.227194428885    -0.794152394489
    H            1.304554010618     1.057194792531     0.941289353935
    C           -1.279683659948     0.525430677170     0.062448238799
    H           -0.038152377139    -0.915148785891    -0.932487514615
    H            0.006661032928    -1.035085741030     0.803631016910
    C           -2.560077865951    -0.302465055228     0.029623676849
    H           -1.290760946305     1.236018427331    -0.759588239699
    H           -1.257542261651     1.115620654947     0.974621037454
    H           -2.629678270103    -0.878970204951    -0.886881820194
    H           -3.438534398588     0.329747764522     0.089760870671
    H           -2.596050785711    -0.999392600757     0.860121479148

  Mulliken Charges: (a.u.)
   Center  Symbol    Alpha    Beta     Spin     Total
       1     H     0.43092  0.43092  0.00000  0.13816
       2     N     3.68937  3.68937  0.00000 -0.37875
       3     C     3.02548  3.02548  0.00000 -0.05096
       4     H     0.43023  0.43023  0.00000  0.13954
       5     C     3.08049  3.08049  0.00000 -0.16098
       6     H     0.46899  0.46899  0.00000  0.06203
       7     H     0.45729  0.45729  0.00000  0.08542
       8     C     3.08842  3.08842  0.00000 -0.17684
       9     H     0.46082  0.46082  0.00000  0.07837
      10     H     0.44929  0.44929  0.00000  0.10142
      11     C     3.14926  3.14926  0.00000 -0.29852
      12     H     0.45642  0.45642  0.00000  0.08716
      13     H     0.45461  0.45461  0.00000  0.09078
      14     H     0.45549  0.45549  0.00000  0.08903
      15     H     0.44877  0.44877  0.00000  0.10245
      16     H     0.45416  0.45416  0.00000  0.09169

   Total alpha = 21.00000, Total beta = 21.00000, Total charge = -0.00000
