                              Psi4 1.0.54 Driver

  ==> Input File <==

--------------------------------------------------------------------------
set {
	reference rhf
	basis cc-pvtz
}

set_num_threads( 4 )
memory 2 gb

molecule MOL {
0 1

H	 3.459101	 0.139266	 -0.762951
C	 2.749156	 -0.051729	 0.031265
C	 1.322304	 0.099773	 -0.484271
H	 2.929445	 -1.053887	 0.403481
H	 2.954281	 0.646699	 0.834672
C	 0.308557	 -0.162619	 0.622645
H	 1.143368	 -0.594400	 -1.295960
H	 1.169532	 1.100095	 -0.870217
N	 -1.069352	 -0.004081	 0.085342
H	 0.371632	 -1.172932	 0.991288
H	 0.400391	 0.548875	 1.426218
O	 -1.723447	 -0.985801	 -0.028517
O	 -1.410373	 1.089255	 -0.220046

	symmetry c1
}
set optking {
	frozen_dihedral = ("
		12 9 6 3
	")
}

ee,wfn = optimize('scf', return_wfn=True)
oeprop( wfn, 'DIPOLE', 'QUADRUPOLE', 'MULLIKEN_CHARGES')
f=open( 'psi4out.xyz', 'w' )
f.write( "13  " )
f.write( str(ee) + "\n" )
f.write( MOL.save_string_xyz() )
f.close()
--------------------------------------------------------------------------

    Molecular point group: c1
  Charge       = 0
  Multiplicity = 1
  Basis Set: CC-PVTZ
  Basis Set:
  @DF-RHF Final Energy:  -321.86130675433930
    Total Energy =                       -321.8613067543394664
    Molecular point group: c1
  Basis Set: CC-PVTZ
  Basis Set:
  Basis Set: CC-PVTZ
  Basis Set:
  @DF-RHF Final Energy:  -321.85525376764929
    Total Energy =                       -321.8552537676492307
  Basis Set: CC-PVTZ
  Basis Set:
  Basis Set: CC-PVTZ
  Basis Set:
  @DF-RHF Final Energy:  -321.86107841609567
    Total Energy =                       -321.8610784160957792
  Basis Set: CC-PVTZ
  Basis Set:
  Basis Set: CC-PVTZ
  Basis Set:
  @DF-RHF Final Energy:  -321.86138870901732
    Total Energy =                       -321.8613887090173762
  Basis Set: CC-PVTZ
  Basis Set:
  Basis Set: CC-PVTZ
  Basis Set:
  @DF-RHF Final Energy:  -321.86124836269857
    Total Energy =                       -321.8612483626983476
  Basis Set: CC-PVTZ
  Basis Set:
  Basis Set: CC-PVTZ
  Basis Set:
  @DF-RHF Final Energy:  -321.86140407152402
    Total Energy =                       -321.8614040715239071
  Basis Set: CC-PVTZ
  Basis Set:
  Charge       = 0
  Multiplicity = 1
  Basis Set: CC-PVTZ
  Basis Set:

    Orbital Energies (a.u.)
    -----------------------

    Doubly Occupied:

       1A    -20.592200     2A    -20.588921     3A    -15.837160
       4A    -11.297530     5A    -11.253164     6A    -11.236881
       7A     -1.636162     8A     -1.420365     9A     -1.133846
      10A     -1.027772    11A     -0.884211    12A     -0.833461
      13A     -0.762121    14A     -0.739801    15A     -0.728161
      16A     -0.671738    17A     -0.604387    18A     -0.587157
      19A     -0.551393    20A     -0.521300    21A     -0.513269
      22A     -0.487325    23A     -0.474957    24A     -0.453292

  @DF-RHF Final Energy:  -321.86140498453221

   => Energetics <=

    Nuclear Repulsion Energy =            247.9102640874999679
    One-Electron Energy =                -929.8701963614653323
    Two-Electron Energy =                 360.0985272894329228
    DFT Exchange-Correlation Energy =       0.0000000000000000
    Empirical Dispersion Energy =           0.0000000000000000
    PCM Polarization Energy =               0.0000000000000000
    EFP Energy =                            0.0000000000000000
    Total Energy =                       -321.8614049845324416
    Molecular point group: c1
  Basis Set: CC-PVTZ
  Basis Set:

  -Total Gradient:
     Atom            X                  Y                   Z
    ------   -----------------  -----------------  -----------------
       1        0.000018743558    -0.000007940062    -0.000007789207
       2       -0.000004131637    -0.000021587687    -0.000020378967
       3        0.000034023606     0.000274592867     0.000091852895
       4       -0.000000559130    -0.000001521602     0.000010936622
       5       -0.000001890256     0.000008008619    -0.000005879526
       6       -0.000070267222    -0.000323950970     0.000011672661
       7       -0.000000778214    -0.000000107628     0.000007110000
       8       -0.000003040052     0.000014805887     0.000012211939
       9        0.000356284521    -0.000189527915    -0.000226179050
      10        0.000029786646    -0.000012339414     0.000008719099
      11        0.000034299789     0.000000748929    -0.000003069179
      12       -0.000206091503     0.000154212028     0.000245441827
      13       -0.000186380108     0.000104606953    -0.000124649115

  **** Optimization is complete! (in 7 steps) ****
    Final optimized geometry and variables:
    Molecular point group: c1

    Geometry (in Angstrom), charge = 0, multiplicity = 1:

    H            3.467588462617     0.132763879170    -0.766906816717
    C            2.754541089367    -0.056107033857     0.025048194414
    C            1.329895855393     0.111592929707    -0.492136034185
    H            2.926560386652    -1.061120940733     0.393442812191
    H            2.964157339012     0.637158618556     0.831968397698
    C            0.314080393352    -0.155554209262     0.610130323853
    H            1.150257237413    -0.575423931963    -1.311364903694
    H            1.182864891768     1.113835357637    -0.870715625476
    N           -1.070744631733    -0.006304356769     0.084737636507
    H            0.380889314396    -1.158811190595     0.994071096355
    H            0.401699332818     0.564378447729     1.409187779599
    O           -1.724570131794    -0.987687601153    -0.027060422397
    O           -1.423937971203     1.090159976922    -0.197267032205

  Mulliken Charges: (a.u.)
   Center  Symbol    Alpha    Beta     Spin     Total
       1     H     0.44162  0.44162  0.00000  0.11676
       2     C     3.15116  3.15116  0.00000 -0.30232
       3     C     3.09625  3.09625  0.00000 -0.19250
       4     H     0.45178  0.45178  0.00000  0.09644
       5     H     0.45180  0.45180  0.00000  0.09639
       6     C     3.03953  3.03953  0.00000 -0.07907
       7     H     0.44160  0.44160  0.00000  0.11679
       8     H     0.43464  0.43464  0.00000  0.13072
       9     N     3.27665  3.27665  0.00000  0.44669
      10     H     0.43332  0.43332  0.00000  0.13336
      11     H     0.43629  0.43629  0.00000  0.12742
      12     O     4.17002  4.17002  0.00000 -0.34004
      13     O     4.17532  4.17532  0.00000 -0.35064

   Total alpha = 24.00000, Total beta = 24.00000, Total charge =  0.00000

*** Psi4 exiting successfully. Buy a developer a beer!
