  ==> Input File <==

--------------------------------------------------------------------------
set {
	reference rhf
	basis 6-31G*
}

set_num_threads( 1 )
memory 2 gb

molecule MOL {
0 1

H	 -3.161837	 0.500524	 -0.000234
C	 -2.367097	 -0.232926	 -0.000000
O	 -1.158440	 0.455814	 -0.000122
H	 -2.468853	 -0.861886	 -0.882833
H	 -2.468942	 -0.861421	 0.883154
C	 -0.029776	 -0.365156	 0.000148
C	 0.641352	 -0.275393	 1.359630
H	 0.661095	 -0.053782	 -0.784481
H	 -0.315338	 -1.395974	 -0.213805
C	 1.893348	 -1.146519	 1.451966
H	 0.892302	 0.763255	 1.551717
H	 -0.077231	 -0.569589	 2.118436
H	 2.636288	 -0.852162	 0.715882
H	 2.351302	 -1.063656	 2.431893
H	 1.659987	 -2.194551	 1.285907

	symmetry c1
}
set optking {
	frozen_dihedral = ("
		6 3 2 4,
		11 7 6 8
	")
}

ee = energy('scf')
oeprop('DIPOLE', 'QUADRUPOLE', 'MULLIKEN_CHARGES')
f=open( 'psi4out.xyz', 'w' )
f.write( "15  " )
f.write( str(ee) + "\n" )
f.write( MOL.save_string_xyz() )
f.close()
--------------------------------------------------------------------------

    Molecular point group: c1

    Geometry (in Angstrom), charge = 0, multiplicity = 1:

       Center              X                  Y                   Z               Mass
    ------------   -----------------  -----------------  -----------------  -----------------
           H         -2.930056290126     0.818993246408    -0.552393671900     1.007825032070
           C         -2.135316290126     0.085543246408    -0.552159671900    12.000000000000
           O         -0.926659290126     0.774283246408    -0.552281671900    15.994914619560
           H         -2.237072290126    -0.543416753592    -1.434992671900     1.007825032070
           H         -2.237161290126    -0.542951753592     0.330994328100     1.007825032070
           C          0.202004709874    -0.046686753592    -0.552011671900    12.000000000000
           C          0.873132709874     0.043076246408     0.807470328100    12.000000000000
           H          0.892875709874     0.264687246408    -1.336640671900     1.007825032070
           H         -0.083557290126    -1.077504753592    -0.765964671900     1.007825032070
           C          2.125128709874    -0.828049753592     0.899806328100    12.000000000000
           H          1.124082709874     1.081724246408     0.999557328100     1.007825032070
           H          0.154549709874    -0.251119753592     1.566276328100     1.007825032070
           H          2.868068709874    -0.533692753592     0.163722328100     1.007825032070
           H          2.583082709874    -0.745186753592     1.879733328100     1.007825032070
           H          1.891767709874    -1.876081753592     0.733747328100     1.007825032070

  Charge       = 0
  Multiplicity = 1
  Basis Set: 6-31G*
  Basis Set:

    Orbital Energies (a.u.)
    -----------------------

    Doubly Occupied:

       1A    -20.551148     2A    -11.265856     3A    -11.265274
       4A    -11.213032     5A    -11.212216     6A     -1.378133
       7A     -1.055823     8A     -0.956290     9A     -0.880514
      10A     -0.808409    11A     -0.671658    12A     -0.653942
      13A     -0.637071    14A     -0.598726    15A     -0.569036
      16A     -0.536125    17A     -0.507802    18A     -0.494679
      19A     -0.482864    20A     -0.463214    21A     -0.403694

  @DF-RHF Final Energy:  -232.13507348617642

   => Energetics <=

    Nuclear Repulsion Energy =            191.3171391056127106
    One-Electron Energy =                -693.6934422567883303
    Two-Electron Energy =                 270.2412296649991958
    DFT Exchange-Correlation Energy =       0.0000000000000000
    Empirical Dispersion Energy =           0.0000000000000000
    PCM Polarization Energy =               0.0000000000000000
    EFP Energy =                            0.0000000000000000
    Total Energy =                       -232.1350734861764522

  Mulliken Charges: (a.u.)
   Center  Symbol    Alpha    Beta     Spin     Total
       1     H     0.41251  0.41251  0.00000  0.17497
       2     C     3.08101  3.08101  0.00000 -0.16202
       3     O     4.30490  4.30490  0.00000 -0.60980
       4     H     0.42886  0.42886  0.00000  0.14228
       5     H     0.43106  0.43106  0.00000  0.13787
       6     C     2.99040  2.99040  0.00000  0.01920
       7     C     3.15599  3.15599  0.00000 -0.31198
       8     H     0.42098  0.42098  0.00000  0.15805
       9     H     0.43209  0.43209  0.00000  0.13583
      10     C     3.24910  3.24910  0.00000 -0.49819
      11     H     0.41377  0.41377  0.00000  0.17246
      12     H     0.42082  0.42082  0.00000  0.15836
      13     H     0.42043  0.42043  0.00000  0.15914
      14     H     0.41613  0.41613  0.00000  0.16774
      15     H     0.42195  0.42195  0.00000  0.15610

   Total alpha = 21.00000, Total beta = 21.00000, Total charge = -0.00000
