  ==> Input File <==

--------------------------------------------------------------------------
set {
	reference rhf
	basis 6-31G*
}

set_num_threads( 4 )
memory 2 gb

molecule MOL {
0 1

H	 2.816513	 -0.451921	 -0.309399
O	 2.016064	 -0.864478	 0.000222
C	 1.050492	 0.053836	 0.000068
C	 -0.318135	 -0.576402	 0.000164
O	 1.285279	 1.218255	 -0.000078
C	 -1.454360	 0.441875	 -0.000474
H	 -0.374042	 -1.230163	 -0.866135
H	 -0.374274	 -1.229227	 0.867154
C	 -2.826123	 -0.230780	 0.000056
H	 -1.357605	 1.085198	 -0.868380
H	 -1.357504	 1.086451	 0.866496
H	 -2.959731	 -0.858053	 -0.876869
H	 -3.619374	 0.509403	 -0.000080
H	 -2.959371	 -0.857318	 0.877556

	symmetry c1
}
set optking {
	frozen_dihedral = ("
		1 2 3 5
	")
}

ee = optimize('scf')
oeprop('DIPOLE', 'QUADRUPOLE', 'MULLIKEN_CHARGES')
f=open( 'psi4out.xyz', 'w' )
f.write( "14  " )
f.write( str(ee) + "\n" )
f.write( MOL.save_string_xyz() )
f.close()
--------------------------------------------------------------------------

    Molecular point group: c1
  Charge       = 0
  Multiplicity = 1
  Basis Set: 6-31G*
  Basis Set:
  @DF-RHF Final Energy:  -305.87832729873082
    Total Energy =                       -305.8783272987308806
    Molecular point group: c1
  Basis Set: 6-31G*
  Basis Set:
  Basis Set: 6-31G*
  Basis Set:
  @DF-RHF Final Energy:  -305.87481276465462
    Total Energy =                       -305.8748127646546777
  Basis Set: 6-31G*
  Basis Set:
  Basis Set: 6-31G*
  Basis Set:
  @DF-RHF Final Energy:  -305.87851606360010
    Total Energy =                       -305.8785160636000455
  Basis Set: 6-31G*
  Basis Set:
  Basis Set: 6-31G*
  Basis Set:
  @DF-RHF Final Energy:  -305.87856758651287
    Total Energy =                       -305.8785675865125882
  Basis Set: 6-31G*
  Basis Set:
  @DF-RHF Final Energy:  -305.87857316385362
    Total Energy =                       -305.8785731638537300
  @DF-RHF Final Energy:  -305.87857615407813
    Total Energy =                       -305.8785761540779617
  Basis Set: 6-31G*
  Basis Set:
  @DF-RHF Final Energy:  -305.87800878532721
    Total Energy =                       -305.8780087853272676
  Basis Set: 6-31G*
  Basis Set:
  Basis Set: 6-31G*
  Basis Set:
  @DF-RHF Final Energy:  -305.87849888412734
    Total Energy =                       -305.8784988841276231
  Basis Set: 6-31G*
  Basis Set:
  Basis Set: 6-31G*
  Basis Set:
  @DF-RHF Final Energy:  -305.87857674461486
    Total Energy =                       -305.8785767446148611
  Basis Set: 6-31G*
  Basis Set:
  Charge       = 0
  Multiplicity = 1
  Basis Set: 6-31G*
  Basis Set:

    Orbital Energies (a.u.)
    -----------------------

    Doubly Occupied:

       1A    -20.611362     2A    -20.553111     3A    -11.381795
       4A    -11.241154     5A    -11.225497     6A    -11.217069
       7A     -1.473284     8A     -1.366634     9A     -1.082936
      10A     -0.979320    11A     -0.856894    12A     -0.791641
      13A     -0.700814    14A     -0.688027    15A     -0.665906
      16A     -0.618690    17A     -0.589063    18A     -0.572606
      19A     -0.545545    20A     -0.504889    21A     -0.491545
      22A     -0.482296    23A     -0.479457    24A     -0.444552

  @DF-RHF Final Energy:  -305.87857765390072

   => Energetics <=

    Nuclear Repulsion Energy =            239.8825409703563025
    One-Electron Energy =                -892.3940597368027738
    Two-Electron Energy =                 346.6329411125458364
    DFT Exchange-Correlation Energy =       0.0000000000000000
    Empirical Dispersion Energy =           0.0000000000000000
    PCM Polarization Energy =               0.0000000000000000
    EFP Energy =                            0.0000000000000000
    Total Energy =                       -305.8785776539006065
    Molecular point group: c1
  Basis Set: 6-31G*
  Basis Set:

  -Total Gradient:
     Atom            X                  Y                   Z
    ------   -----------------  -----------------  -----------------
       1       -0.001297296418    -0.002218922604    -0.006973906565
       2        0.001370381809     0.002918252851     0.011714138770
       3        0.000290606522    -0.001093336066    -0.011409259048
       4        0.000002843736    -0.000009594737     0.000010795669
       5       -0.000376493437     0.000416088984     0.006660488392
       6        0.000003228945     0.000021597103    -0.000000517793
       7        0.000008550714    -0.000013860807     0.000003193087
       8       -0.000001608217    -0.000010314777    -0.000008929347
       9        0.000006693084    -0.000007826376    -0.000004505168
      10       -0.000003851794    -0.000005873998     0.000014349809
      11        0.000003060465     0.000008122584    -0.000003913685
      12       -0.000005706591    -0.000004779398    -0.000001484327
      13        0.000001839111     0.000000742771    -0.000000663384
      14       -0.000002247935    -0.000000295527     0.000000213589

  **** Optimization is complete! (in 10 steps) ****
    Final optimized geometry and variables:
    Molecular point group: c1

    Geometry (in Angstrom), charge = 0, multiplicity = 1:

    H            2.838906146131    -0.469780236527    -0.199059501989
    O            2.017262890211    -0.860207787837     0.080923185660
    C            1.051075260860     0.055520259513    -0.028970166319
    C           -0.317095714733    -0.575238268144    -0.012982717912
    O            1.283125681317     1.218639601156    -0.078117708605
    C           -1.454529861650     0.441025455954     0.019910900670
    H           -0.386508498020    -1.214484999088    -0.889699737638
    H           -0.357688177341    -1.243519783379     0.842667966780
    C           -2.825439368866    -0.233368757552     0.026718277780
    H           -1.369868472791     1.100422201766    -0.836898571867
    H           -1.347051900179     1.069607094079     0.897579706583
    H           -2.970122401668    -0.844673853144    -0.859716741359
    H           -3.619485766456     0.505581604173     0.050679630415
    H           -2.946250906611    -0.876064453111     0.894242458203

  Mulliken Charges: (a.u.)
   Center  Symbol    Alpha    Beta     Spin     Total
       1     H     0.26750  0.26750  0.00000  0.46501
       2     O     4.35278  4.35278  0.00000 -0.70557
       3     C     2.62458  2.62458  0.00000  0.75085
       4     C     3.20947  3.20947  0.00000 -0.41894
       5     O     4.27554  4.27554  0.00000 -0.55108
       6     C     3.15250  3.15250  0.00000 -0.30500
       7     H     0.40013  0.40013  0.00000  0.19974
       8     H     0.39810  0.39810  0.00000  0.20380
       9     C     3.24289  3.24289  0.00000 -0.48578
      10     H     0.40968  0.40968  0.00000  0.18064
      11     H     0.41062  0.41062  0.00000  0.17876
      12     H     0.42104  0.42104  0.00000  0.15792
      13     H     0.41448  0.41448  0.00000  0.17105
      14     H     0.42069  0.42069  0.00000  0.15862

   Total alpha = 24.00000, Total beta = 24.00000, Total charge = -0.00000
