  ==> Input File <==

--------------------------------------------------------------------------
set {
	reference rhf
	basis cc-pvtz
}

set_num_threads( 4 )
memory 2 gb

molecule MOL {
0 1

H	 2.646708	 0.758099	 0.000000
O	 2.258158	 -0.097743	 0.000000
C	 0.911162	 -0.015915	 0.000000
C	 0.198529	 -1.184447	 0.213284
C	 0.241866	 1.176303	 -0.202677
H	 0.734384	 -2.099983	 0.368691
C	 -1.179061	 -1.149118	 0.221795
H	 0.794782	 2.083240	 -0.368212
C	 -1.141577	 1.196825	 -0.191498
H	 -1.726102	 -2.057780	 0.387571
C	 -1.861023	 0.039398	 0.019905
H	 -1.653469	 2.127014	 -0.349740
H	 -2.933146	 0.059010	 0.027916

	symmetry c1
}
set optking {
	frozen_dihedral = ("
		4 3 2 1
	")
}

ee = optimize('scf')
oeprop('DIPOLE', 'QUADRUPOLE', 'MULLIKEN_CHARGES')
f=open( 'psi4out.xyz', 'w' )
f.write( "13  " )
f.write( str(ee) + "\n" )
f.write( MOL.save_string_xyz() )
f.close()
--------------------------------------------------------------------------

    Molecular point group: c1
  Charge       = 0
  Multiplicity = 1
  Basis Set: CC-PVTZ
  Basis Set:
  @DF-RHF Final Energy:  -305.67040664705110
    Total Energy =                       -305.6704066470508678
    Molecular point group: c1
  Basis Set: CC-PVTZ
  Basis Set:
  Basis Set: CC-PVTZ
  Basis Set:
  @DF-RHF Final Energy:  -305.67040950830034
    Total Energy =                       -305.6704095083003381
  Basis Set: CC-PVTZ
  Basis Set:
  Charge       = 0
  Multiplicity = 1
  Basis Set: CC-PVTZ
  Basis Set:

    Orbital Energies (a.u.)
    -----------------------

    Doubly Occupied:

       1A    -20.584675     2A    -11.297472     3A    -11.235223
       4A    -11.233432     5A    -11.226150     6A    -11.220629
       7A    -11.219549     8A     -1.415329     9A     -1.152672
      10A     -1.022813    11A     -1.008388    12A     -0.851197
      13A     -0.826752    14A     -0.741583    15A     -0.688285
      16A     -0.654812    17A     -0.613065    18A     -0.596619
      19A     -0.592049    20A     -0.566441    21A     -0.517571
      22A     -0.493112    23A     -0.485286    24A     -0.343224
      25A     -0.315000

  @DF-RHF Final Energy:  -305.67041025002942

   => Energetics <=

    Nuclear Repulsion Energy =            273.8312883365009043
    One-Electron Energy =                -957.2007366119291873
    Two-Electron Energy =                 377.6990380253991475
    DFT Exchange-Correlation Energy =       0.0000000000000000
    Empirical Dispersion Energy =           0.0000000000000000
    PCM Polarization Energy =               0.0000000000000000
    EFP Energy =                            0.0000000000000000
    Total Energy =                       -305.6704102500291924
    Molecular point group: c1
  Basis Set: CC-PVTZ
  Basis Set:

  -Total Gradient:
     Atom            X                  Y                   Z
    ------   -----------------  -----------------  -----------------
       1        0.000006789202     0.000005212070     0.001012087915
       2       -0.000017593766     0.000050725483    -0.000926926647
       3        0.000019965764    -0.000083035527    -0.000840358617
       4       -0.000097517351     0.000076757356     0.000712282472
       5        0.000085224068    -0.000040602827     0.000058856869
       6        0.000008675486     0.000005748589     0.000009249974
       7        0.000085942889    -0.000053627960     0.000023410132
       8       -0.000006251293    -0.000002039490    -0.000012745772
       9       -0.000084254773    -0.000055524394    -0.000010723426
      10       -0.000006343442    -0.000000403250    -0.000002730581
      11        0.000001127969     0.000095087348    -0.000031359920
      12        0.000004506846     0.000006237247     0.000004205177
      13       -0.000000271596    -0.000004534646     0.000004752425

  **** Optimization is complete! (in 3 steps) ****
    Final optimized geometry and variables:
    Molecular point group: c1

    Geometry (in Angstrom), charge = 0, multiplicity = 1:

    H            2.646319493106     0.757929076927    -0.011217721774
    O            2.258389157925    -0.098274787440    -0.010611106471
    C            0.911083595203    -0.016914461434    -0.007735106759
    C            0.198400359932    -1.184917990272     0.206628014766
    C            0.241795875839     1.175631896849    -0.209545638551
    H            0.734011818650    -2.100084985490     0.365238678041
    C           -1.179454013988    -1.150276184895     0.211230720433
    H            0.795122613455     2.081693392408    -0.378305516206
    C           -1.141440656762     1.196450310475    -0.197984349515
    H           -1.726473561437    -2.059037364057     0.376655076397
    C           -1.861092507310     0.038342667525     0.010332424569
    H           -1.653251084489     2.126877744066    -0.355200545117
    H           -2.933256652748     0.057952870797     0.017327547812

  Mulliken Charges: (a.u.)
   Center  Symbol    Alpha    Beta     Spin     Total
       1     H     0.38719  0.38719  0.00000  0.22562
       2     O     4.17541  4.17541  0.00000 -0.35083
       3     C     2.85013  2.85013  0.00000  0.29975
       4     C     3.11091  3.11091  0.00000 -0.22182
       5     C     3.13376  3.13376  0.00000 -0.26753
       6     H     0.41940  0.41940  0.00000  0.16120
       7     C     3.05671  3.05671  0.00000 -0.11342
       8     H     0.43453  0.43453  0.00000  0.13094
       9     C     3.06481  3.06481  0.00000 -0.12962
      10     H     0.42241  0.42241  0.00000  0.15518
      11     C     3.09844  3.09844  0.00000 -0.19688
      12     H     0.42238  0.42238  0.00000  0.15525
      13     H     0.42391  0.42391  0.00000  0.15218

   Total alpha = 25.00000, Total beta = 25.00000, Total charge = -0.00000
