  ==> Input File <==

--------------------------------------------------------------------------
set {
	reference rhf
	basis cc-pvtz
}

set_num_threads( 4 )
memory 2 gb

molecule MOL {
0 1

H	 -3.240162	 0.257276	 -0.363079
C	 -2.884095	 1.279110	 -0.472416
O	 -1.525496	 1.316422	 -0.755889
H	 -3.406643	 1.742979	 -1.296222
H	 -3.117373	 1.824023	 0.440566
C	 -0.718530	 0.758693	 0.228682
C	 0.718529	 0.758687	 -0.228709
H	 -0.795411	 1.334819	 1.150711
H	 -1.024982	 -0.262495	 0.444767
O	 1.401606	 -0.295166	 0.366636
H	 0.748705	 0.673477	 -1.312803
H	 1.176496	 1.708671	 0.046552
C	 2.714315	 -0.441627	 -0.061017
H	 2.765292	 -0.641548	 -1.128869
H	 3.305661	 0.447341	 0.150952
H	 3.143725	 -1.278506	 0.470147

	symmetry c1
}
set optking {
	frozen_dihedral = ("
		3 6 7 11
	")
}

ee = optimize('scf')
oeprop('DIPOLE', 'QUADRUPOLE', 'MULLIKEN_CHARGES')
f=open( 'psi4out.xyz', 'w' )
f.write( "16  " )
f.write( str(ee) + "\n" )
f.write( MOL.save_string_xyz() )
f.close()
--------------------------------------------------------------------------

    Molecular point group: c1
  Charge       = 0
  Multiplicity = 1
  Basis Set: CC-PVTZ
  Basis Set:
  @DF-RHF Final Energy:  -307.09625350309875
    Total Energy =                       -307.0962535030986373
    Molecular point group: c1
  Basis Set: CC-PVTZ
  Basis Set:
  Basis Set: CC-PVTZ
  Basis Set:
  @DF-RHF Final Energy:  -307.09701302030157
    Total Energy =                       -307.0970130203018016
  Basis Set: CC-PVTZ
  Basis Set:
  Basis Set: CC-PVTZ
  Basis Set:
  @DF-RHF Final Energy:  -307.09706483118060
    Total Energy =                       -307.0970648311803188
  Basis Set: CC-PVTZ
  Basis Set:
  Basis Set: CC-PVTZ
  Basis Set:
  @DF-RHF Final Energy:  -307.09706777184437
    Total Energy =                       -307.0970677718441948
  Basis Set: CC-PVTZ
  Basis Set:
  Charge       = 0
  Multiplicity = 1
  Basis Set: CC-PVTZ
  Basis Set:

    Orbital Energies (a.u.)
    -----------------------

    Doubly Occupied:

       1A    -20.552952     2A    -20.552270     3A    -11.266065
       4A    -11.265409     5A    -11.264638     6A    -11.264347
       7A     -1.392248     8A     -1.380931     9A     -1.030375
      10A     -0.942007    11A     -0.884349    12A     -0.832280
      13A     -0.692018    14A     -0.677541    15A     -0.661140
      16A     -0.649077    17A     -0.624784    18A     -0.601243
      19A     -0.570237    20A     -0.520103    21A     -0.509523
      22A     -0.485163    23A     -0.468286    24A     -0.421946
      25A     -0.418358

  @DF-RHF Final Energy:  -307.09706791050934

   => Energetics <=

    Nuclear Repulsion Energy =            254.9871713101757109
    One-Electron Energy =                -924.3138987811704510
    Two-Electron Energy =                 362.2296595604851746
    DFT Exchange-Correlation Energy =       0.0000000000000000
    Empirical Dispersion Energy =           0.0000000000000000
    PCM Polarization Energy =               0.0000000000000000
    EFP Energy =                            0.0000000000000000
    Total Energy =                       -307.0970679105095087
    Molecular point group: c1
  Basis Set: CC-PVTZ
  Basis Set:

  -Total Gradient:
     Atom            X                  Y                   Z
    ------   -----------------  -----------------  -----------------
       1        0.000011428257     0.000003048154    -0.000000504609
       2       -0.000018154028     0.000012087194    -0.000017252866
       3       -0.000415530915    -0.002960120971    -0.001287404279
       4       -0.000010790675     0.000000978331     0.000000473383
       5        0.000004483747    -0.000002446668     0.000002094874
       6        0.000511336932     0.004766694277     0.001626688978
       7        0.000045547812    -0.005945463021    -0.000027286552
       8       -0.000006984782     0.000001906814    -0.000003998693
       9       -0.000003463875    -0.000000814781    -0.000003426481
      10        0.000029750621     0.000001296600    -0.000007057892
      11       -0.000148971443     0.004150103461    -0.000305176312
      12        0.000003596797    -0.000016064905     0.000009294399
      13       -0.000003279188    -0.000012266248     0.000012394492
      14       -0.000006446267     0.000002114851     0.000001994306
      15       -0.000002659054     0.000002341383    -0.000000462072
      16        0.000010136061    -0.000003394471    -0.000000370675

  **** Optimization is complete! (in 5 steps) ****
    Final optimized geometry and variables:
    Molecular point group: c1

    Geometry (in Angstrom), charge = 0, multiplicity = 1:

    H           -3.254544100669    -0.179380436817    -0.049427970380
    C           -2.832204324423     0.800052200391    -0.262661363277
    O           -1.490665853005     0.708486381592    -0.611623719491
    H           -3.362658538233     1.233775521156    -1.097803016152
    H           -2.975066414291     1.433236684766     0.610106175303
    C           -0.679373951674     0.146977022751     0.370923172253
    C            0.756053468848     0.164352659415    -0.122516168509
    H           -0.774407489023     0.691256274397     1.307632511244
    H           -0.967243550207    -0.884744956845     0.556570597825
    O            1.448969329892    -0.880967882752     0.477575962221
    H            0.754380918094     0.085958677225    -1.206433913781
    H            1.226120713248     1.115993517721     0.120704650314
    C            2.799185081479    -0.933783668621     0.154150524014
    H            2.946516465534    -1.057464956743    -0.916277220661
    H            3.319965744852    -0.033059422051     0.471171380068
    H            3.228834925376    -1.782795820513     0.665472326183

  Mulliken Charges: (a.u.)
   Center  Symbol    Alpha    Beta     Spin     Total
       1     H     0.47092  0.47092  0.00000  0.05816
       2     C     3.02990  3.02990  0.00000 -0.05979
       3     O     4.17506  4.17506  0.00000 -0.35012
       4     H     0.44680  0.44680  0.00000  0.10639
       5     H     0.47110  0.47110  0.00000  0.05780
       6     C     2.96438  2.96438  0.00000  0.07124
       7     C     2.96428  2.96428  0.00000  0.07143
       8     H     0.47280  0.47280  0.00000  0.05440
       9     H     0.46924  0.46924  0.00000  0.06152
      10     O     4.17439  4.17439  0.00000 -0.34878
      11     H     0.46818  0.46818  0.00000  0.06365
      12     H     0.47463  0.47463  0.00000  0.05074
      13     C     3.03017  3.03017  0.00000 -0.06033
      14     H     0.47048  0.47048  0.00000  0.05905
      15     H     0.47099  0.47099  0.00000  0.05802
      16     H     0.44669  0.44669  0.00000  0.10662

   Total alpha = 25.00000, Total beta = 25.00000, Total charge =  0.00000
