                              Psi4 1.0.54 Driver

  ==> Input File <==

--------------------------------------------------------------------------
set {
	reference rhf
	basis cc-pvtz
}

set_num_threads( 4 )
memory 2 gb

molecule MOL {
0 1

H	 -1.835082	 1.385983	 0.000069
C	 -1.300516	 0.441153	 -0.000028
O	 -0.006604	 0.654344	 -0.000106
O	 -1.828920	 -0.612308	 0.000113
C	 0.749609	 0.139884	 1.092274
C	 2.196152	 0.510538	 0.866823
H	 0.614373	 -0.931416	 1.136848
H	 0.367889	 0.562177	 2.010926
H	 2.563690	 0.084356	 -0.057977
H	 2.800423	 0.132700	 1.682880
H	 2.315966	 1.585464	 0.820468

	symmetry c1
}
set optking {
	frozen_dihedral = ("
		5 3 2 4
	")
}

ee,wfn = optimize('scf', return_wfn=True)
oeprop( wfn, 'DIPOLE', 'QUADRUPOLE', 'MULLIKEN_CHARGES')
f=open( 'psi4out.xyz', 'w' )
f.write( "11  " )
f.write( str(ee) + "\n" )
f.write( MOL.save_string_xyz() )
f.close()
--------------------------------------------------------------------------

    Molecular point group: c1
  Charge       = 0
  Multiplicity = 1
  Basis Set: CC-PVTZ
  Basis Set:
  @DF-RHF Final Energy:  -266.91684416207329
    Total Energy =                       -266.9168441620732324
    Molecular point group: c1
  Basis Set: CC-PVTZ
  Basis Set:
  Basis Set: CC-PVTZ
  Basis Set:
  @DF-RHF Final Energy:  -266.90870767353562
    Total Energy =                       -266.9087076735357869
  Basis Set: CC-PVTZ
  Basis Set:
  Basis Set: CC-PVTZ
  Basis Set:
  @DF-RHF Final Energy:  -266.91684025788959
    Total Energy =                       -266.9168402578897030
  Basis Set: CC-PVTZ
  Basis Set:
  Basis Set: CC-PVTZ
  Basis Set:
  @DF-RHF Final Energy:  -266.91779702868024
    Total Energy =                       -266.9177970286801838
  Basis Set: CC-PVTZ
  Basis Set:
  Basis Set: CC-PVTZ
  Basis Set:
  @DF-RHF Final Energy:  -266.91789147495103
    Total Energy =                       -266.9178914749509204
  Basis Set: CC-PVTZ
  Basis Set:
  Basis Set: CC-PVTZ
  Basis Set:
  @DF-RHF Final Energy:  -266.91791289922344
    Total Energy =                       -266.9179128992234382
  Basis Set: CC-PVTZ
  Basis Set:
  Charge       = 0
  Multiplicity = 1
  Basis Set: CC-PVTZ
  Basis Set:

    Orbital Energies (a.u.)
    -----------------------

    Doubly Occupied:

       1A    -20.589953     2A    -20.555597     3A    -11.372713
       4A    -11.295471     5A    -11.225551     6A     -1.470955
       7A     -1.379495     8A     -1.050806     9A     -0.895117
      10A     -0.816387    11A     -0.743142    12A     -0.690813
      13A     -0.661395    14A     -0.628016    15A     -0.564012
      16A     -0.545877    17A     -0.532683    18A     -0.509757
      19A     -0.467125    20A     -0.452850

  @DF-RHF Final Energy:  -266.91791382268707

   => Energetics <=

    Nuclear Repulsion Energy =            178.1268378114789641
    One-Electron Energy =                -717.1940730969968172
    Two-Electron Energy =                 272.1493214628307555
    DFT Exchange-Correlation Energy =       0.0000000000000000
    Empirical Dispersion Energy =           0.0000000000000000
    PCM Polarization Energy =               0.0000000000000000
    EFP Energy =                            0.0000000000000000
    Total Energy =                       -266.9179138226871260
    Molecular point group: c1
  Basis Set: CC-PVTZ
  Basis Set:

  -Total Gradient:
     Atom            X                  Y                   Z
    ------   -----------------  -----------------  -----------------
       1       -0.000017484201    -0.000030823471     0.000019421839
       2       -0.001181014267     0.001513924447     0.014795979911
       3        0.002076822805    -0.007520235044    -0.010086260393
       4        0.000447469150     0.000813242211    -0.008568419941
       5       -0.001324671225     0.005245076647     0.003852238927
       6       -0.000025378346    -0.000001584355    -0.000020909496
       7        0.000013077341     0.000013546970    -0.000002211401
       8        0.000028867086    -0.000020799194     0.000012081522
       9        0.000002561884     0.000000580171     0.000001286393
      10       -0.000011623353    -0.000002589610    -0.000005432045
      11       -0.000008626874    -0.000010338774     0.000002224686

  **** Optimization is complete! (in 7 steps) ****
    Final optimized geometry and variables:
    Molecular point group: c1

    Geometry (in Angstrom), charge = 0, multiplicity = 1:

    H           -1.868233395565     1.133751245519    -0.457399897692
    C           -1.272721548276     0.224658131720    -0.420302943945
    O            0.026703358275     0.491300453187    -0.332095141777
    O           -1.736338572618    -0.846816253149    -0.543813561118
    C            0.757030089671    -0.090411805121     0.744530960491
    C            2.218267060567     0.235300088969     0.550477571043
    H            0.589750526816    -1.158235804637     0.752535412995
    H            0.387911607602     0.324942420123     1.675246504366
    H            2.580435689771    -0.183091863066    -0.379582125813
    H            2.797631542350    -0.181535693966     1.365788715620
    H            2.373379518773     1.306337572037     0.529748556665

  Mulliken Charges: (a.u.)
   Center  Symbol    Alpha    Beta     Spin     Total
       1     H     0.45888  0.45888  0.00000  0.08225
       2     C     2.83800  2.83800  0.00000  0.32399
       3     O     4.15855  4.15855  0.00000 -0.31710
       4     O     4.17470  4.17470  0.00000 -0.34940
       5     C     2.96990  2.96990  0.00000  0.06020
       6     C     3.13466  3.13466  0.00000 -0.26931
       7     H     0.44938  0.44938  0.00000  0.10125
       8     H     0.46270  0.46270  0.00000  0.07461
       9     H     0.44741  0.44741  0.00000  0.10517
      10     H     0.45569  0.45569  0.00000  0.08862
      11     H     0.45013  0.45013  0.00000  0.09973

   Total alpha = 20.00000, Total beta = 20.00000, Total charge =  0.00000

*** Psi4 exiting successfully. Buy a developer a beer!
