                              Psi4 1.0.54 Driver

  ==> Input File <==

--------------------------------------------------------------------------
set {
	reference rhf
	basis cc-pvtz
}

set_num_threads( 4 )
memory 2 gb

molecule MOL {
0 1

H	 -0.939693	 0.000281	 1.681345
O	 -0.046262	 -0.000157	 1.387678
C	 -0.000837	 0.000006	 -0.025491
C	 1.432186	 -0.250634	 -0.491080
C	 -0.941853	 -1.074183	 -0.567480
C	 -0.468521	 1.387093	 -0.444359
H	 1.505180	 -0.220299	 -1.572073
H	 1.778366	 -1.226164	 -0.163099
H	 2.096825	 0.498572	 -0.079485
H	 -0.955807	 -1.073950	 -1.651266
H	 -0.628325	 -2.061065	 -0.240618
H	 -1.949769	 -0.905226	 -0.209675
H	 -0.468014	 1.485631	 -1.523515
H	 0.184098	 2.144051	 -0.028047
H	 -1.472060	 1.569569	 -0.081279

	symmetry c1
}
set optking {
	frozen_dihedral = ("
		4 3 2 1
	")
}

ee,wfn = optimize('scf', return_wfn=True)
oeprop( wfn, 'DIPOLE', 'QUADRUPOLE', 'MULLIKEN_CHARGES')
f=open( 'psi4out.xyz', 'w' )
f.write( "15  " )
f.write( str(ee) + "\n" )
f.write( MOL.save_string_xyz() )
f.close()
--------------------------------------------------------------------------

    Molecular point group: c1
  Charge       = 0
  Multiplicity = 1
  Basis Set: CC-PVTZ
  Basis Set:
  @DF-RHF Final Energy:  -232.24471174351592
    Total Energy =                       -232.2447117435158930
    Molecular point group: c1
  Basis Set: CC-PVTZ
  Basis Set:
  Basis Set: CC-PVTZ
  Basis Set:
  @DF-RHF Final Energy:  -232.19712760976265
    Total Energy =                       -232.1971276097623900
  Basis Set: CC-PVTZ
  Basis Set:
  Basis Set: CC-PVTZ
  Basis Set:
  @DF-RHF Final Energy:  -232.24442078996472
    Total Energy =                       -232.2444207899645789
  Basis Set: CC-PVTZ
  Basis Set:
  Basis Set: CC-PVTZ
  Basis Set:
  @DF-RHF Final Energy:  -232.24659068942626
    Total Energy =                       -232.2465906894261707
  Basis Set: CC-PVTZ
  Basis Set:
  Basis Set: CC-PVTZ
  Basis Set:
  @DF-RHF Final Energy:  -232.24666192053672
    Total Energy =                       -232.2466619205364964
  Basis Set: CC-PVTZ
  Basis Set:
  Basis Set: CC-PVTZ
  Basis Set:
  @DF-RHF Final Energy:  -232.24666738137378
    Total Energy =                       -232.2466673813739249
  Basis Set: CC-PVTZ
  Basis Set:
  Charge       = 0
  Multiplicity = 1
  Basis Set: CC-PVTZ
  Basis Set:

    Orbital Energies (a.u.)
    -----------------------

    Doubly Occupied:

       1A    -20.542123     2A    -11.280796     3A    -11.210964
       4A    -11.207717     5A    -11.203832     6A     -1.364859
       7A     -1.065255     8A     -0.942668     9A     -0.939898
      10A     -0.778512    11A     -0.672616    12A     -0.624339
      13A     -0.622834    14A     -0.575981    15A     -0.557606
      16A     -0.532842    17A     -0.517040    18A     -0.511302
      19A     -0.504624    20A     -0.458685    21A     -0.428696

  @DF-RHF Final Energy:  -232.24666731725108

   => Energetics <=

    Nuclear Repulsion Energy =            200.6743614904894457
    One-Electron Energy =                -712.7556817435857965
    Two-Electron Energy =                 279.8346529358452699
    DFT Exchange-Correlation Energy =       0.0000000000000000
    Empirical Dispersion Energy =           0.0000000000000000
    PCM Polarization Energy =               0.0000000000000000
    EFP Energy =                            0.0000000000000000
    Total Energy =                       -232.2466673172510809
    Molecular point group: c1
  Basis Set: CC-PVTZ
  Basis Set:

  -Total Gradient:
     Atom            X                  Y                   Z
    ------   -----------------  -----------------  -----------------
       1       -0.000002466363    -0.000913492420     0.000056538493
       2       -0.000045158214     0.000982763087    -0.000061102370
       3        0.000126834876     0.000475201689     0.000037432462
       4       -0.000105106090    -0.000536868695    -0.000016752892
       5       -0.000000965584     0.000021015500    -0.000011787151
       6        0.000011000831    -0.000012799613    -0.000004862140
       7        0.000007062377     0.000009538391     0.000005110051
       8       -0.000020441115    -0.000004254789    -0.000010985065
       9        0.000001790725    -0.000000173460     0.000008837103
      10       -0.000015326257     0.000007865524    -0.000008786320
      11        0.000033333969     0.000002142058     0.000004637245
      12       -0.000006715950    -0.000009913166     0.000010609109
      13       -0.000003733909     0.000000852243    -0.000012223754
      14        0.000004306432    -0.000012227129    -0.000001612366
      15        0.000015584271    -0.000009649221     0.000004947595

  **** Optimization is complete! (in 7 steps) ****
    Final optimized geometry and variables:
    Molecular point group: c1

    Geometry (in Angstrom), charge = 0, multiplicity = 1:

    H           -1.427446732520     0.094123921235     1.290546157130
    O           -0.487298769569     0.081956480178     1.297841835005
    C            0.007777879706     0.000934357813    -0.024283606226
    C            1.500046502988    -0.266344875799     0.117236502994
    C           -0.676746089411    -1.149692297277    -0.759289374884
    C           -0.240986103424     1.325893597150    -0.742231676795
    H            1.976004526898    -0.327311327011    -0.854392004422
    H            1.665808451502    -1.197888189994     0.643314509505
    H            1.970555011256     0.528735806728     0.681955474895
    H           -0.291303845974    -1.256003440831    -1.766456257342
    H           -0.518635487790    -2.081354619919    -0.230280360521
    H           -1.746821817455    -0.978456715082    -0.832326910302
    H            0.158631448318     1.308963770900    -1.749815679982
    H            0.225403861220     2.138469075607    -0.199610128732
    H           -1.304536930621     1.532211780675    -0.809046832555

  Mulliken Charges: (a.u.)
   Center  Symbol    Alpha    Beta     Spin     Total
       1     H     0.39551  0.39551  0.00000  0.20899
       2     O     4.21132  4.21132  0.00000 -0.42264
       3     C     2.87834  2.87834  0.00000  0.24333
       4     C     3.14291  3.14291  0.00000 -0.28582
       5     C     3.15208  3.15208  0.00000 -0.30417
       6     C     3.14842  3.14842  0.00000 -0.29684
       7     H     0.45878  0.45878  0.00000  0.08244
       8     H     0.44919  0.44919  0.00000  0.10161
       9     H     0.44770  0.44770  0.00000  0.10460
      10     H     0.45462  0.45462  0.00000  0.09077
      11     H     0.44596  0.44596  0.00000  0.10807
      12     H     0.45629  0.45629  0.00000  0.08742
      13     H     0.45635  0.45635  0.00000  0.08730
      14     H     0.44708  0.44708  0.00000  0.10584
      15     H     0.45545  0.45545  0.00000  0.08909

   Total alpha = 21.00000, Total beta = 21.00000, Total charge =  0.00000

*** Psi4 exiting successfully. Buy a developer a beer!
