                              Psi4 1.0.54 Driver

  ==> Input File <==

--------------------------------------------------------------------------
set {
	reference rhf
	basis cc-pvtz
}

set_num_threads( 4 )
memory 2 gb

molecule MOL {
0 1

H	 -2.850609	 -3.124969	 -0.064172
O	 -2.684750	 -2.223304	 -0.268344
C	 -1.405439	 -1.855295	 0.174772
C	 -1.175688	 -0.398187	 -0.171891
H	 -1.319150	 -1.998458	 1.249868
H	 -0.645864	 -2.473091	 -0.299786
C	 0.196029	 0.106276	 0.266738
H	 -1.956840	 0.193450	 0.294999
H	 -1.292368	 -0.277412	 -1.244139
C	 1.330220	 -0.826136	 -0.155230
H	 0.359542	 1.097229	 -0.145561
H	 0.212134	 0.218135	 1.348778
C	 2.719700	 -0.407669	 0.328325
H	 1.339388	 -0.911200	 -1.239363
H	 1.119001	 -1.821953	 0.224128
C	 3.241564	 0.893452	 -0.276737
H	 3.418299	 -1.204729	 0.093035
H	 2.711776	 -0.323368	 1.411960
H	 3.254204	 0.841071	 -1.360784
H	 2.634460	 1.745075	 0.005842
H	 4.254264	 1.092401	 0.054971

	symmetry c1
}
set optking {
	frozen_dihedral = ("
		8 4 7 10
	")
}

ee,wfn = optimize('scf', return_wfn=True)
oeprop( wfn, 'DIPOLE', 'QUADRUPOLE', 'MULLIKEN_CHARGES')
f=open( 'psi4out.xyz', 'w' )
f.write( "21  " )
f.write( str(ee) + "\n" )
f.write( MOL.save_string_xyz() )
f.close()
--------------------------------------------------------------------------

    Molecular point group: c1
  Charge       = 0
  Multiplicity = 1
  Basis Set: CC-PVTZ
  Basis Set:
  @DF-RHF Final Energy:  -310.32775473826041
    Total Energy =                       -310.3277547382606372
    Molecular point group: c1
  Basis Set: CC-PVTZ
  Basis Set:
  Basis Set: CC-PVTZ
  Basis Set:
  @DF-RHF Final Energy:  -308.76463758380532
    Total Energy =                       -308.7646375838053245
  Basis Set: CC-PVTZ
  Basis Set:
  Basis Set: CC-PVTZ
  Basis Set:
  @DF-RHF Final Energy:  -308.97743398797536
    Total Energy =                       -308.9774339879754734
  Basis Set: CC-PVTZ
  Basis Set:
  Basis Set: CC-PVTZ
  Basis Set:
  @DF-RHF Final Energy:  -309.39152759855364
    Total Energy =                       -309.3915275985535800
  Basis Set: CC-PVTZ
  Basis Set:
  @DF-RHF Final Energy:  -309.75861485328608
    Total Energy =                       -309.7586148532860761
  @DF-RHF Final Energy:  -310.04097953804893
    Total Energy =                       -310.0409795380485889
  @DF-RHF Final Energy:  -310.22381918041515
    Total Energy =                       -310.2238191804149210
  @DF-RHF Final Energy:  -310.30380192180684
    Total Energy =                       -310.3038019218068371
  @DF-RHF Final Energy:  -310.30761614914144
    Total Energy =                       -310.3076161491416087
  @DF-RHF Final Energy:  -310.32644187667330
    Total Energy =                       -310.3264418766735844
  @DF-RHF Final Energy:  -310.32996291375741
    Total Energy =                       -310.3299629137575835
  @DF-RHF Final Energy:  -310.33007415544347
    Total Energy =                       -310.3300741554439810
  Basis Set: CC-PVTZ
  Basis Set:
  @DF-RHF Final Energy:  -310.33007883947380
    Total Energy =                       -310.3300788394737992
  Basis Set: CC-PVTZ
  Basis Set:
  Basis Set: CC-PVTZ
  Basis Set:
  @DF-RHF Final Energy:  -310.33010177633872
    Total Energy =                       -310.3301017763384380
  Basis Set: CC-PVTZ
  Basis Set:
  Basis Set: CC-PVTZ
  Basis Set:
  @DF-RHF Final Energy:  -310.33010490600907
    Total Energy =                       -310.3301049060090691
  Basis Set: CC-PVTZ
  Basis Set:
  Charge       = 0
  Multiplicity = 1
  Basis Set: CC-PVTZ
  Basis Set:

    Orbital Energies (a.u.)
    -----------------------

    Doubly Occupied:

       1A    -20.544932     2A    -11.264158     3A    -11.214410
       4A    -11.213424     5A    -11.212774     6A    -11.209275
       7A    -11.206524     8A     -1.362682     9A     -1.087529
      10A     -1.032892    11A     -0.952120    12A     -0.885650
      13A     -0.812902    14A     -0.769021    15A     -0.699161
      16A     -0.654214    17A     -0.629339    18A     -0.610376
      19A     -0.579892    20A     -0.575540    21A     -0.535070
      22A     -0.530419    23A     -0.515594    24A     -0.486074
      25A     -0.483140    26A     -0.460705    27A     -0.451962
      28A     -0.444201    29A     -0.435060

  @DF-RHF Final Energy:  -310.33010501435933

   => Energetics <=

    Nuclear Repulsion Energy =            316.7047901631965487
    One-Electron Energy =               -1048.3517142652763141
    Two-Electron Energy =                 421.3168190877199777
    DFT Exchange-Correlation Energy =       0.0000000000000000
    Empirical Dispersion Energy =           0.0000000000000000
    PCM Polarization Energy =               0.0000000000000000
    EFP Energy =                            0.0000000000000000
    Total Energy =                       -310.3301050143597877
    Molecular point group: c1
  Basis Set: CC-PVTZ
  Basis Set:

  -Total Gradient:
     Atom            X                  Y                   Z
    ------   -----------------  -----------------  -----------------
       1       -0.000001515233     0.000004165988    -0.000004758065
       2        0.000005018789    -0.000009618233     0.000011501295
       3       -0.000008286422    -0.000001783308    -0.000023876000
       4        0.000083102436     0.002773955058    -0.001147940708
       5       -0.000003654038     0.000007125291     0.000000384889
       6       -0.000008323361    -0.000004332021     0.000012458485
       7       -0.000267677548     0.002157317102    -0.001619244441
       8       -0.000005253024    -0.002936323655     0.001406350007
       9        0.000006500771    -0.000006765927     0.000008498054
      10        0.000184298088    -0.002001956457     0.001361045027
      11       -0.000001765517    -0.000000278074    -0.000003970070
      12       -0.000001881043     0.000004660256     0.000006551783
      13        0.000011945766     0.000005992109     0.000006568968
      14       -0.000004731689     0.000000805276     0.000004246495
      15        0.000006793474     0.000005492298    -0.000005728888
      16        0.000001778105     0.000001621707    -0.000013083480
      17       -0.000000683115     0.000002059211     0.000007240801
      18       -0.000000057307    -0.000004119289     0.000000368766
      19        0.000003374914     0.000006198432     0.000000640177
      20       -0.000000019180    -0.000008564293    -0.000002902263
      21        0.000001035129     0.000004348529    -0.000004350832

  **** Optimization is complete! (in 16 steps) ****
    Final optimized geometry and variables:
    Molecular point group: c1

    Geometry (in Angstrom), charge = 0, multiplicity = 1:

    H           -3.320052414137    -0.766213216029     2.148842983717
    O           -2.729207596349    -0.049925179389     2.007738242369
    C           -1.628346318664    -0.475481622571     1.247283937025
    C           -0.746934375206     0.732923289607     0.986184083567
    H           -1.064804025105    -1.235073010695     1.786790716780
    H           -1.966504528424    -0.916912378118     0.315077862731
    C            0.599579231320     0.415194689086     0.330008699406
    H           -0.566729224969     1.194654078008     1.950753483176
    H           -1.304538802226     1.444368631209     0.386022049133
    C            0.527270938622    -0.453086248527    -0.927093848410
    H            1.088801567839     1.355080962748     0.103248395324
    H            1.235261124953    -0.087596775834     1.055696907667
    C            1.876822951972    -0.681588603290    -1.612255967333
    H           -0.163116407272    -0.006965234633    -1.640421712955
    H            0.113166609961    -1.421859634947    -0.669091332062
    C            2.480684857936     0.558178366237    -2.267678675730
    H            1.749805384006    -1.446458960532    -2.372203893368
    H            2.580651705684    -1.087646613558    -0.890279463220
    H            1.797971294056     0.984250272893    -2.995820169603
    H            2.715338047818     1.329170713094    -1.544090788675
    H            3.400004150496     0.308829024901    -2.785201338836

  Mulliken Charges: (a.u.)
   Center  Symbol    Alpha    Beta     Spin     Total
       1     H     0.39706  0.39706  0.00000  0.20587
       2     O     4.19645  4.19645  0.00000 -0.39289
       3     C     2.96609  2.96609  0.00000  0.06782
       4     C     3.08954  3.08954  0.00000 -0.17909
       5     H     0.47360  0.47360  0.00000  0.05280
       6     H     0.47134  0.47134  0.00000  0.05733
       7     C     3.11025  3.11025  0.00000 -0.22049
       8     H     0.44582  0.44582  0.00000  0.10837
       9     H     0.45008  0.45008  0.00000  0.09983
      10     C     3.10115  3.10115  0.00000 -0.20229
      11     H     0.44508  0.44508  0.00000  0.10984
      12     H     0.45304  0.45304  0.00000  0.09392
      13     C     3.08962  3.08962  0.00000 -0.17923
      14     H     0.45266  0.45266  0.00000  0.09469
      15     H     0.44826  0.44826  0.00000  0.10348
      16     C     3.15119  3.15119  0.00000 -0.30238
      17     H     0.44850  0.44850  0.00000  0.10300
      18     H     0.45485  0.45485  0.00000  0.09029
      19     H     0.45480  0.45480  0.00000  0.09039
      20     H     0.45384  0.45384  0.00000  0.09231
      21     H     0.44679  0.44679  0.00000  0.10643

   Total alpha = 29.00000, Total beta = 29.00000, Total charge = -0.00000

*** Psi4 exiting successfully. Buy a developer a beer!
