                              Psi4 1.0.54 Driver

  ==> Input File <==

--------------------------------------------------------------------------
set {
	reference rhf
	basis cc-pvtz
}

set_num_threads( 4 )
memory 2 gb

molecule MOL {
0 1

H	 0.986481	 -2.630030	 -0.229208
C	 0.505915	 -2.475469	 0.745892
C	 -0.765870	 -1.674136	 0.710881
O	 0.995412	 -2.924013	 1.724072
C	 -0.554654	 -0.292621	 0.086567
H	 -1.150130	 -1.596376	 1.719412
H	 -1.486107	 -2.232504	 0.116438
C	 -1.846385	 0.513195	 -0.016346
H	 0.169140	 0.259828	 0.678902
H	 -0.121283	 -0.404066	 -0.904110
C	 -3.089953	 -0.365049	 -0.098564
H	 -1.798267	 1.154820	 -0.891143
H	 -1.925398	 1.173265	 0.842889
H	 -3.055079	 -1.012299	 -0.968245
H	 -3.988403	 0.236438	 -0.170014
H	 -3.183055	 -0.995885	 0.779079

	symmetry c1
}
set optking {
	frozen_dihedral = ("
		9 5 8 12
	")
}

ee,wfn = optimize('scf', return_wfn=True)
oeprop( wfn, 'DIPOLE', 'QUADRUPOLE', 'MULLIKEN_CHARGES')
f=open( 'psi4out.xyz', 'w' )
f.write( "16  " )
f.write( str(ee) + "\n" )
f.write( MOL.save_string_xyz() )
f.close()
--------------------------------------------------------------------------

    Molecular point group: c1
  Charge       = 0
  Multiplicity = 1
  Basis Set: CC-PVTZ
  Basis Set:
  @DF-RHF Final Energy:  -270.10980235333716
    Total Energy =                       -270.1098023533371020
    Molecular point group: c1
  Basis Set: CC-PVTZ
  Basis Set:
  Basis Set: CC-PVTZ
  Basis Set:
  @DF-RHF Final Energy:  -270.09063196459084
    Total Energy =                       -270.0906319645906706
  Basis Set: CC-PVTZ
  Basis Set:
  Basis Set: CC-PVTZ
  Basis Set:
  @DF-RHF Final Energy:  -270.11174383622603
    Total Energy =                       -270.1117438362257417
  Basis Set: CC-PVTZ
  Basis Set:
  Basis Set: CC-PVTZ
  Basis Set:
  @DF-RHF Final Energy:  -270.11243051531517
    Total Energy =                       -270.1124305153151681
  Basis Set: CC-PVTZ
  Basis Set:
  @DF-RHF Final Energy:  -270.11253044605348
    Total Energy =                       -270.1125304460533698
  Basis Set: CC-PVTZ
  Basis Set:
  @DF-RHF Final Energy:  -270.11271031591264
    Total Energy =                       -270.1127103159124658
  Basis Set: CC-PVTZ
  Basis Set:
  Basis Set: CC-PVTZ
  Basis Set:
  @DF-RHF Final Energy:  -270.11270420736582
    Total Energy =                       -270.1127042073659368
  Basis Set: CC-PVTZ
  Basis Set:
  Basis Set: CC-PVTZ
  Basis Set:
  @DF-RHF Final Energy:  -270.11272024388131
    Total Energy =                       -270.1127202438816539
  Basis Set: CC-PVTZ
  Basis Set:
  Charge       = 0
  Multiplicity = 1
  Basis Set: CC-PVTZ
  Basis Set:

    Orbital Energies (a.u.)
    -----------------------

    Doubly Occupied:

       1A    -20.551502     2A    -11.320691     3A    -11.235330
       4A    -11.233003     5A    -11.228167     6A    -11.217458
       7A     -1.406255     8A     -1.095668     9A     -1.015680
      10A     -0.916115    11A     -0.810183    12A     -0.786736
      13A     -0.679175    14A     -0.652690    15A     -0.640827
      16A     -0.588282    17A     -0.577755    18A     -0.569804
      19A     -0.530259    20A     -0.520755    21A     -0.487351
      22A     -0.474493    23A     -0.471697    24A     -0.411667

  @DF-RHF Final Energy:  -270.11272088551698

   => Energetics <=

    Nuclear Repulsion Energy =            232.8366041561182271
    One-Electron Energy =                -827.0555672087957646
    Two-Electron Energy =                 324.1062421671606444
    DFT Exchange-Correlation Energy =       0.0000000000000000
    Empirical Dispersion Energy =           0.0000000000000000
    PCM Polarization Energy =               0.0000000000000000
    EFP Energy =                            0.0000000000000000
    Total Energy =                       -270.1127208855168647
    Molecular point group: c1
  Basis Set: CC-PVTZ
  Basis Set:

  -Total Gradient:
     Atom            X                  Y                   Z
    ------   -----------------  -----------------  -----------------
       1        0.000008295215     0.000009737132     0.000005075134
       2       -0.000026828644    -0.000009043405     0.000030447156
       3       -0.000008919303     0.000109407705    -0.000050762217
       4        0.000023942144    -0.000028200902     0.000010972851
       5        0.002737647789     0.001552552322    -0.007039712100
       6       -0.000019220531    -0.000011106776     0.000010837740
       7       -0.000004637571    -0.000025332837    -0.000001883816
       8        0.002330029321     0.005359670969     0.005041334706
       9       -0.002712687087    -0.002134690367     0.005174318894
      10        0.000001755923     0.000003627690    -0.000018093245
      11        0.000012283261    -0.000033107402    -0.000004797485
      12       -0.002345516144    -0.004781074583    -0.003173414644
      13       -0.000005470018     0.000015321886    -0.000008696363
      14       -0.000007204781     0.000002070474    -0.000021159446
      15       -0.000003688246     0.000004091292     0.000012233209
      16        0.000020218671    -0.000033923198     0.000033299625

  **** Optimization is complete! (in 9 steps) ****
    Final optimized geometry and variables:
    Molecular point group: c1

    Geometry (in Angstrom), charge = 0, multiplicity = 1:

    H            1.883491371878    -1.515453562832    -0.333119513372
    C            1.305124123477    -1.216566900487     0.551240844972
    C            0.015705219570    -0.501128623145     0.258343562002
    O            1.713601787287    -1.459086389558     1.634005860519
    C            0.270624310015     0.780033393637    -0.548665388022
    H           -0.475057174080    -0.286988421437     1.198751516822
    H           -0.611074218340    -1.186040708395    -0.304824900231
    C           -0.986229801888     1.614880368683    -0.865042185236
    H            0.941383744445     1.386941948667     0.050202299128
    H            0.786726405025     0.523845232740    -1.467751600743
    C           -2.278914494848     0.822214548049    -1.062016100300
    H           -0.807894274696     2.146560961897    -1.793274775250
    H           -1.138840855085     2.353620084558    -0.087249035093
    H           -2.175060073740     0.081188921325    -1.847973952177
    H           -3.082451748623     1.490071990447    -1.349297966418
    H           -2.588979307484     0.309524073819    -0.159886037545

  Mulliken Charges: (a.u.)
   Center  Symbol    Alpha    Beta     Spin     Total
       1     H     0.46610  0.46610  0.00000  0.06779
       2     C     2.91174  2.91174  0.00000  0.17652
       3     C     3.07865  3.07865  0.00000 -0.15731
       4     O     4.16410  4.16410  0.00000 -0.32820
       5     C     3.10954  3.10954  0.00000 -0.21908
       6     H     0.44228  0.44228  0.00000  0.11544
       7     H     0.44763  0.44763  0.00000  0.10474
       8     C     3.08685  3.08685  0.00000 -0.17370
       9     H     0.44285  0.44285  0.00000  0.11429
      10     H     0.44846  0.44846  0.00000  0.10309
      11     C     3.15889  3.15889  0.00000 -0.31777
      12     H     0.44878  0.44878  0.00000  0.10244
      13     H     0.44752  0.44752  0.00000  0.10496
      14     H     0.45351  0.45351  0.00000  0.09298
      15     H     0.44276  0.44276  0.00000  0.11449
      16     H     0.45033  0.45033  0.00000  0.09934

   Total alpha = 24.00000, Total beta = 24.00000, Total charge = -0.00000

*** Psi4 exiting successfully. Buy a developer a beer!
