                              Psi4 1.0.54 Driver

  ==> Input File <==

--------------------------------------------------------------------------
set {
	reference rhf
	basis cc-pvtz
}

set_num_threads( 4 )
memory 2 gb

molecule MOL {
0 1

H	 -3.144994	 -1.202467	 -0.018751
O	 -2.321472	 -0.864941	 -0.318626
C	 -2.021813	 0.336996	 0.342658
C	 -0.669613	 0.837286	 -0.127252
H	 -2.780861	 1.084746	 0.127159
H	 -2.006390	 0.184138	 1.420053
C	 0.490865	 -0.082543	 0.241244
H	 -0.708709	 0.967192	 -1.204587
H	 -0.507562	 1.822272	 0.303070
C	 1.839800	 0.429565	 -0.255472
H	 0.305636	 -1.070211	 -0.165276
H	 0.527397	 -0.195943	 1.322876
C	 2.945011	 0.312284	 0.788818
H	 2.126658	 -0.123514	 -1.145707
H	 1.742605	 1.468247	 -0.561059
H	 3.090401	 -0.720065	 1.088875
H	 3.889459	 0.681720	 0.405623
H	 2.703937	 0.882874	 1.679747

	symmetry c1
}
set optking {
	frozen_dihedral = ("
		14 10 7 11
	")
}

ee,wfn = optimize('scf', return_wfn=True)
oeprop( wfn, 'DIPOLE', 'QUADRUPOLE', 'MULLIKEN_CHARGES')
f=open( 'psi4out.xyz', 'w' )
f.write( "18  " )
f.write( str(ee) + "\n" )
f.write( MOL.save_string_xyz() )
f.close()
--------------------------------------------------------------------------

    Molecular point group: c1
  Charge       = 0
  Multiplicity = 1
  Basis Set: CC-PVTZ
  Basis Set:
  @DF-RHF Final Energy:  -271.28201804560933
    Total Energy =                       -271.2820180456094477
    Molecular point group: c1
  Basis Set: CC-PVTZ
  Basis Set:
  Basis Set: CC-PVTZ
  Basis Set:
  @DF-RHF Final Energy:  -271.28230214419125
    Total Energy =                       -271.2823021441914761
  Basis Set: CC-PVTZ
  Basis Set:
  Basis Set: CC-PVTZ
  Basis Set:
  @DF-RHF Final Energy:  -271.28237233654141
    Total Energy =                       -271.2823723365411865
  Basis Set: CC-PVTZ
  Basis Set:
  Charge       = 0
  Multiplicity = 1
  Basis Set: CC-PVTZ
  Basis Set:

    Orbital Energies (a.u.)
    -----------------------

    Doubly Occupied:

       1A    -20.546329     2A    -11.265736     3A    -11.210637
       4A    -11.208986     5A    -11.204789     6A    -11.203564
       7A     -1.364189     8A     -1.074711     9A     -1.009755
      10A     -0.914007    11A     -0.819420    12A     -0.784378
      13A     -0.708626    14A     -0.639945    15A     -0.624147
      16A     -0.591099    17A     -0.574038    18A     -0.554602
      19A     -0.523191    20A     -0.502639    21A     -0.492809
      22A     -0.467187    23A     -0.455082    24A     -0.448854
      25A     -0.430440

  @DF-RHF Final Energy:  -271.28237323243019

   => Energetics <=

    Nuclear Repulsion Energy =            249.1216965981500948
    One-Electron Energy =                -861.5698127865236984
    Two-Electron Energy =                 341.1657429559434718
    DFT Exchange-Correlation Energy =       0.0000000000000000
    Empirical Dispersion Energy =           0.0000000000000000
    PCM Polarization Energy =               0.0000000000000000
    EFP Energy =                            0.0000000000000000
    Total Energy =                       -271.2823732324301886
    Molecular point group: c1
  Basis Set: CC-PVTZ
  Basis Set:

  -Total Gradient:
     Atom            X                  Y                   Z
    ------   -----------------  -----------------  -----------------
       1        0.000000568394     0.000005967373     0.000001028581
       2        0.000012151352     0.000015512154     0.000030698311
       3       -0.000039473337     0.000015887079    -0.000038797358
       4        0.000045835748    -0.000050277423     0.000053350955
       5       -0.000024185071    -0.000007894332     0.000004200733
       6       -0.000000506539    -0.000013435218    -0.000012718129
       7        0.002400709057    -0.002405759583     0.004095677939
       8        0.000003279336     0.000004698280     0.000005224361
       9       -0.000007883491     0.000009263000     0.000000295184
      10       -0.002445627205     0.003392038403    -0.003275458723
      11       -0.001651173699     0.001491391031    -0.002945592274
      12        0.000008817137     0.000013068199    -0.000010985761
      13       -0.000017930952     0.000021382388    -0.000047556188
      14        0.001710251466    -0.002485129653     0.002121562527
      15       -0.000004771575    -0.000005659795     0.000015339479
      16       -0.000004411376     0.000007299373     0.000002314091
      17        0.000016658743    -0.000000931195     0.000003125000
      18       -0.000002307987    -0.000007420080    -0.000001708728

  **** Optimization is complete! (in 4 steps) ****
    Final optimized geometry and variables:
    Molecular point group: c1

    Geometry (in Angstrom), charge = 0, multiplicity = 1:

    H           -3.126559556017    -1.357945205156    -0.199854274986
    O           -2.298135735588    -1.012863428315    -0.476438281097
    C           -2.030161778631     0.193954794866     0.189663085956
    C           -0.669795182141     0.706600615594    -0.241478323789
    H           -2.790251406451     0.933220709007    -0.050182331065
    H           -2.044870143529     0.044053559535     1.267553555616
    C            0.491624485912    -0.196974237704     0.170968146284
    H           -0.675716614666     0.826685579668    -1.320831770546
    H           -0.531879970642     1.697192080589     0.184416809646
    C            1.853434720112     0.308466258222    -0.337936897081
    H            0.295735843262    -1.185836327902    -0.223087133163
    H            0.506587058676    -0.278452818778     1.254044887271
    C            2.971200764056     0.158687020726     0.691800705892
    H            2.138064196533    -0.250810959276    -1.222863654782
    H            1.780380199042     1.350542440452    -0.631582960204
    H            3.083755989950    -0.876652357106     0.996692597465
    H            3.922960732617     0.490892132241     0.292288236599
    H            2.763003794551     0.742254240425     1.582698284948

  Mulliken Charges: (a.u.)
   Center  Symbol    Alpha    Beta     Spin     Total
       1     H     0.39564  0.39564  0.00000  0.20871
       2     O     4.19890  4.19890  0.00000 -0.39780
       3     C     2.97399  2.97399  0.00000  0.05203
       4     C     3.09148  3.09148  0.00000 -0.18296
       5     H     0.46534  0.46534  0.00000  0.06932
       6     H     0.47367  0.47367  0.00000  0.05267
       7     C     3.09135  3.09135  0.00000 -0.18270
       8     H     0.45135  0.45135  0.00000  0.09730
       9     H     0.45427  0.45427  0.00000  0.09146
      10     C     3.08563  3.08563  0.00000 -0.17126
      11     H     0.44289  0.44289  0.00000  0.11422
      12     H     0.45861  0.45861  0.00000  0.08278
      13     C     3.14834  3.14834  0.00000 -0.29668
      14     H     0.45139  0.45139  0.00000  0.09722
      15     H     0.45574  0.45574  0.00000  0.08851
      16     H     0.45418  0.45418  0.00000  0.09164
      17     H     0.45017  0.45017  0.00000  0.09966
      18     H     0.45707  0.45707  0.00000  0.08587

   Total alpha = 25.00000, Total beta = 25.00000, Total charge = -0.00000

*** Psi4 exiting successfully. Buy a developer a beer!
