                              Psi4 1.0.54 Driver

  ==> Input File <==

--------------------------------------------------------------------------
set {
	reference rhf
	basis cc-pvtz
}

set_num_threads( 4 )
memory 2 gb

molecule MOL {
0 1

H	 3.174133	 -1.907669	 -3.569453
C	 2.683440	 -1.979973	 -2.606073
C	 1.430821	 -1.111844	 -2.561943
H	 2.442336	 -3.024107	 -2.436683
H	 3.399186	 -1.679681	 -1.848082
C	 0.709545	 -1.182973	 -1.224157
H	 0.741904	 -1.411221	 -3.343948
H	 1.701555	 -0.078838	 -2.767315
N	 -0.485981	 -0.367837	 -1.222125
H	 0.416614	 -2.210278	 -1.029206
H	 1.401410	 -0.902842	 -0.424199
C	 -1.215959	 -0.382435	 0.027143
H	 -0.253236	 0.572341	 -1.465464
C	 -2.451944	 0.502410	 -0.038737
H	 -1.518274	 -1.405843	 0.228189
H	 -0.593767	 -0.073347	 0.872376
C	 -3.752217	 -0.292550	 0.005776
H	 -2.407325	 1.093801	 -0.946480
H	 -2.431979	 1.206234	 0.790023
H	 -3.817783	 -0.982946	 -0.828547
H	 -4.612613	 0.364348	 -0.042306
H	 -3.830160	 -0.871666	 0.919868

	symmetry c1
}
set optking {
	frozen_dihedral = ("
		15 12 14 18
	")
}

ee,wfn = optimize('scf', return_wfn=True)
oeprop( wfn, 'DIPOLE', 'QUADRUPOLE', 'MULLIKEN_CHARGES')
f=open( 'psi4out.xyz', 'w' )
f.write( "22  " )
f.write( str(ee) + "\n" )
f.write( MOL.save_string_xyz() )
f.close()
--------------------------------------------------------------------------

    Molecular point group: c1
  Charge       = 0
  Multiplicity = 1
  Basis Set: CC-PVTZ
  Basis Set:
  @DF-RHF Final Energy:  -290.48416271317012
    Total Energy =                       -290.4841627131701216
    Molecular point group: c1
  Basis Set: CC-PVTZ
  Basis Set:
  Basis Set: CC-PVTZ
  Basis Set:
  @DF-RHF Final Energy:  -290.48453892903478
    Total Energy =                       -290.4845389290351250
  Basis Set: CC-PVTZ
  Basis Set:
  Basis Set: CC-PVTZ
  Basis Set:
  @DF-RHF Final Energy:  -290.48464098223559
    Total Energy =                       -290.4846409822355326
  Basis Set: CC-PVTZ
  Basis Set:
  Basis Set: CC-PVTZ
  Basis Set:
  @DF-RHF Final Energy:  -290.48464374239524
    Total Energy =                       -290.4846437423950078
  Basis Set: CC-PVTZ
  Basis Set:
  Charge       = 0
  Multiplicity = 1
  Basis Set: CC-PVTZ
  Basis Set:

    Orbital Energies (a.u.)
    -----------------------

    Doubly Occupied:

       1A    -15.528825     2A    -11.236354     3A    -11.236002
       4A    -11.211993     5A    -11.211571     6A    -11.207660
       7A    -11.204476     8A     -1.206991     9A     -1.058438
      10A     -1.024875    11A     -0.927378    12A     -0.869838
      13A     -0.811729    14A     -0.794251    15A     -0.663625
      16A     -0.633407    17A     -0.615291    18A     -0.608453
      19A     -0.573350    20A     -0.563347    21A     -0.540196
      22A     -0.525218    23A     -0.507907    24A     -0.487816
      25A     -0.476239    26A     -0.475337    27A     -0.466858
      28A     -0.451054    29A     -0.360819

  @DF-RHF Final Energy:  -290.48464398932032

   => Energetics <=

    Nuclear Repulsion Energy =            315.0645850006459909
    One-Electron Energy =               -1016.1398659147212129
    Two-Electron Energy =                 410.5906369247550742
    DFT Exchange-Correlation Energy =       0.0000000000000000
    Empirical Dispersion Energy =           0.0000000000000000
    PCM Polarization Energy =               0.0000000000000000
    EFP Energy =                            0.0000000000000000
    Total Energy =                       -290.4846439893200909
    Molecular point group: c1
  Basis Set: CC-PVTZ
  Basis Set:

  -Total Gradient:
     Atom            X                  Y                   Z
    ------   -----------------  -----------------  -----------------
       1       -0.000003211430     0.000001591794     0.000000748605
       2       -0.000004329217     0.000000491540     0.000002297994
       3        0.000007183534     0.000000003192     0.000000974418
       4        0.000000303610    -0.000001292531     0.000000113943
       5       -0.000000885791     0.000000629668    -0.000000078499
       6       -0.000000113783     0.000006756450    -0.000015693037
       7       -0.000000114250    -0.000000760214    -0.000002708551
       8        0.000001099119     0.000001438156    -0.000001800262
       9        0.000010614298    -0.000010633060     0.000038619218
      10       -0.000001034692    -0.000001866935     0.000001298409
      11        0.000004278157    -0.000000847586     0.000001818339
      12       -0.000059770355     0.000121303613     0.002516825128
      13       -0.000000273646    -0.000006329883     0.000004062843
      14        0.001302714812     0.001972108777     0.000845654800
      15       -0.000155550819    -0.000403191772    -0.002266809974
      16       -0.000011964878     0.000016345747    -0.000021617709
      17        0.000008987984     0.000000427433     0.000002626179
      18       -0.001100812209    -0.001678482947    -0.001116108885
      19        0.000006543751    -0.000024008208     0.000007752263
      20        0.000014684939    -0.000007574604     0.000007341206
      21       -0.000010108668     0.000008047585    -0.000005665808
      22       -0.000008240463     0.000005843785     0.000000349381

  **** Optimization is complete! (in 5 steps) ****
    Final optimized geometry and variables:
    Molecular point group: c1

    Geometry (in Angstrom), charge = 0, multiplicity = 1:

    H            3.580625920146    -1.281063780289    -2.485650901243
    C            3.094815665724    -1.339126684454    -1.518821533058
    C            1.858363600431    -0.448338394585    -1.471893063816
    H            2.836012129748    -2.377754087399    -1.341897415626
    H            3.820541604367    -1.047394096631    -0.767007463197
    C            1.143749860279    -0.499961018780    -0.129529083081
    H            1.159677376578    -0.739334174030    -2.248381048777
    H            2.146550358355     0.578547610601    -1.684075515403
    N           -0.038409280111     0.334211841152    -0.125636438752
    H            0.835812539329    -1.521373779033     0.073437943727
    H            1.844709579080    -0.226214395472     0.664809965021
    C           -0.755763031953     0.342938921137     1.135426127968
    H            0.210087152093     1.268504726183    -0.376084440067
    C           -2.014658066612     1.222456425439     1.059084771858
    H           -1.040411939393    -0.683062147490     1.341521900624
    H           -0.118747236368     0.664355041344     1.961710836489
    C           -3.310904317892     0.416555795316     1.046993487452
    H           -1.972415295892     1.808023309756     0.147505741362
    H           -2.033293194762     1.921910549777     1.887428164690
    H           -3.320555598396    -0.278890784204     0.215032221195
    H           -4.175665875500     1.063655100328     0.952113059606
    H           -3.425046229509    -0.156327510849     1.961343169925

  Mulliken Charges: (a.u.)
   Center  Symbol    Alpha    Beta     Spin     Total
       1     H     0.44772  0.44772  0.00000  0.10456
       2     C     3.15359  3.15359  0.00000 -0.30718
       3     C     3.08044  3.08044  0.00000 -0.16089
       4     H     0.45473  0.45473  0.00000  0.09054
       5     H     0.45613  0.45613  0.00000  0.08774
       6     C     3.02153  3.02153  0.00000 -0.04305
       7     H     0.44918  0.44918  0.00000  0.10164
       8     H     0.45965  0.45965  0.00000  0.08069
       9     N     3.64120  3.64120  0.00000 -0.28241
      10     H     0.45935  0.45935  0.00000  0.08131
      11     H     0.47469  0.47469  0.00000  0.05061
      12     C     3.03222  3.03222  0.00000 -0.06443
      13     H     0.44413  0.44413  0.00000  0.11175
      14     C     3.08264  3.08264  0.00000 -0.16528
      15     H     0.45985  0.45985  0.00000  0.08029
      16     H     0.46717  0.46717  0.00000  0.06566
      17     C     3.14984  3.14984  0.00000 -0.29968
      18     H     0.45646  0.45646  0.00000  0.08708
      19     H     0.45150  0.45150  0.00000  0.09700
      20     H     0.45081  0.45081  0.00000  0.09839
      21     H     0.45088  0.45088  0.00000  0.09825
      22     H     0.45629  0.45629  0.00000  0.08742

   Total alpha = 29.00000, Total beta = 29.00000, Total charge = -0.00000

*** Psi4 exiting successfully. Buy a developer a beer!
