                              Psi4 1.0.54 Driver

  ==> Input File <==

--------------------------------------------------------------------------
set {
	reference rhf
	basis cc-pvtz
}

set_num_threads( 4 )
memory 2 gb

molecule MOL {
0 1

O	 0.395927	 1.296676	 -0.000076
C	 0.503051	 0.114301	 -0.000074
C	 -0.701422	 -0.805636	 -0.000109
C	 1.858118	 -0.556123	 0.000212
C	 -1.389830	 -0.925607	 -1.350584
H	 -0.370728	 -1.778482	 0.354359
H	 -1.391960	 -0.441449	 0.756175
H	 -0.710615	 -1.310616	 -2.099359
H	 -2.239020	 -1.594928	 -1.281721
H	 -1.740911	 0.038262	 -1.693993
H	 1.961106	 -1.191101	 -0.872843
H	 2.636688	 0.191085	 -0.000109
H	 1.961070	 -1.190284	 0.873873

	symmetry c1
}
set optking {
	frozen_dihedral = ("
		6 3 2 1
	")
}

ee,wfn = optimize('scf', return_wfn=True)
oeprop( wfn, 'DIPOLE', 'QUADRUPOLE', 'MULLIKEN_CHARGES')
f=open( 'psi4out.xyz', 'w' )
f.write( "13  " )
f.write( str(ee) + "\n" )
f.write( MOL.save_string_xyz() )
f.close()
--------------------------------------------------------------------------

    Molecular point group: c1
  Charge       = 0
  Multiplicity = 1
  Basis Set: CC-PVTZ
  Basis Set:
  @DF-RHF Final Energy:  -231.08040948364734
    Total Energy =                       -231.0804094836475429
    Molecular point group: c1
  Basis Set: CC-PVTZ
  Basis Set:
  Basis Set: CC-PVTZ
  Basis Set:
  @DF-RHF Final Energy:  -231.08118464647217
    Total Energy =                       -231.0811846464721384
  Basis Set: CC-PVTZ
  Basis Set:
  Basis Set: CC-PVTZ
  Basis Set:
  @DF-RHF Final Energy:  -231.08097973711153
    Total Energy =                       -231.0809797371114485
  Basis Set: CC-PVTZ
  Basis Set:
  Basis Set: CC-PVTZ
  Basis Set:
  @DF-RHF Final Energy:  -231.07517242333063
    Total Energy =                       -231.0751724233304571
  Basis Set: CC-PVTZ
  Basis Set:
  @DF-RHF Final Energy:  -231.08076561657481
    Total Energy =                       -231.0807656165746948
  @DF-RHF Final Energy:  -231.08133821879224
    Total Energy =                       -231.0813382187921547
  Basis Set: CC-PVTZ
  Basis Set:
  @DF-RHF Final Energy:  -231.08131195562737
    Total Energy =                       -231.0813119556274273
  Basis Set: CC-PVTZ
  Basis Set:
  Basis Set: CC-PVTZ
  Basis Set:
  @DF-RHF Final Energy:  -231.08138941458515
    Total Energy =                       -231.0813894145852601
  Basis Set: CC-PVTZ
  Basis Set:
  Basis Set: CC-PVTZ
  Basis Set:
  @DF-RHF Final Energy:  -231.08139369750000
    Total Energy =                       -231.0813936974998342
  Basis Set: CC-PVTZ
  Basis Set:
  Charge       = 0
  Multiplicity = 1
  Basis Set: CC-PVTZ
  Basis Set:

    Orbital Energies (a.u.)
    -----------------------

    Doubly Occupied:

       1A    -20.537982     2A    -11.320688     3A    -11.231684
       4A    -11.228252     5A    -11.225136     6A     -1.398375
       7A     -1.065847     8A     -0.999554     9A     -0.882774
      10A     -0.734888    11A     -0.657585    12A     -0.648823
      13A     -0.610266    14A     -0.593296    15A     -0.568662
      16A     -0.540092    17A     -0.527977    18A     -0.503493
      19A     -0.483670    20A     -0.402095

  @DF-RHF Final Energy:  -231.08139474888293

   => Energetics <=

    Nuclear Repulsion Energy =            177.3750406684595760
    One-Electron Energy =                -664.5905941685031166
    Two-Electron Energy =                 256.1341587511606122
    DFT Exchange-Correlation Energy =       0.0000000000000000
    Empirical Dispersion Energy =           0.0000000000000000
    PCM Polarization Energy =               0.0000000000000000
    EFP Energy =                            0.0000000000000000
    Total Energy =                       -231.0813947488829285
    Molecular point group: c1
  Basis Set: CC-PVTZ
  Basis Set:

  -Total Gradient:
     Atom            X                  Y                   Z
    ------   -----------------  -----------------  -----------------
       1        0.000023068719     0.000019761338    -0.000253126405
       2       -0.000001796052    -0.000045956060     0.000296679595
       3       -0.000074763653     0.000153317475     0.000181766933
       4       -0.000036409707     0.000062632856    -0.000007364063
       5       -0.000007523215    -0.000015352169    -0.000008403937
       6        0.000075058816    -0.000115218745    -0.000217396882
       7       -0.000002840888    -0.000007813931    -0.000002759868
       8        0.000005067796     0.000000863532     0.000001169449
       9       -0.000001567437    -0.000000496864    -0.000000322037
      10        0.000002381868     0.000002809518     0.000006732489
      11        0.000008448749    -0.000043869786    -0.000025150534
      12        0.000010831631     0.000007831488    -0.000002414182
      13        0.000000043372    -0.000018508656     0.000030589441

  **** Optimization is complete! (in 9 steps) ****
    Final optimized geometry and variables:
    Molecular point group: c1

    Geometry (in Angstrom), charge = 0, multiplicity = 1:

    O            0.214047517696     1.488561553711     0.075588459318
    C            0.325093457123     0.325188708945     0.287596728690
    C           -0.889035225388    -0.584800032022     0.294970214964
    C            1.670719060543    -0.311872783019     0.536107038664
    C           -1.332280903719    -0.910260125623    -1.134458348261
    H           -0.672239078842    -1.500605945201     0.832538929789
    H           -1.683924478108    -0.065150661090     0.814066589152
    H           -0.553491610414    -1.428338922301    -1.683404033181
    H           -2.207663544992    -1.547203557509    -1.122613801318
    H           -1.576507798483    -0.002847837758    -1.670390681853
    H            1.813939572061    -1.163143516391    -0.120729131027
    H            2.458553882010     0.409683980123     0.383955567844
    H            1.709276489460    -0.684070899641     1.554874599182

  Mulliken Charges: (a.u.)
   Center  Symbol    Alpha    Beta     Spin     Total
       1     O     4.17663  4.17663  0.00000 -0.35326
       2     C     2.85328  2.85328  0.00000  0.29343
       3     C     3.09831  3.09831  0.00000 -0.19661
       4     C     3.15364  3.15364  0.00000 -0.30728
       5     C     3.14775  3.14775  0.00000 -0.29550
       6     H     0.45012  0.45012  0.00000  0.09975
       7     H     0.44030  0.44030  0.00000  0.11941
       8     H     0.45520  0.45520  0.00000  0.08961
       9     H     0.44678  0.44678  0.00000  0.10644
      10     H     0.44215  0.44215  0.00000  0.11571
      11     H     0.45084  0.45084  0.00000  0.09832
      12     H     0.43630  0.43630  0.00000  0.12739
      13     H     0.44870  0.44870  0.00000  0.10260

   Total alpha = 20.00000, Total beta = 20.00000, Total charge = -0.00000

*** Psi4 exiting successfully. Buy a developer a beer!
