  ==> Input File <==

--------------------------------------------------------------------------
set {
	reference rhf
	basis 6-31G*
}

set_num_threads( 4 )
memory 2 gb

molecule MOL {
0 1

H	 2.344647	 -1.822804	 1.564362
O	 2.692914	 -1.028441	 1.183053
C	 1.717963	 -0.291878	 0.613735
C	 2.090992	 0.906498	 0.013163
C	 0.393787	 -0.685177	 0.611066
H	 3.126456	 1.190113	 0.028483
C	 1.138955	 1.704726	 -0.586440
H	 0.078338	 -1.603244	 1.066227
C	 -0.536158	 0.140425	 0.000000
H	 1.435731	 2.628294	 -1.047746
C	 -0.198304	 1.331460	 -0.602361
N	 -1.935604	 -0.280333	 0.000000
H	 -0.948257	 1.940008	 -1.063496
O	 -2.161694	 -1.452901	 0.000000
O	 -2.770341	 0.571417	 0.000000

	symmetry c1
}
set optking {
	frozen_dihedral = ("
		11 9 12 14
	")
}

ee = optimize('scf')
oeprop('DIPOLE', 'QUADRUPOLE', 'MULLIKEN_CHARGES')
f=open( 'psi4out.xyz', 'w' )
f.write( "15  " )
f.write( str(ee) + "\n" )
f.write( MOL.save_string_xyz() )
f.close()
--------------------------------------------------------------------------

    Molecular point group: c1
  Charge       = 0
  Multiplicity = 1
  Basis Set: 6-31G*
  Basis Set:
  @DF-RHF Final Energy:  -509.02594012195107
    Total Energy =                       -509.0259401219516349
    Molecular point group: c1
  Basis Set: 6-31G*
  Basis Set:
  Basis Set: 6-31G*
  Basis Set:
  @DF-RHF Final Energy:  -509.01895039558065
    Total Energy =                       -509.0189503955807595
  Basis Set: 6-31G*
  Basis Set:
  Basis Set: 6-31G*
  Basis Set:
  @DF-RHF Final Energy:  -509.02595411918111
    Total Energy =                       -509.0259541191815060
  Basis Set: 6-31G*
  Basis Set:
  Basis Set: 6-31G*
  Basis Set:
  @DF-RHF Final Energy:  -509.02616012477404
    Total Energy =                       -509.0261601247743783
  Basis Set: 6-31G*
  Basis Set:
  Basis Set: 6-31G*
  Basis Set:
  @DF-RHF Final Energy:  -509.02616105199746
    Total Energy =                       -509.0261610519974056
  Basis Set: 6-31G*
  Basis Set:
  Basis Set: 6-31G*
  Basis Set:
  @DF-RHF Final Energy:  -509.02616222873309
    Total Energy =                       -509.0261622287332557
  Basis Set: 6-31G*
  Basis Set:
  Charge       = 0
  Multiplicity = 1
  Basis Set: 6-31G*
  Basis Set:

    Orbital Energies (a.u.)
    -----------------------

    Doubly Occupied:

       1A    -20.616437     2A    -20.606346     3A    -20.605912
       4A    -15.859097     5A    -11.331460     6A    -11.312294
       7A    -11.267944     8A    -11.267467     9A    -11.264080
      10A    -11.259639    11A     -1.638654    12A     -1.437227
      13A     -1.422289    14A     -1.201384    15A     -1.095584
      16A     -1.047303    17A     -0.966234    18A     -0.880409
      19A     -0.828921    20A     -0.790279    21A     -0.756078
      22A     -0.735467    23A     -0.721813    24A     -0.709481
      25A     -0.672066    26A     -0.635391    27A     -0.616590
      28A     -0.594336    29A     -0.560381    30A     -0.546283
      31A     -0.520357    32A     -0.491429    33A     -0.489924
      34A     -0.454136    35A     -0.376399    36A     -0.343246

  @DF-RHF Final Energy:  -509.02616226797187

   => Energetics <=

    Nuclear Repulsion Energy =            503.4212139826277621
    One-Electron Energy =               -1693.0500825127537610
    Two-Electron Energy =                 680.6027062621545838
    DFT Exchange-Correlation Energy =       0.0000000000000000
    Empirical Dispersion Energy =           0.0000000000000000
    PCM Polarization Energy =               0.0000000000000000
    EFP Energy =                            0.0000000000000000
    Total Energy =                       -509.0261622679714719
    Molecular point group: c1
  Basis Set: 6-31G*
  Basis Set:

  -Total Gradient:
     Atom            X                  Y                   Z
    ------   -----------------  -----------------  -----------------
       1       -0.000001261645     0.000003896724     0.000005120200
       2       -0.000001337217     0.000000773272    -0.000010260612
       3        0.000009003452    -0.000001490718    -0.000001505759
       4       -0.000006283868     0.000006402235     0.000011463618
       5       -0.000001341239     0.000001031135    -0.000002001548
       6        0.000001359947    -0.000001559241    -0.000001594274
       7        0.000007421633    -0.000001197663    -0.000005941360
       8       -0.000000082291     0.000004867865    -0.000000694526
       9       -0.000694215704     0.002135403263     0.002453545626
      10        0.000004080440    -0.000000411175     0.000001593302
      11        0.000509473914    -0.001461710942    -0.002594708288
      12        0.000128728883    -0.000636747701     0.003599271918
      13        0.000006113160    -0.000006676597     0.000007420384
      14        0.000047661756    -0.000030046553    -0.003450433526
      15       -0.000009321225    -0.000012533900    -0.000011275156

  **** Optimization is complete! (in 7 steps) ****
    Final optimized geometry and variables:
    Molecular point group: c1

    Geometry (in Angstrom), charge = 0, multiplicity = 1:

    H            2.357359903384    -1.865912344849     1.412485469683
    O            2.702159664337    -1.065114903240     1.041722349342
    C            1.726576223798    -0.329112817703     0.473921691639
    C            2.099463854563     0.866320001871    -0.133242753742
    C            0.401943214441    -0.722182260781     0.472640646430
    H            3.136212718127     1.145616974943    -0.126502729295
    C            1.147277826264     1.664586811359    -0.732250687690
    H            0.087817860559    -1.649429098165     0.911832271315
    C           -0.528437783516     0.114636276455    -0.119345008352
    H            1.446079366329     2.581094512718    -1.206200573669
    C           -0.192992920501     1.300038379537    -0.731282208895
    N           -1.921741870845    -0.317146428292    -0.142213055297
    H           -0.946650382136     1.912658004585    -1.182599701071
    O           -2.134329655573    -1.492115216049    -0.131070117457
    O           -2.760031358547     0.529644402745    -0.196762862326

  Mulliken Charges: (a.u.)
   Center  Symbol    Alpha    Beta     Spin     Total
       1     H     0.26732  0.26732  0.00000  0.46536
       2     O     4.37525  4.37525  0.00000 -0.75050
       3     C     2.79308  2.79308  0.00000  0.41383
       4     C     3.10991  3.10991  0.00000 -0.21981
       5     C     3.13534  3.13534  0.00000 -0.27067
       6     H     0.38115  0.38115  0.00000  0.23770
       7     C     3.09998  3.09998  0.00000 -0.19997
       8     H     0.37190  0.37190  0.00000  0.25619
       9     C     2.90445  2.90445  0.00000  0.19110
      10     H     0.38654  0.38654  0.00000  0.22692
      11     C     3.09858  3.09858  0.00000 -0.19715
      12     N     3.25016  3.25016  0.00000  0.49967
      13     H     0.36845  0.36845  0.00000  0.26310
      14     O     4.23069  4.23069  0.00000 -0.46138
      15     O     4.22720  4.22720  0.00000 -0.45440

   Total alpha = 36.00000, Total beta = 36.00000, Total charge = -0.00000
