  ==> Input File <==

--------------------------------------------------------------------------
set {
	reference rhf
	basis 6-31G*
}

set_num_threads( 4 )
memory 2 gb

molecule MOL {
0 1

H	 -2.805052	 -0.420090	 0.902062
C	 -2.681853	 0.085726	 -0.053507
O	 -1.338273	 0.223604	 -0.386855
H	 -3.150420	 -0.507547	 -0.826561
H	 -3.182526	 1.051571	 0.000332
C	 -0.599664	 0.977001	 0.522044
C	 0.855189	 0.964506	 0.115286
H	 -0.958280	 2.006954	 0.539029
H	 -0.694322	 0.572175	 1.527608
O	 1.392611	 -0.295398	 0.366430
H	 0.934499	 1.215727	 -0.940463
H	 1.392713	 1.724912	 0.683215
C	 2.706965	 -0.449871	 -0.062409
H	 2.756559	 -0.644779	 -1.131878
H	 3.305899	 0.433456	 0.155466
H	 3.125548	 -1.294566	 0.467107

	symmetry c1
}
set optking {
	frozen_dihedral = ("
		7 10 13 14
	")
}

ee = optimize('scf')
oeprop('DIPOLE', 'QUADRUPOLE', 'MULLIKEN_CHARGES')
f=open( 'psi4out.xyz', 'w' )
f.write( "16  " )
f.write( str(ee) + "\n" )
f.write( MOL.save_string_xyz() )
f.close()
--------------------------------------------------------------------------

    Molecular point group: c1
  Charge       = 0
  Multiplicity = 1
  Basis Set: 6-31G*
  Basis Set:
  @DF-RHF Final Energy:  -306.97679041483894
    Total Energy =                       -306.9767904148390016
    Molecular point group: c1
  Basis Set: 6-31G*
  Basis Set:
  Basis Set: 6-31G*
  Basis Set:
  @DF-RHF Final Energy:  -306.97683022082504
    Total Energy =                       -306.9768302208249224
  Basis Set: 6-31G*
  Basis Set:
  Charge       = 0
  Multiplicity = 1
  Basis Set: 6-31G*
  Basis Set:

    Orbital Energies (a.u.)
    -----------------------

    Doubly Occupied:

       1A    -20.553483     2A    -20.552648     3A    -11.269029
       4A    -11.268329     5A    -11.263458     6A    -11.263295
       7A     -1.387613     8A     -1.369931     9A     -1.030743
      10A     -0.936065    11A     -0.891924    12A     -0.823805
      13A     -0.683806    14A     -0.680171    15A     -0.656536
      16A     -0.634841    17A     -0.629678    18A     -0.596667
      19A     -0.551062    20A     -0.536992    21A     -0.508261
      22A     -0.477232    23A     -0.462482    24A     -0.418840
      25A     -0.409983

  @DF-RHF Final Energy:  -306.97683453139445

   => Energetics <=

    Nuclear Repulsion Energy =            258.7463065782425815
    One-Electron Energy =                -931.7325270694464052
    Two-Electron Energy =                 366.0093859598092081
    DFT Exchange-Correlation Energy =       0.0000000000000000
    Empirical Dispersion Energy =           0.0000000000000000
    PCM Polarization Energy =               0.0000000000000000
    EFP Energy =                            0.0000000000000000
    Total Energy =                       -306.9768345313945588
    Molecular point group: c1
  Basis Set: 6-31G*
  Basis Set:

  -Total Gradient:
     Atom            X                  Y                   Z
    ------   -----------------  -----------------  -----------------
       1        0.000000847379    -0.000000713028     0.000000057105
       2        0.000003878596     0.000006038132     0.000000735613
       3       -0.000013263089     0.000001852522    -0.000004010484
       4        0.000005231266     0.000000857203     0.000000044412
       5       -0.000002626782     0.000000146605     0.000000134103
       6        0.000029483570    -0.000067216583    -0.000010934279
       7        0.000690185738     0.000732520127     0.001899982415
       8        0.000031869957    -0.000007219509    -0.000013852706
       9       -0.000002831234     0.000002463267     0.000015955433
      10       -0.000963858128    -0.001635940509    -0.002500326649
      11       -0.000008890821    -0.000013596440    -0.000005379251
      12       -0.000019212588     0.000012923287    -0.000008013071
      13        0.000422640874     0.003557596232     0.000126829569
      14       -0.000140466299    -0.002602211153     0.000456838057
      15       -0.000027392671     0.000004288814     0.000050429730
      16       -0.000005595768     0.000008211031    -0.000008489997

  **** Optimization is complete! (in 3 steps) ****
    Final optimized geometry and variables:
    Molecular point group: c1

    Geometry (in Angstrom), charge = 0, multiplicity = 1:

    H           -2.857851852702    -0.669425956771     0.821711081347
    C           -2.736951525137    -0.162575470579    -0.133605270589
    O           -1.394094060238    -0.021172374228    -0.468534187765
    H           -3.205201041726    -0.756217889379    -0.906552584961
    H           -3.239395919099     0.802201331122    -0.078256008343
    C           -0.656093009170     0.733343982242     0.439998645944
    C            0.798312144415     0.724639202411     0.032040565107
    H           -1.017178004668     1.762412448849     0.458330500280
    H           -0.748505420645     0.327365440095     1.445302681352
    O            1.338703515964    -0.534084057204     0.285428174695
    H            0.874421377242     0.976674848423    -1.023804829979
    H            1.334992288427     1.485484806441     0.599355738948
    C            2.654240878894    -0.694830127084    -0.142284120549
    H            2.700771051082    -0.894088073868    -1.210584462919
    H            3.264039157520     0.176738024710     0.085965897340
    H            3.064439114366    -1.549796912693     0.379034989066

  Mulliken Charges: (a.u.)
   Center  Symbol    Alpha    Beta     Spin     Total
       1     H     0.42807  0.42807  0.00000  0.14386
       2     C     3.07949  3.07949  0.00000 -0.15898
       3     O     4.30091  4.30091  0.00000 -0.60181
       4     H     0.41131  0.41131  0.00000  0.17739
       5     H     0.43190  0.43190  0.00000  0.13621
       6     C     2.99339  2.99339  0.00000  0.01323
       7     C     2.99355  2.99355  0.00000  0.01290
       8     H     0.43235  0.43235  0.00000  0.13531
       9     H     0.42278  0.42278  0.00000  0.15445
      10     O     4.30196  4.30196  0.00000 -0.60391
      11     H     0.42291  0.42291  0.00000  0.15418
      12     H     0.43185  0.43185  0.00000  0.13630
      13     C     3.07871  3.07871  0.00000 -0.15742
      14     H     0.42542  0.42542  0.00000  0.14916
      15     H     0.43223  0.43223  0.00000  0.13554
      16     H     0.41320  0.41320  0.00000  0.17360

   Total alpha = 25.00000, Total beta = 25.00000, Total charge = -0.00000
