                              Psi4 1.0.54 Driver

  ==> Input File <==

--------------------------------------------------------------------------
set {
	reference rhf
	basis cc-pvtz
}

set_num_threads( 4 )
memory 2 gb

molecule MOL {
0 1

O	 0.623644	 1.346775	 0.050760
C	 0.484933	 0.171168	 0.027162
C	 1.606813	 -0.836419	 0.023517
O	 -0.695554	 -0.422406	 0.000602
C	 2.988431	 -0.203037	 0.054008
H	 1.476776	 -1.458281	 -0.855305
H	 1.453419	 -1.490617	 0.874652
H	 3.143156	 0.435640	 -0.805276
H	 3.750544	 -0.972787	 0.049914
H	 3.119602	 0.403027	 0.940410
C	 -1.852370	 0.402254	 0.000718
C	 -3.063338	 -0.501097	 -0.000437
H	 -1.831732	 1.039442	 -0.872158
H	 -1.832493	 1.038301	 0.874430
H	 -3.071944	 -1.133732	 -0.879113
H	 -3.966302	 0.097976	 -0.000483
H	 -3.072764	 -1.134834	 0.877435

	symmetry c1
}
set optking {
	frozen_dihedral = ("
		2 4 11 13
	")
}

ee,wfn = optimize('scf', return_wfn=True)
oeprop( wfn, 'DIPOLE', 'QUADRUPOLE', 'MULLIKEN_CHARGES')
f=open( 'psi4out.xyz', 'w' )
f.write( "17  " )
f.write( str(ee) + "\n" )
f.write( MOL.save_string_xyz() )
f.close()
--------------------------------------------------------------------------

    Molecular point group: c1
  Charge       = 0
  Multiplicity = 1
  Basis Set: CC-PVTZ
  Basis Set:
  @DF-RHF Final Energy:  -345.04064177824171
    Total Energy =                       -345.0406417782422750
    Molecular point group: c1
  Basis Set: CC-PVTZ
  Basis Set:
  Charge       = 0
  Multiplicity = 1
  Basis Set: CC-PVTZ
  Basis Set:

    Orbital Energies (a.u.)
    -----------------------

    Doubly Occupied:

       1A    -20.593462     2A    -20.532892     3A    -11.363486
       4A    -11.282589     5A    -11.235872     6A    -11.220334
       7A    -11.213818     8A     -1.470485     9A     -1.364880
      10A     -1.070898    11A     -1.032557    12A     -0.911856
      13A     -0.847623    14A     -0.774838    15A     -0.698071
      16A     -0.692599    17A     -0.667828    18A     -0.630445
      19A     -0.584334    20A     -0.573820    21A     -0.558618
      22A     -0.524729    23A     -0.519952    24A     -0.515195
      25A     -0.505719    26A     -0.493959    27A     -0.456064
      28A     -0.439326

  @DF-RHF Final Energy:  -345.04064150418191

   => Energetics <=

    Nuclear Repulsion Energy =            315.2189967804897037
    One-Electron Energy =               -1094.9667815335228624
    Two-Electron Energy =                 434.7071432488508549
    DFT Exchange-Correlation Energy =       0.0000000000000000
    Empirical Dispersion Energy =           0.0000000000000000
    PCM Polarization Energy =               0.0000000000000000
    EFP Energy =                            0.0000000000000000
    Total Energy =                       -345.0406415041822470
    Molecular point group: c1
  Basis Set: CC-PVTZ
  Basis Set:

  -Total Gradient:
     Atom            X                  Y                   Z
    ------   -----------------  -----------------  -----------------
       1        0.000015360044     0.000022332952    -0.000202468526
       2       -0.000022509528    -0.000030893876     0.000631998212
       3        0.000003018215     0.000004871349    -0.000152116757
       4       -0.000003035932    -0.000030577571    -0.000408530892
       5       -0.000000750359    -0.000001106440    -0.000001535128
       6        0.000021418370    -0.000021233897    -0.000001642501
       7       -0.000021839841     0.000020607727    -0.000000525936
       8        0.000003695645     0.000001915657    -0.000002104311
       9        0.000000485414     0.000000351949    -0.000001762384
      10       -0.000003096433    -0.000001130416    -0.000001453248
      11        0.000063264960     0.000103254019     0.000295512580
      12        0.000021230206     0.000011040154    -0.000054052218
      13       -0.000051994609    -0.000115728650    -0.000085242331
      14       -0.000028609752     0.000035803953    -0.000005132234
      15       -0.000020307358    -0.000019182213    -0.000005070115
      16        0.000002290736    -0.000000082189    -0.000002496960
      17        0.000021380221     0.000019757494    -0.000003377253

  **** Optimization is complete! (in 2 steps) ****
    Final optimized geometry and variables:
    Molecular point group: c1

    Geometry (in Angstrom), charge = 0, multiplicity = 1:

    O            0.624015809495     1.347113177629     0.026055578851
    C            0.485085383964     0.171471191515     0.005639441991
    C            1.606814662468    -0.836279485569     0.002262026787
    O           -0.695473067137    -0.422000833131    -0.021131727512
    C            2.988566432089    -0.203075719287     0.030746702539
    H            1.475927373461    -1.459181961493    -0.875690519340
    H            1.454081997308    -1.489444155784     0.854305979809
    H            3.142620142389     0.434543333347    -0.829438039860
    H            3.750554262163    -0.972941563368     0.026901693395
    H            3.120609452640     0.404024492493     0.916299979616
    C           -1.852328141703     0.402589710576    -0.019582271820
    C           -3.063082685593    -0.501070025972    -0.023979997880
    H           -1.831457517856     1.040571147727    -0.892013824005
    H           -1.833464296012     1.037305071846     0.854969013724
    H           -3.070159502073    -1.132824594623    -0.903312861142
    H           -3.966190615712     0.097771781242    -0.024880895545
    H           -3.073732124680    -1.135693287734     0.853225707020

  Mulliken Charges: (a.u.)
   Center  Symbol    Alpha    Beta     Spin     Total
       1     O     4.19684  4.19684  0.00000 -0.39368
       2     C     2.80913  2.80913  0.00000  0.38175
       3     C     3.09349  3.09349  0.00000 -0.18699
       4     O     4.15121  4.15121  0.00000 -0.30241
       5     C     3.13969  3.13969  0.00000 -0.27939
       6     H     0.44161  0.44161  0.00000  0.11678
       7     H     0.44169  0.44169  0.00000  0.11661
       8     H     0.44841  0.44841  0.00000  0.10318
       9     H     0.45057  0.45057  0.00000  0.09886
      10     H     0.44846  0.44846  0.00000  0.10309
      11     C     2.98046  2.98046  0.00000  0.03908
      12     C     3.13308  3.13308  0.00000 -0.26615
      13     H     0.45424  0.45424  0.00000  0.09152
      14     H     0.45379  0.45379  0.00000  0.09243
      15     H     0.45141  0.45141  0.00000  0.09718
      16     H     0.45447  0.45447  0.00000  0.09106
      17     H     0.45146  0.45146  0.00000  0.09708

   Total alpha = 28.00000, Total beta = 28.00000, Total charge = -0.00000

*** Psi4 exiting successfully. Buy a developer a beer!
