  ==> Input File <==

--------------------------------------------------------------------------
set {
	reference rhf
	basis cc-pvtz
}

set_num_threads( 4 )
memory 2 gb

molecule MOL {
0 1

O	 0.305385	 0.900129	 1.457249
C	 0.316355	 -0.065415	 0.772084
C	 1.462524	 -1.038914	 0.660482
O	 -0.695554	 -0.422406	 0.000602
C	 2.653842	 -0.672600	 1.530854
H	 1.739395	 -1.089951	 -0.386747
H	 1.075941	 -2.020141	 0.912837
H	 3.046407	 0.299631	 1.264629
H	 3.442485	 -1.405118	 1.409165
H	 2.376934	 -0.639002	 2.576043
C	 -1.852370	 0.402254	 0.000718
C	 -3.063338	 -0.501097	 -0.000437
H	 -1.831732	 1.039442	 -0.872158
H	 -1.832493	 1.038301	 0.874430
H	 -3.071944	 -1.133732	 -0.879113
H	 -3.966302	 0.097976	 -0.000483
H	 -3.072764	 -1.134834	 0.877435

	symmetry c1
}
set optking {
	frozen_dihedral = ("
		2 4 11 13
	")
}

ee = optimize('scf')
oeprop('DIPOLE', 'QUADRUPOLE', 'MULLIKEN_CHARGES')
f=open( 'psi4out.xyz', 'w' )
f.write( "17  " )
f.write( str(ee) + "\n" )
f.write( MOL.save_string_xyz() )
f.close()
--------------------------------------------------------------------------

    Molecular point group: c1
  Charge       = 0
  Multiplicity = 1
  Basis Set: CC-PVTZ
  Basis Set:
  @DF-RHF Final Energy:  -345.03839235826530
    Total Energy =                       -345.0383923582651846
    Molecular point group: c1
  Basis Set: CC-PVTZ
  Basis Set:
  Basis Set: CC-PVTZ
  Basis Set:
  @DF-RHF Final Energy:  -345.03861187513695
    Total Energy =                       -345.0386118751370077
  Basis Set: CC-PVTZ
  Basis Set:
  Basis Set: CC-PVTZ
  Basis Set:
  @DF-RHF Final Energy:  -345.03888573560664
    Total Energy =                       -345.0388857356069821
  Basis Set: CC-PVTZ
  Basis Set:
  Basis Set: CC-PVTZ
  Basis Set:
  @DF-RHF Final Energy:  -345.03841451648941
    Total Energy =                       -345.0384145164895244
  Basis Set: CC-PVTZ
  Basis Set:
  Basis Set: CC-PVTZ
  Basis Set:
  @DF-RHF Final Energy:  -345.03894265979278
    Total Energy =                       -345.0389426597931788
  Basis Set: CC-PVTZ
  Basis Set:
  Charge       = 0
  Multiplicity = 1
  Basis Set: CC-PVTZ
  Basis Set:

    Orbital Energies (a.u.)
    -----------------------

    Doubly Occupied:

       1A    -20.592629     2A    -20.532397     3A    -11.364645
       4A    -11.281561     5A    -11.235411     6A    -11.220190
       7A    -11.213440     8A     -1.468389     9A     -1.365391
      10A     -1.070547    11A     -1.031949    12A     -0.913159
      13A     -0.849142    14A     -0.772189    15A     -0.702252
      16A     -0.687150    17A     -0.665399    18A     -0.629172
      19A     -0.591789    20A     -0.571186    21A     -0.557175
      22A     -0.529291    23A     -0.520825    24A     -0.515742
      25A     -0.500048    26A     -0.494597    27A     -0.452874
      28A     -0.438947

  @DF-RHF Final Energy:  -345.03894475372789

   => Energetics <=

    Nuclear Repulsion Energy =            315.3724409366523673
    One-Electron Energy =               -1095.2878011562390839
    Two-Electron Energy =                 434.8764154658586563
    DFT Exchange-Correlation Energy =       0.0000000000000000
    Empirical Dispersion Energy =           0.0000000000000000
    PCM Polarization Energy =               0.0000000000000000
    EFP Energy =                            0.0000000000000000
    Total Energy =                       -345.0389447537281171
    Molecular point group: c1
  Basis Set: CC-PVTZ
  Basis Set:

  -Total Gradient:
     Atom            X                  Y                   Z
    ------   -----------------  -----------------  -----------------
       1        0.000055276346    -0.000029918666     0.000012871999
       2       -0.000435132418    -0.000531265265     0.000857386600
       3       -0.000052360773    -0.000002679430    -0.000022144930
       4        0.000476093275     0.000568937601    -0.001405423010
       5       -0.000010718752     0.000024061571     0.000013217094
       6       -0.000011448564     0.000010664576    -0.000007087191
       7       -0.000011230784     0.000013268330     0.000000880875
       8        0.000002793517     0.000001745377     0.000001198479
       9       -0.000008168680    -0.000000688364    -0.000003550924
      10        0.000003955497     0.000001036797     0.000006799013
      11        0.000572355391     0.000754416962     0.001138435509
      12        0.000020434141     0.000024711186     0.000007293952
      13       -0.000598824098    -0.000862881211    -0.000622692564
      14       -0.000018235006     0.000019195654     0.000017821905
      15        0.000009686462     0.000007513827     0.000002459283
      16       -0.000002480252    -0.000003022823    -0.000001405032
      17        0.000008004697     0.000004903881     0.000003938944

  **** Optimization is complete! (in 6 steps) ****
    Final optimized geometry and variables:
    Molecular point group: c1

    Geometry (in Angstrom), charge = 0, multiplicity = 1:

    O            0.484209150473     1.113225782050     0.829689594158
    C            0.462748646848     0.145563237339     0.148342565504
    C            1.589709956560    -0.849383300088     0.025527178672
    O           -0.561431736614    -0.204584065254    -0.611795095245
    C            2.800287611219    -0.500871513799     0.876376111160
    H            1.849876118794    -0.909855523280    -1.025449062158
    H            1.189102012167    -1.822248562909     0.287850017315
    H            3.206532873569     0.462772910794     0.599726963834
    H            3.573494301092    -1.248304613096     0.746401314330
    H            2.539862160644    -0.457573358769     1.925437453470
    C           -1.739917952966     0.591246957681    -0.619043847060
    C           -2.939819461577    -0.328900473292    -0.660427971271
    H           -1.708555012085     1.215537386652    -1.502673850246
    H           -1.752485195832     1.225192070348     0.251391476889
    H           -2.900069473544    -0.977614200711    -1.526386058234
    H           -3.849663937103     0.257809225997    -0.713529268019
    H           -2.982501509976    -0.946177192365     0.228441464163

  Mulliken Charges: (a.u.)
   Center  Symbol    Alpha    Beta     Spin     Total
       1     O     4.19794  4.19794  0.00000 -0.39588
       2     C     2.80273  2.80273  0.00000  0.39454
       3     C     3.09532  3.09532  0.00000 -0.19063
       4     O     4.15504  4.15504  0.00000 -0.31008
       5     C     3.14016  3.14016  0.00000 -0.28032
       6     H     0.44146  0.44146  0.00000  0.11708
       7     H     0.44212  0.44212  0.00000  0.11577
       8     H     0.44839  0.44839  0.00000  0.10321
       9     H     0.45065  0.45065  0.00000  0.09870
      10     H     0.44863  0.44863  0.00000  0.10275
      11     C     2.98851  2.98851  0.00000  0.02299
      12     C     3.13329  3.13329  0.00000 -0.26657
      13     H     0.45511  0.45511  0.00000  0.08978
      14     H     0.44276  0.44276  0.00000  0.11448
      15     H     0.45142  0.45142  0.00000  0.09716
      16     H     0.45442  0.45442  0.00000  0.09116
      17     H     0.45207  0.45207  0.00000  0.09586

   Total alpha = 28.00000, Total beta = 28.00000, Total charge = -0.00000
