  ==> Input File <==

--------------------------------------------------------------------------
set {
	reference rhf
	basis 6-31G*
}

set_num_threads( 4 )
memory 2 gb

molecule MOL {
0 1

O	 -0.403436	 -2.538148	 -1.737163
C	 -0.566289	 -1.365355	 -1.887066
C	 -0.889235	 -0.467034	 -0.705952
C	 -0.428856	 -0.711791	 -3.244027
C	 0.379448	 -0.143569	 0.099626
H	 -1.594285	 -0.995753	 -0.073761
H	 -1.359933	 0.452348	 -1.042413
C	 1.631333	 -0.777471	 -0.511575
H	 0.482768	 0.934507	 0.149241
H	 0.263088	 -0.495696	 1.123449
C	 2.915987	 -0.544314	 0.291766
H	 1.766672	 -0.399098	 -1.523130
H	 1.471257	 -1.849544	 -0.605828
C	 3.373361	 0.914346	 0.347591
H	 3.708709	 -1.142521	 -0.150311
H	 2.780642	 -0.921148	 1.303579
H	 3.506512	 1.320010	 -0.651625
H	 4.322697	 0.999599	 0.867103
H	 2.660624	 1.545032	 0.868198
H	 -1.394245	 -0.328945	 -3.564524
H	 -0.070088	 -1.431216	 -3.966867
H	 0.251002	 0.133974	 -3.196301

	symmetry c1
}
set optking {
	frozen_dihedral = ("
		6 3 5 8
	")
}

ee = optimize('scf')
oeprop('DIPOLE', 'QUADRUPOLE', 'MULLIKEN_CHARGES')
f=open( 'psi4out.xyz', 'w' )
f.write( "22  " )
f.write( str(ee) + "\n" )
f.write( MOL.save_string_xyz() )
f.close()
--------------------------------------------------------------------------

    Molecular point group: c1
  Charge       = 0
  Multiplicity = 1
  Basis Set: 6-31G*
  Basis Set:
  @DF-RHF Final Energy:  -348.08413891134842
    Total Energy =                       -348.0841389113481341
    Molecular point group: c1
  Basis Set: 6-31G*
  Basis Set:
  Basis Set: 6-31G*
  Basis Set:
  @DF-RHF Final Energy:  -348.08775265752928
    Total Energy =                       -348.0877526575293928
  Basis Set: 6-31G*
  Basis Set:
  Basis Set: 6-31G*
  Basis Set:
  @DF-RHF Final Energy:  -348.08809811814729
    Total Energy =                       -348.0880981181471725
  Basis Set: 6-31G*
  Basis Set:
  Basis Set: 6-31G*
  Basis Set:
  @DF-RHF Final Energy:  -348.08901819363996
    Total Energy =                       -348.0890181936397312
  Basis Set: 6-31G*
  Basis Set:
  @DF-RHF Final Energy:  -348.08918547337629
    Total Energy =                       -348.0891854733759487
  @DF-RHF Final Energy:  -348.08917458420831
    Total Energy =                       -348.0891745842085925
  @DF-RHF Final Energy:  -348.08920075727787
    Total Energy =                       -348.0892007572774105
  Basis Set: 6-31G*
  Basis Set:
  @DF-RHF Final Energy:  -348.08920377733580
    Total Energy =                       -348.0892037773355696
  Basis Set: 6-31G*
  Basis Set:
  Basis Set: 6-31G*
  Basis Set:
  @DF-RHF Final Energy:  -348.08920779966547
    Total Energy =                       -348.0892077996653597
  Basis Set: 6-31G*
  Basis Set:
  Basis Set: 6-31G*
  Basis Set:
  @DF-RHF Final Energy:  -348.08921030219574
    Total Energy =                       -348.0892103021955677
  Basis Set: 6-31G*
  Basis Set:
  Charge       = 0
  Multiplicity = 1
  Basis Set: 6-31G*
  Basis Set:

    Orbital Energies (a.u.)
    -----------------------

    Doubly Occupied:

       1A    -20.547095     2A    -11.324828     3A    -11.230383
       4A    -11.229521     5A    -11.227639     6A    -11.219451
       7A    -11.218729     8A    -11.212254     9A     -1.393105
      10A     -1.091332    11A     -1.041387    12A     -0.997260
      13A     -0.939337    14A     -0.860288    15A     -0.790838
      16A     -0.723212    17A     -0.658150    18A     -0.638303
      19A     -0.626358    20A     -0.622721    21A     -0.598722
      22A     -0.581977    23A     -0.563969    24A     -0.543943
      25A     -0.533752    26A     -0.526259    27A     -0.494590
      28A     -0.482005    29A     -0.467802    30A     -0.462194
      31A     -0.454232    32A     -0.396621

  @DF-RHF Final Energy:  -348.08921099225000

   => Energetics <=

    Nuclear Repulsion Energy =            381.6803489912226155
    One-Electron Energy =               -1228.1426017472890635
    Two-Electron Energy =                 498.3730417638165591
    DFT Exchange-Correlation Energy =       0.0000000000000000
    Empirical Dispersion Energy =           0.0000000000000000
    PCM Polarization Energy =               0.0000000000000000
    EFP Energy =                            0.0000000000000000
    Total Energy =                       -348.0892109922498321
    Molecular point group: c1
  Basis Set: 6-31G*
  Basis Set:

  -Total Gradient:
     Atom            X                  Y                   Z
    ------   -----------------  -----------------  -----------------
       1       -0.000001138836     0.000035654975    -0.000015180435
       2        0.000049864441    -0.000002311209    -0.000008186961
       3        0.000349241860    -0.000579701347    -0.000390031527
       4       -0.000068330601    -0.000045893638     0.000008646823
       5       -0.000169661336    -0.000509760231     0.000518903865
       6       -0.000257494382     0.000657845077     0.000215043172
       7        0.000000477712     0.000001118810    -0.000002096585
       8        0.000061312372     0.000421869583    -0.000369957281
       9       -0.000030295477    -0.000002568522    -0.000005367398
      10        0.000006142339     0.000002706253     0.000001768455
      11       -0.000013204724     0.000034281394     0.000011998647
      12        0.000016629857    -0.000011154333     0.000004331928
      13        0.000005443185     0.000010894233     0.000007396837
      14        0.000000057523    -0.000033073234    -0.000009261470
      15        0.000008789630     0.000018928077     0.000001050016
      16       -0.000007362433     0.000004426041     0.000002370690
      17       -0.000021674407    -0.000006293220     0.000007457847
      18        0.000020214338    -0.000004972476     0.000000530492
      19        0.000000827269    -0.000001792241     0.000002645557
      20        0.000017688786     0.000020180410     0.000005479470
      21        0.000019428608     0.000003105858    -0.000003329525
      22        0.000013044282    -0.000013490262     0.000015787384

  **** Optimization is complete! (in 11 steps) ****
    Final optimized geometry and variables:
    Molecular point group: c1

    Geometry (in Angstrom), charge = 0, multiplicity = 1:

    O           -1.395854254788    -1.867497621282    -0.905616129485
    C           -1.421344405531    -0.679294910683    -1.014598550667
    C           -1.594362148266     0.219943855833     0.199610521190
    C           -1.311155712103    -0.009720013096    -2.367262116542
    C           -0.285587535585     0.533271950572     0.991537194419
    H           -2.297957958344    -0.280981471872     0.852974845566
    H           -2.055814239276     1.150652926971    -0.113950454712
    C            1.008173337790    -0.092523855987     0.455170064986
    H           -0.170364341702     1.610066862808     1.036876330952
    H           -0.422072251663     0.202142674455     2.015796349210
    C            2.235366377577     0.195975715475     1.328306328230
    H            1.205942370483     0.263336911062    -0.554745706902
    H            0.880201836994    -1.166990285640     0.382551642690
    C            2.666076616465     1.663491598537     1.366659425626
    H            3.064147074712    -0.399752932560     0.954812629578
    H            2.044892791861    -0.152629209217     2.341181079866
    H            2.845255018782     2.043969631322     0.364471439575
    H            3.586078517342     1.778885299570     1.931212235382
    H            1.919083798375     2.297319652112     1.832989217277
    H           -2.270455218140     0.429127062858    -2.630038872784
    H           -1.035320493000    -0.736947321137    -3.118301363544
    H           -0.585536587525     0.797220699393    -2.346727923254

  Mulliken Charges: (a.u.)
   Center  Symbol    Alpha    Beta     Spin     Total
       1     O     4.26212  4.26212  0.00000 -0.52424
       2     C     2.73753  2.73753  0.00000  0.52494
       3     C     3.20489  3.20489  0.00000 -0.40979
       4     C     3.28918  3.28918  0.00000 -0.57836
       5     C     3.15615  3.15615  0.00000 -0.31230
       6     H     0.39887  0.39887  0.00000  0.20227
       7     H     0.41511  0.41511  0.00000  0.16979
       8     C     3.16849  3.16849  0.00000 -0.33699
       9     H     0.41572  0.41572  0.00000  0.16856
      10     H     0.41310  0.41310  0.00000  0.17380
      11     C     3.15339  3.15339  0.00000 -0.30678
      12     H     0.42563  0.42563  0.00000  0.14874
      13     H     0.40303  0.40303  0.00000  0.19393
      14     C     3.24185  3.24185  0.00000 -0.48371
      15     H     0.41808  0.41808  0.00000  0.16384
      16     H     0.42142  0.42142  0.00000  0.15716
      17     H     0.42262  0.42262  0.00000  0.15477
      18     H     0.41770  0.41770  0.00000  0.16459
      19     H     0.42086  0.42086  0.00000  0.15828
      20     H     0.40648  0.40648  0.00000  0.18705
      21     H     0.39743  0.39743  0.00000  0.20514
      22     H     0.41035  0.41035  0.00000  0.17930

   Total alpha = 32.00000, Total beta = 32.00000, Total charge =  0.00000
