                              Psi4 1.0.54 Driver

  ==> Input File <==

--------------------------------------------------------------------------
set {
	reference rhf
	basis cc-pvtz
}

set_num_threads( 4 )
memory 2 gb

molecule MOL {
0 1

O	 2.033705	 0.952712	 -0.773516
C	 1.704209	 0.119472	 -0.000093
C	 0.380337	 -0.600947	 -0.000234
O	 2.477464	 -0.296576	 0.989552
C	 -0.824290	 0.329213	 -0.000115
H	 0.371455	 -1.255476	 -0.865660
H	 0.371410	 -1.255787	 0.864952
C	 -2.146151	 -0.432825	 -0.000068
H	 -0.773936	 0.979158	 -0.866319
H	 -0.773838	 0.979034	 0.866186
C	 -3.366283	 0.483552	 0.000557
H	 -2.189286	 -1.084450	 -0.869996
H	 -2.188867	 -1.085083	 0.869399
C	 -4.687436	 -0.278003	 0.000108
H	 -3.325150	 1.134819	 -0.867957
H	 -3.325087	 1.133730	 0.869885
H	 -4.773783	 -0.912098	 -0.876078
H	 -5.531922	 0.401392	 0.000363
H	 -4.773901	 -0.912898	 0.875703
C	 3.754379	 0.297179	 1.109006
H	 4.341344	 0.121345	 0.219756
H	 4.221028	 -0.169475	 1.961250
H	 3.666504	 1.361641	 1.268418

	symmetry c1
}
set optking {
	frozen_dihedral = ("
		1 2 3 6
	")
}

ee,wfn = optimize('scf', return_wfn=True)
oeprop( wfn, 'DIPOLE', 'QUADRUPOLE', 'MULLIKEN_CHARGES')
f=open( 'psi4out.xyz', 'w' )
f.write( "23  " )
f.write( str(ee) + "\n" )
f.write( MOL.save_string_xyz() )
f.close()
--------------------------------------------------------------------------

    Molecular point group: c1
  Charge       = 0
  Multiplicity = 1
  Basis Set: CC-PVTZ
  Basis Set:
  @DF-RHF Final Energy:  -423.12923310365113
    Total Energy =                       -423.1292331036513588
    Molecular point group: c1
  Basis Set: CC-PVTZ
  Basis Set:
  Basis Set: CC-PVTZ
  Basis Set:
  @DF-RHF Final Energy:  -423.12967990281521
    Total Energy =                       -423.1296799028149280
  Basis Set: CC-PVTZ
  Basis Set:
  Basis Set: CC-PVTZ
  Basis Set:
  @DF-RHF Final Energy:  -423.12902550966618
    Total Energy =                       -423.1290255096663486
  Basis Set: CC-PVTZ
  Basis Set:
  Basis Set: CC-PVTZ
  Basis Set:
  @DF-RHF Final Energy:  -423.12985823838829
    Total Energy =                       -423.1298582383883513
  Basis Set: CC-PVTZ
  Basis Set:
  Basis Set: CC-PVTZ
  Basis Set:
  @DF-RHF Final Energy:  -423.12987374117790
    Total Energy =                       -423.1298737411783577
  Basis Set: CC-PVTZ
  Basis Set:
  Basis Set: CC-PVTZ
  Basis Set:
  @DF-RHF Final Energy:  -423.12987480655352
    Total Energy =                       -423.1298748065531754
  Basis Set: CC-PVTZ
  Basis Set:
  Charge       = 0
  Multiplicity = 1
  Basis Set: CC-PVTZ
  Basis Set:

    Orbital Energies (a.u.)
    -----------------------

    Doubly Occupied:

       1A    -20.598599     2A    -20.531404     3A    -11.364163
       4A    -11.278546     5A    -11.232501     6A    -11.221860
       7A    -11.217299     8A    -11.215854     9A    -11.208638
      10A     -1.472623    11A     -1.364678    12A     -1.095652
      13A     -1.044778    14A     -0.987733    15A     -0.934013
      16A     -0.844832    17A     -0.796726    18A     -0.772729
      19A     -0.697858    20A     -0.684688    21A     -0.675356
      22A     -0.654185    23A     -0.608685    24A     -0.599768
      25A     -0.575658    26A     -0.569731    27A     -0.547800
      28A     -0.529463    29A     -0.525398    30A     -0.506773
      31A     -0.486567    32A     -0.473333    33A     -0.468058
      34A     -0.464821    35A     -0.457963    36A     -0.434794

  @DF-RHF Final Energy:  -423.12987497287531

   => Energetics <=

    Nuclear Repulsion Energy =            453.3546845893538375
    One-Electron Energy =               -1474.6820576877016720
    Two-Electron Energy =                 598.1974981254721797
    DFT Exchange-Correlation Energy =       0.0000000000000000
    Empirical Dispersion Energy =           0.0000000000000000
    PCM Polarization Energy =               0.0000000000000000
    EFP Energy =                            0.0000000000000000
    Total Energy =                       -423.1298749728756547
    Molecular point group: c1
  Basis Set: CC-PVTZ
  Basis Set:

  -Total Gradient:
     Atom            X                  Y                   Z
    ------   -----------------  -----------------  -----------------
       1        0.000246802814    -0.000481758193    -0.000383668671
       2       -0.000382239671     0.000792894553     0.000524621081
       3        0.000437526818    -0.000791213390     0.000193871174
       4        0.000036950583     0.000017547879    -0.000008170868
       5       -0.000020599481     0.000014161194     0.000013392927
       6       -0.000276136793     0.000451456199    -0.000320628617
       7       -0.000003150281     0.000003906169    -0.000001304258
       8        0.000005562695     0.000001119584    -0.000011168126
       9        0.000001325046    -0.000001019381    -0.000001898218
      10       -0.000006093325     0.000009350413    -0.000001847555
      11        0.000000557829     0.000002226685     0.000006876790
      12       -0.000003691775    -0.000003721946    -0.000006278443
      13        0.000001083255    -0.000002753762    -0.000001503242
      14        0.000002859668    -0.000001900036     0.000000087311
      15        0.000000030801    -0.000002215979    -0.000001633877
      16        0.000001564102     0.000006218281     0.000002547565
      17       -0.000000564504    -0.000001621195    -0.000001692987
      18        0.000000226498     0.000001432614     0.000000966457
      19       -0.000001933307    -0.000001737072     0.000002950492
      20       -0.000046078090    -0.000018931657     0.000002334713
      21        0.000006679864    -0.000005442696    -0.000019528625
      22       -0.000001950576    -0.000009947893     0.000009265353
      23        0.000001267829     0.000021949629     0.000002409624

  **** Optimization is complete! (in 7 steps) ****
    Final optimized geometry and variables:
    Molecular point group: c1

    Geometry (in Angstrom), charge = 0, multiplicity = 1:

    O            1.990837237510     0.900950831390    -0.884108120081
    C            1.726345702812     0.048090402623    -0.105625855261
    C            0.415549695891    -0.698028808834    -0.075782476095
    O            2.568254230341    -0.367744164377     0.824056552057
    C           -0.787748886793     0.244080989824    -0.107898229581
    H            0.404123868917    -1.329671201232    -0.958540410201
    H            0.386708421728    -1.342431533906     0.791262126960
    C           -2.114185196064    -0.507529181091    -0.156388188569
    H           -0.699119384309     0.897089544576    -0.967150647696
    H           -0.765735018870     0.882763072391     0.770770771913
    C           -3.327080160449     0.418168661757    -0.178920202347
    H           -2.133552893480    -1.144520442882    -1.037631556735
    H           -2.187077524670    -1.172213641497     0.701270972001
    C           -4.652632199974    -0.333839016496    -0.232214731534
    H           -3.254345547364     1.082365601369    -1.035381436946
    H           -3.308969170815     1.054188009229     0.701771949179
    H           -4.716083213466    -0.952843526596    -1.120973844962
    H           -5.492057673139     0.351616231844    -0.246705259748
    H           -4.770132072719    -0.982192288481     0.629789957295
    C            3.842442057506     0.243557974258     0.863115988202
    H            4.368755931894     0.085994606371    -0.066557805256
    H            4.372492764926    -0.225801639011     1.675900442693
    H            3.750320585570     1.304716488812     1.040386749894

  Mulliken Charges: (a.u.)
   Center  Symbol    Alpha    Beta     Spin     Total
       1     O     4.20354  4.20354  0.00000 -0.40707
       2     C     2.81509  2.81509  0.00000  0.36983
       3     C     3.08299  3.08299  0.00000 -0.16597
       4     O     4.14333  4.14333  0.00000 -0.28665
       5     C     3.09365  3.09365  0.00000 -0.18730
       6     H     0.44534  0.44534  0.00000  0.10933
       7     H     0.43879  0.43879  0.00000  0.12242
       8     C     3.09047  3.09047  0.00000 -0.18094
       9     H     0.43868  0.43868  0.00000  0.12263
      10     H     0.45185  0.45185  0.00000  0.09629
      11     C     3.08425  3.08425  0.00000 -0.16849
      12     H     0.45411  0.45411  0.00000  0.09179
      13     H     0.45507  0.45507  0.00000  0.08986
      14     C     3.15032  3.15032  0.00000 -0.30064
      15     H     0.45253  0.45253  0.00000  0.09494
      16     H     0.45394  0.45394  0.00000  0.09213
      17     H     0.45484  0.45484  0.00000  0.09031
      18     H     0.44767  0.44767  0.00000  0.10466
      19     H     0.45532  0.45532  0.00000  0.08935
      20     C     3.03485  3.03485  0.00000 -0.06970
      21     H     0.45422  0.45422  0.00000  0.09156
      22     H     0.44507  0.44507  0.00000  0.10987
      23     H     0.45408  0.45408  0.00000  0.09183

   Total alpha = 36.00000, Total beta = 36.00000, Total charge = -0.00000

*** Psi4 exiting successfully. Buy a developer a beer!
