  ==> Input File <==

--------------------------------------------------------------------------
set {
	reference rhf
	basis cc-pvtz
}

set_num_threads( 4 )
memory 2 gb

molecule MOL {
0 1

H	 3.459101	 0.139266	 -0.762951
C	 2.749156	 -0.051729	 0.031265
C	 1.322304	 0.099773	 -0.484271
H	 2.929445	 -1.053887	 0.403481
H	 2.954281	 0.646699	 0.834672
C	 0.308557	 -0.162619	 0.622645
H	 1.143368	 -0.594400	 -1.295960
H	 1.169532	 1.100095	 -0.870217
N	 -1.069352	 -0.004081	 0.085342
H	 0.371632	 -1.172932	 0.991288
H	 0.400391	 0.548875	 1.426218
O	 -1.279047	 -0.424722	 -1.002622
O	 -1.857355	 0.558008	 0.769483

	symmetry c1
}
set optking {
	frozen_dihedral = ("
		12 9 6 3
	")
}

ee = optimize('scf')
oeprop('DIPOLE', 'QUADRUPOLE', 'MULLIKEN_CHARGES')
f=open( 'psi4out.xyz', 'w' )
f.write( "13  " )
f.write( str(ee) + "\n" )
f.write( MOL.save_string_xyz() )
f.close()
--------------------------------------------------------------------------

    Molecular point group: c1
  Charge       = 0
  Multiplicity = 1
  Basis Set: CC-PVTZ
  Basis Set:
  @DF-RHF Final Energy:  -321.85997003302384
    Total Energy =                       -321.8599700330238420
    Molecular point group: c1
  Basis Set: CC-PVTZ
  Basis Set:
  Basis Set: CC-PVTZ
  Basis Set:
  @DF-RHF Final Energy:  -321.85665324730542
    Total Energy =                       -321.8566532473053030
  Basis Set: CC-PVTZ
  Basis Set:
  Basis Set: CC-PVTZ
  Basis Set:
  @DF-RHF Final Energy:  -321.85902956126955
    Total Energy =                       -321.8590295612697219
  Basis Set: CC-PVTZ
  Basis Set:
  Basis Set: CC-PVTZ
  Basis Set:
  @DF-RHF Final Energy:  -321.86084163509088
    Total Energy =                       -321.8608416350907646
  Basis Set: CC-PVTZ
  Basis Set:
  Basis Set: CC-PVTZ
  Basis Set:
  @DF-RHF Final Energy:  -321.86086789782922
    Total Energy =                       -321.8608678978290527
  Basis Set: CC-PVTZ
  Basis Set:
  Basis Set: CC-PVTZ
  Basis Set:
  @DF-RHF Final Energy:  -321.86087341004298
    Total Energy =                       -321.8608734100430411
  Basis Set: CC-PVTZ
  Basis Set:
  Charge       = 0
  Multiplicity = 1
  Basis Set: CC-PVTZ
  Basis Set:

    Orbital Energies (a.u.)
    -----------------------

    Doubly Occupied:

       1A    -20.591282     2A    -20.590458     3A    -15.838010
       4A    -11.298464     5A    -11.249196     6A    -11.235570
       7A     -1.636907     8A     -1.420997     9A     -1.132306
      10A     -1.027141    11A     -0.884678    12A     -0.829421
      13A     -0.763621    14A     -0.746012    15A     -0.730289
      16A     -0.663729    17A     -0.605856    18A     -0.581435
      19A     -0.551839    20A     -0.522260    21A     -0.510246
      22A     -0.487605    23A     -0.474379    24A     -0.454516

  @DF-RHF Final Energy:  -321.86087379428818

   => Energetics <=

    Nuclear Repulsion Energy =            247.6851200284524168
    One-Electron Energy =                -929.4395526935318230
    Two-Electron Energy =                 359.8935588707911393
    DFT Exchange-Correlation Energy =       0.0000000000000000
    Empirical Dispersion Energy =           0.0000000000000000
    PCM Polarization Energy =               0.0000000000000000
    EFP Energy =                            0.0000000000000000
    Total Energy =                       -321.8608737942882954
    Molecular point group: c1
  Basis Set: CC-PVTZ
  Basis Set:

  -Total Gradient:
     Atom            X                  Y                   Z
    ------   -----------------  -----------------  -----------------
       1       -0.000006592445    -0.000003651817    -0.000001193617
       2       -0.000010150067    -0.000023691703    -0.000007471222
       3       -0.000010132755    -0.000364470405    -0.000082649142
       4        0.000002321450    -0.000001525650     0.000007544669
       5       -0.000004560262     0.000007609739    -0.000005718777
       6        0.000056883486     0.000718219581     0.000070035633
       7        0.000014812865     0.000006350175    -0.000013970989
       8       -0.000006606886     0.000000083083     0.000003243135
       9       -0.000176731751    -0.000802128523     0.000211604265
      10        0.000000607336     0.000005293217     0.000007752520
      11        0.000018176993    -0.000004315762     0.000014330277
      12        0.000118638771     0.000454481638    -0.000223112862
      13        0.000003333268     0.000007746426     0.000019606109

  **** Optimization is complete! (in 7 steps) ****
    Final optimized geometry and variables:
    Molecular point group: c1

    Geometry (in Angstrom), charge = 0, multiplicity = 1:

    H            3.496480126458     0.125042194003    -0.747329399677
    C            2.767932352925    -0.052643470517     0.032914181053
    C            1.353159419655     0.093150621870    -0.519245041916
    H            2.938110700332    -1.050131272554     0.423083424019
    H            2.958800245533     0.655270651014     0.831694610808
    C            0.324461932357    -0.152370984517     0.569582967678
    H            1.191587087479    -0.602468703624    -1.329378915152
    H            1.214503281862     1.089892909946    -0.922418596920
    N           -1.077395461425     0.005205500292     0.082971105090
    H            0.371382399632    -1.168119757905     0.938769103556
    H            0.417938615189     0.528047825540     1.398468997519
    O           -1.337970885695    -0.413981766362    -0.994264877677
    O           -1.847235633483     0.519968262523     0.821809789697

  Mulliken Charges: (a.u.)
   Center  Symbol    Alpha    Beta     Spin     Total
       1     H     0.44141  0.44141  0.00000  0.11718
       2     C     3.15194  3.15194  0.00000 -0.30388
       3     C     3.09439  3.09439  0.00000 -0.18878
       4     H     0.45265  0.45265  0.00000  0.09470
       5     H     0.45247  0.45247  0.00000  0.09505
       6     C     3.04277  3.04277  0.00000 -0.08554
       7     H     0.43361  0.43361  0.00000  0.13278
       8     H     0.44364  0.44364  0.00000  0.11272
       9     N     3.27567  3.27567  0.00000  0.44865
      10     H     0.43719  0.43719  0.00000  0.12561
      11     H     0.43174  0.43174  0.00000  0.13653
      12     O     4.17219  4.17219  0.00000 -0.34437
      13     O     4.17033  4.17033  0.00000 -0.34065

   Total alpha = 24.00000, Total beta = 24.00000, Total charge = -0.00000
