  ==> Input File <==

--------------------------------------------------------------------------
set {
	reference rhf
	basis cc-pvtz
}

set_num_threads( 4 )
memory 2 gb

molecule MOL {
0 1

H	 2.454793	 -0.997430	 -0.523312
O	 1.722121	 -0.446173	 -0.726690
C	 1.215083	 0.136088	 0.446297
C	 0.027642	 1.012027	 0.090274
H	 1.976134	 0.747537	 0.924522
H	 0.923777	 -0.633137	 1.156153
C	 -1.138737	 0.285728	 -0.581921
H	 0.378399	 1.800139	 -0.568024
H	 -0.317017	 1.494007	 1.001932
C	 -1.933983	 -0.631436	 0.343653
H	 -0.763151	 -0.285569	 -1.422081
H	 -1.808359	 1.035291	 -0.992333
H	 -2.789188	 -1.049673	 -0.174718
H	 -1.335629	 -1.461368	 0.700418
H	 -2.305435	 -0.092167	 1.209725

	symmetry c1
}
set optking {
	frozen_dihedral = ("
		8 4 7 11
	")
}

ee = optimize('scf')
oeprop('DIPOLE', 'QUADRUPOLE', 'MULLIKEN_CHARGES')
f=open( 'psi4out.xyz', 'w' )
f.write( "15  " )
f.write( str(ee) + "\n" )
f.write( MOL.save_string_xyz() )
f.close()
--------------------------------------------------------------------------

    Molecular point group: c1
  Charge       = 0
  Multiplicity = 1
  Basis Set: CC-PVTZ
  Basis Set:
  @DF-RHF Final Energy:  -232.23744645645468
    Total Energy =                       -232.2374464564545065
    Molecular point group: c1
  Basis Set: CC-PVTZ
  Basis Set:
  Basis Set: CC-PVTZ
  Basis Set:
  @DF-RHF Final Energy:  -232.23746964908710
    Total Energy =                       -232.2374696490873021
  Basis Set: CC-PVTZ
  Basis Set:
  Basis Set: CC-PVTZ
  Basis Set:
  @DF-RHF Final Energy:  -232.23750850602150
    Total Energy =                       -232.2375085060212996
  Basis Set: CC-PVTZ
  Basis Set:
  Charge       = 0
  Multiplicity = 1
  Basis Set: CC-PVTZ
  Basis Set:

    Orbital Energies (a.u.)
    -----------------------

    Doubly Occupied:

       1A    -20.546497     2A    -11.265633     3A    -11.210872
       4A    -11.207362     5A    -11.203551     6A     -1.364362
       7A     -1.065553     8A     -0.971986     9A     -0.868460
      10A     -0.777012    11A     -0.707000    12A     -0.650267
      13A     -0.608677    14A     -0.575480    15A     -0.566128
      16A     -0.534092    17A     -0.509894    18A     -0.476007
      19A     -0.468777    20A     -0.453586    21A     -0.432990

  @DF-RHF Final Energy:  -232.23750885332453

   => Energetics <=

    Nuclear Repulsion Energy =            191.4067111508911125
    One-Electron Energy =                -694.3600627615845724
    Two-Electron Energy =                 270.7158427573686481
    DFT Exchange-Correlation Energy =       0.0000000000000000
    Empirical Dispersion Energy =           0.0000000000000000
    PCM Polarization Energy =               0.0000000000000000
    EFP Energy =                            0.0000000000000000
    Total Energy =                       -232.2375088533248118
    Molecular point group: c1
  Basis Set: CC-PVTZ
  Basis Set:

  -Total Gradient:
     Atom            X                  Y                   Z
    ------   -----------------  -----------------  -----------------
       1        0.000002344503     0.000013162085     0.000008854600
       2       -0.000028359573     0.000022588427     0.000022097937
       3       -0.000006689841    -0.000034368450    -0.000011235033
       4        0.000853628556    -0.000993485030    -0.000425589655
       5       -0.000003970094     0.000001233350    -0.000013679256
       6       -0.000006966501    -0.000012166896     0.000015108320
       7       -0.000344298028     0.001150980011    -0.000627353137
       8       -0.000653450923     0.000657756066     0.000414055200
       9       -0.000002315196    -0.000009713404     0.000003425245
      10        0.000016909667    -0.000007116302     0.000002246984
      11        0.000155769643    -0.000788823703     0.000611054810
      12        0.000011266558     0.000010367933    -0.000005067591
      13        0.000000031435     0.000004175913    -0.000003246619
      14        0.000002273863    -0.000011271864     0.000011349452
      15        0.000003825931    -0.000003318136    -0.000002021260

  **** Optimization is complete! (in 4 steps) ****
    Final optimized geometry and variables:
    Molecular point group: c1

    Geometry (in Angstrom), charge = 0, multiplicity = 1:

    H            2.431758535429    -1.036445926620    -0.433831930455
    O            1.708990513483    -0.473291555406    -0.639644813095
    C            1.178707241167     0.081620354614     0.536257184810
    C            0.000067750279     0.967477942647     0.176526431870
    H            1.930966169651     0.679799890478     1.044134824236
    H            0.871688013654    -0.704190812286     1.221197777832
    C           -1.172332628495     0.246263555369    -0.491513706611
    H            0.357122818736     1.753943545887    -0.480062403887
    H           -0.342273238357     1.455635097615     1.085889993688
    C           -1.957528033877    -0.671953559793     0.442357057122
    H           -0.801503299540    -0.328142260155    -1.331699314395
    H           -1.847221864608     0.993554473484    -0.896202680683
    H           -2.797182412452    -1.120233571058    -0.076390766617
    H           -1.344853971091    -1.480823775842     0.823412660957
    H           -2.350177553325    -0.124431960785     1.293486593719

  Mulliken Charges: (a.u.)
   Center  Symbol    Alpha    Beta     Spin     Total
       1     H     0.39560  0.39560  0.00000  0.20880
       2     O     4.19872  4.19872  0.00000 -0.39745
       3     C     2.97398  2.97398  0.00000  0.05203
       4     C     3.09376  3.09376  0.00000 -0.18752
       5     H     0.46414  0.46414  0.00000  0.07172
       6     H     0.47314  0.47314  0.00000  0.05372
       7     C     3.08803  3.08803  0.00000 -0.17606
       8     H     0.44798  0.44798  0.00000  0.10405
       9     H     0.45570  0.45570  0.00000  0.08860
      10     C     3.15288  3.15288  0.00000 -0.30576
      11     H     0.44605  0.44605  0.00000  0.10789
      12     H     0.45064  0.45064  0.00000  0.09873
      13     H     0.44707  0.44707  0.00000  0.10587
      14     H     0.45522  0.45522  0.00000  0.08956
      15     H     0.45708  0.45708  0.00000  0.08583

   Total alpha = 21.00000, Total beta = 21.00000, Total charge =  0.00000
