  ==> Input File <==

--------------------------------------------------------------------------
set {
	reference rhf
	basis 6-31G*
}

set_num_threads( 4 )
memory 2 gb

molecule MOL {
0 1

H	 3.084518	 0.525659	 -0.899702
N	 2.263819	 -0.048611	 -0.886334
C	 1.267428	 0.496480	 0.024474
H	 2.553194	 -0.960044	 -0.585559
C	 -0.016086	 -0.325158	 -0.029487
H	 1.055144	 1.513979	 -0.289637
H	 1.617140	 0.554540	 1.058258
C	 -1.282277	 0.529072	 0.046735
H	 -0.012495	 -0.908639	 -0.945788
H	 -0.015903	 -1.041248	 0.791956
C	 -2.563920	 -0.301775	 -0.006060
H	 -1.284084	 1.244622	 -0.773004
H	 -1.271387	 1.115393	 0.963286
H	 -2.621848	 -0.873522	 -0.927727
H	 -3.445135	 0.329952	 0.047812
H	 -2.609542	 -1.004582	 0.821105

	symmetry c1
}
set optking {
	frozen_dihedral = ("
		6 3 5 9
	")
}

ee = optimize('scf')
oeprop('DIPOLE', 'QUADRUPOLE', 'MULLIKEN_CHARGES')
f=open( 'psi4out.xyz', 'w' )
f.write( "16  " )
f.write( str(ee) + "\n" )
f.write( MOL.save_string_xyz() )
f.close()
--------------------------------------------------------------------------

    Molecular point group: c1
  Charge       = 0
  Multiplicity = 1
  Basis Set: 6-31G*
  Basis Set:
  @DF-RHF Final Energy:  -212.31274656900283
    Total Energy =                       -212.3127465690026838
    Molecular point group: c1
  Basis Set: 6-31G*
  Basis Set:
  Basis Set: 6-31G*
  Basis Set:
  @DF-RHF Final Energy:  -212.31301338120824
    Total Energy =                       -212.3130133812084637
  Basis Set: 6-31G*
  Basis Set:
  Basis Set: 6-31G*
  Basis Set:
  @DF-RHF Final Energy:  -212.31309110654789
    Total Energy =                       -212.3130911065478585
  Basis Set: 6-31G*
  Basis Set:
  Basis Set: 6-31G*
  Basis Set:
  @DF-RHF Final Energy:  -212.31309026202362
    Total Energy =                       -212.3130902620236498
  Basis Set: 6-31G*
  Basis Set:
  Basis Set: 6-31G*
  Basis Set:
  @DF-RHF Final Energy:  -212.31309709586785
    Total Energy =                       -212.3130970958679882
  Basis Set: 6-31G*
  Basis Set:
  Charge       = 0
  Multiplicity = 1
  Basis Set: 6-31G*
  Basis Set:

    Orbital Energies (a.u.)
    -----------------------

    Doubly Occupied:

       1A    -15.533285     2A    -11.239739     3A    -11.214932
       4A    -11.209488     5A    -11.207334     6A     -1.176440
       7A     -1.058618     8A     -0.957367     9A     -0.844223
      10A     -0.793087    11A     -0.653769    12A     -0.647296
      13A     -0.597121    14A     -0.576689    15A     -0.571108
      16A     -0.517934    17A     -0.503006    18A     -0.468316
      19A     -0.464066    20A     -0.461860    21A     -0.379971

  @DF-RHF Final Energy:  -212.31309713077832

   => Energetics <=

    Nuclear Repulsion Energy =            186.1568170210990161
    One-Electron Energy =                -654.7885319936160613
    Two-Electron Energy =                 256.3186178417389556
    DFT Exchange-Correlation Energy =       0.0000000000000000
    Empirical Dispersion Energy =           0.0000000000000000
    PCM Polarization Energy =               0.0000000000000000
    EFP Energy =                            0.0000000000000000
    Total Energy =                       -212.3130971307780896
    Molecular point group: c1
  Basis Set: 6-31G*
  Basis Set:

  -Total Gradient:
     Atom            X                  Y                   Z
    ------   -----------------  -----------------  -----------------
       1       -0.000003578390     0.000001048361     0.000002860353
       2       -0.000003909426    -0.000014176386    -0.000005460688
       3        0.001550267506    -0.001991157225    -0.004671794743
       4        0.000007861798    -0.000004562924    -0.000002552869
       5       -0.002604138456     0.004264415205    -0.001499021996
       6       -0.000908721729     0.001028475611     0.004142421444
       7       -0.000001765472    -0.000003797832     0.000000704332
       8        0.000001950996     0.000004045316     0.000004260436
       9        0.001957011966    -0.003281085168     0.002028895115
      10       -0.000001622571    -0.000003073721     0.000000900223
      11        0.000005048276    -0.000000426865    -0.000002185157
      12       -0.000003829706    -0.000001059129    -0.000000472967
      13        0.000001423508    -0.000000115639     0.000000093770
      14        0.000001656699    -0.000000897582     0.000000301289
      15        0.000003045836     0.000000865386    -0.000001904073
      16       -0.000000700835     0.000001502592     0.000002955532

  **** Optimization is complete! (in 6 steps) ****
    Final optimized geometry and variables:
    Molecular point group: c1

    Geometry (in Angstrom), charge = 0, multiplicity = 1:

    H            3.169656806664     0.438012183639    -0.626032194635
    N            2.330820477132    -0.106630930625    -0.688587434957
    C            1.300708314349     0.438298244012     0.183817347872
    H            2.571447027416    -1.037573441001    -0.404013752628
    C            0.005568981155    -0.381944326044     0.103728090082
    H            1.105358015972     1.464213731710    -0.112935188462
    H            1.617628988543     0.496977981995     1.227993469325
    C           -1.263401986809     0.463644416190     0.207844660465
    H            0.013495514228    -0.950102362009    -0.822118610046
    H            0.001617319354    -1.124370979336     0.900863709235
    C           -2.540894486876    -0.374216970578     0.202015252053
    H           -1.289069249660     1.169784942527    -0.618740678644
    H           -1.227050767041     1.059330962409     1.118268081150
    H           -2.618359044602    -0.961731803457    -0.708375933467
    H           -3.423840402198     0.254142207135     0.266704845496
    H           -2.562633927365    -1.062909645494     1.041975233153

  Mulliken Charges: (a.u.)
   Center  Symbol    Alpha    Beta     Spin     Total
       1     H     0.33312  0.33312  0.00000  0.33376
       2     N     3.92028  3.92028  0.00000 -0.84056
       3     C     3.06233  3.06233  0.00000 -0.12467
       4     H     0.33531  0.33531  0.00000  0.32938
       5     C     3.15787  3.15787  0.00000 -0.31574
       6     H     0.41942  0.41942  0.00000  0.16117
       7     H     0.43391  0.43391  0.00000  0.13217
       8     C     3.15532  3.15532  0.00000 -0.31063
       9     H     0.41117  0.41117  0.00000  0.17766
      10     H     0.42580  0.42580  0.00000  0.14841
      11     C     3.23973  3.23973  0.00000 -0.47945
      12     H     0.41964  0.41964  0.00000  0.16072
      13     H     0.42399  0.42399  0.00000  0.15203
      14     H     0.42038  0.42038  0.00000  0.15924
      15     H     0.41947  0.41947  0.00000  0.16107
      16     H     0.42227  0.42227  0.00000  0.15547

   Total alpha = 21.00000, Total beta = 21.00000, Total charge = -0.00000
