  ==> Input File <==

--------------------------------------------------------------------------
set {
	reference rhf
	basis cc-pvtz
}

set_num_threads( 4 )
memory 2 gb

molecule MOL {
0 1

H	 1.491759	 -1.131559	 1.232816
C	 0.602581	 -1.246253	 0.630389
O	 -0.000000	 0.000000	 0.518769
H	 0.887584	 -1.639769	 -0.343148
H	 -0.056278	 -1.965805	 1.112059
C	 -1.165153	 0.000000	 -0.236961
H	 -1.229451	 0.882440	 -0.870223
H	 -2.002557	 0.000000	 0.445289
H	 -1.229451	 -0.882440	 -0.870223

	symmetry c1
}
set optking {
	frozen_dihedral = ("
		2 3 6 7
	")
}

ee = optimize('scf')
oeprop('DIPOLE', 'QUADRUPOLE', 'MULLIKEN_CHARGES')
f=open( 'psi4out.xyz', 'w' )
f.write( "9  " )
f.write( str(ee) + "\n" )
f.write( MOL.save_string_xyz() )
f.close()
--------------------------------------------------------------------------

    Molecular point group: c1
  Charge       = 0
  Multiplicity = 1
  Basis Set: CC-PVTZ
  Basis Set:
  @DF-RHF Final Energy:  -154.12357620731359
    Total Energy =                       -154.1235762073135334
    Molecular point group: c1
  Basis Set: CC-PVTZ
  Basis Set:
  Basis Set: CC-PVTZ
  Basis Set:
  @DF-RHF Final Energy:  -154.12426845334005
    Total Energy =                       -154.1242684533399938
  Basis Set: CC-PVTZ
  Basis Set:
  Basis Set: CC-PVTZ
  Basis Set:
  @DF-RHF Final Energy:  -154.12440076288280
    Total Energy =                       -154.1244007628828001
  Basis Set: CC-PVTZ
  Basis Set:
  Charge       = 0
  Multiplicity = 1
  Basis Set: CC-PVTZ
  Basis Set:

    Orbital Energies (a.u.)
    -----------------------

    Doubly Occupied:

       1A    -20.547561     2A    -11.263513     3A    -11.262769
       4A     -1.378940     5A     -0.975810     6A     -0.872697
       7A     -0.660745     8A     -0.654436     9A     -0.645251
      10A     -0.558277    11A     -0.527199    12A     -0.475257
      13A     -0.416640

  @DF-RHF Final Energy:  -154.12440123194608

   => Energetics <=

    Nuclear Repulsion Energy =             84.6474850450197067
    One-Electron Energy =                -377.0655862934241895
    Two-Electron Energy =                 138.2937000164583878
    DFT Exchange-Correlation Energy =       0.0000000000000000
    Empirical Dispersion Energy =           0.0000000000000000
    PCM Polarization Energy =               0.0000000000000000
    EFP Energy =                            0.0000000000000000
    Total Energy =                       -154.1244012319460808
    Molecular point group: c1
  Basis Set: CC-PVTZ
  Basis Set:

  -Total Gradient:
     Atom            X                  Y                   Z
    ------   -----------------  -----------------  -----------------
       1        0.000006776970    -0.000012010276     0.000013180628
       2        0.001164630002     0.000314443045    -0.001777255384
       3       -0.001335628591    -0.000799109970     0.002033260181
       4       -0.000009978035    -0.000006044793     0.000000568793
       5       -0.000016926685     0.000055506582    -0.000015401011
       6       -0.001015490858     0.001717542482     0.001623479085
       7        0.001195217306    -0.001286920571    -0.001884782132
       8       -0.000003664818     0.000011636303     0.000004982169
       9        0.000015064708     0.000004957199     0.000001967671

  **** Optimization is complete! (in 4 steps) ****
    Final optimized geometry and variables:
    Molecular point group: c1

    Geometry (in Angstrom), charge = 0, multiplicity = 1:

    H            1.703213909869    -0.684530596336     0.925861317953
    C            0.807130525453    -0.818792883283     0.337160015300
    O            0.195396941538     0.422220440696     0.210000827044
    H            1.083615266049    -1.227494467351    -0.631857656813
    H            0.164560276331    -1.536475532867     0.843077386165
    C           -0.986872817102     0.433942111134    -0.527292210201
    H           -1.003436650642     1.323505324508    -1.143271561760
    H           -1.853956296175     0.431532821474     0.126044497765
    H           -1.054927089826    -0.425130128334    -1.188848030405

  Mulliken Charges: (a.u.)
   Center  Symbol    Alpha    Beta     Spin     Total
       1     H     0.44957  0.44957  0.00000  0.10087
       2     C     3.02097  3.02097  0.00000 -0.04193
       3     O     4.17166  4.17166  0.00000 -0.34333
       4     H     0.47249  0.47249  0.00000  0.05503
       5     H     0.47349  0.47349  0.00000  0.05303
       6     C     3.01729  3.01729  0.00000 -0.03458
       7     H     0.45456  0.45456  0.00000  0.09087
       8     H     0.46428  0.46428  0.00000  0.07145
       9     H     0.47570  0.47570  0.00000  0.04859

   Total alpha = 13.00000, Total beta = 13.00000, Total charge =  0.00000
