  ==> Input File <==

--------------------------------------------------------------------------
set {
	reference rhf
	basis 6-31G*
}

set_num_threads( 4 )
memory 2 gb

molecule MOL {
0 1

H	 -1.029483	 -2.168616	 1.116242
N	 -0.255388	 -1.542015	 1.008414
C	 -0.563778	 -0.502042	 0.037919
H	 0.522189	 -2.093033	 0.697754
C	 0.575259	 0.508231	 -0.048326
H	 -1.465470	 0.003483	 0.370473
H	 -0.775018	 -0.894107	 -0.960283
C	 1.954651	 -0.143624	 0.035137
H	 0.475158	 1.060484	 -0.977307
H	 0.469181	 1.234488	 0.755973
H	 2.103292	 -0.853109	 -0.774172
H	 2.742821	 0.599562	 -0.030094
H	 2.083613	 -0.679371	 0.971560

	symmetry c1
}
set optking {
	frozen_dihedral = ("
		6 3 5 9
	")
}

ee = optimize('scf')
oeprop('DIPOLE', 'QUADRUPOLE', 'MULLIKEN_CHARGES')
f=open( 'psi4out.xyz', 'w' )
f.write( "13  " )
f.write( str(ee) + "\n" )
f.write( MOL.save_string_xyz() )
f.close()
--------------------------------------------------------------------------

    Molecular point group: c1
  Charge       = 0
  Multiplicity = 1
  Basis Set: 6-31G*
  Basis Set:
  @DF-RHF Final Energy:  -173.27754712609780
    Total Energy =                       -173.2775471260977724
    Molecular point group: c1
  Basis Set: 6-31G*
  Basis Set:
  Basis Set: 6-31G*
  Basis Set:
  @DF-RHF Final Energy:  -173.27813189724591
    Total Energy =                       -173.2781318972459133
  Basis Set: 6-31G*
  Basis Set:
  Basis Set: 6-31G*
  Basis Set:
  @DF-RHF Final Energy:  -173.27904034604344
    Total Energy =                       -173.2790403460433595
  Basis Set: 6-31G*
  Basis Set:
  Basis Set: 6-31G*
  Basis Set:
  @DF-RHF Final Energy:  -173.27909081685777
    Total Energy =                       -173.2790908168577175
  Basis Set: 6-31G*
  Basis Set:
  Basis Set: 6-31G*
  Basis Set:
  @DF-RHF Final Energy:  -173.27910635420329
    Total Energy =                       -173.2791063542032930
  Basis Set: 6-31G*
  Basis Set:
  Charge       = 0
  Multiplicity = 1
  Basis Set: 6-31G*
  Basis Set:

    Orbital Energies (a.u.)
    -----------------------

    Doubly Occupied:

       1A    -15.532304     2A    -11.240750     3A    -11.211748
       4A    -11.205537     5A     -1.176374     6A     -1.028470
       7A     -0.907425     8A     -0.785526     9A     -0.668862
      10A     -0.641614    11A     -0.575814    12A     -0.560811
      13A     -0.548925    14A     -0.483930    15A     -0.476567
      16A     -0.467230    17A     -0.380339

  @DF-RHF Final Energy:  -173.27910907824929

   => Energetics <=

    Nuclear Repulsion Energy =            134.1418954873279290
    One-Electron Energy =                -499.0575575441869205
    Two-Electron Energy =                 191.6365529786096147
    DFT Exchange-Correlation Energy =       0.0000000000000000
    Empirical Dispersion Energy =           0.0000000000000000
    PCM Polarization Energy =               0.0000000000000000
    EFP Energy =                            0.0000000000000000
    Total Energy =                       -173.2791090782493768
    Molecular point group: c1
  Basis Set: 6-31G*
  Basis Set:

  -Total Gradient:
     Atom            X                  Y                   Z
    ------   -----------------  -----------------  -----------------
       1        0.000019953046     0.000023506856    -0.000011433644
       2        0.000060789433    -0.000011027744    -0.000012489818
       3       -0.000819417478     0.000559711114    -0.007066807046
       4       -0.000004485139    -0.000010625770     0.000027985795
       5       -0.003713957046     0.004248942832     0.004330702939
       6        0.001227777485    -0.001106987230     0.005277771746
       7       -0.000016403022     0.000019168674    -0.000014737626
       8       -0.000006266748    -0.000019385412    -0.000019987096
       9        0.003245307230    -0.003712258310    -0.002515805314
      10       -0.000019909523     0.000033076762     0.000008645109
      11        0.000027601159    -0.000012265132    -0.000003628188
      12       -0.000001230222    -0.000009967878     0.000004355727
      13        0.000000240825    -0.000001888763    -0.000004572584

  **** Optimization is complete! (in 6 steps) ****
    Final optimized geometry and variables:
    Molecular point group: c1

    Geometry (in Angstrom), charge = 0, multiplicity = 1:

    H           -1.555394796437    -1.650983609831     0.895855453316
    N           -0.729689850366    -1.102076970245     0.754658418601
    C           -0.975416413535    -0.065910315910    -0.242898915169
    H           -0.014289524326    -1.733587106585     0.451297541485
    C            0.157780056822     0.966377599865    -0.282341529496
    H           -1.885757128704     0.432940913415     0.071895173614
    H           -1.141387358994    -0.469556465467    -1.243241082877
    C            1.560829469651     0.353971792711    -0.252006881647
    H            0.070228313983     1.528247655727    -1.209251776603
    H            0.050632198021     1.658224286352     0.546406528003
    H            1.701138953125    -0.356097532387    -1.064495797443
    H            2.315388755298     1.126312116970    -0.363020394177
    H            1.748933881607    -0.159247990935     0.683616712943

  Mulliken Charges: (a.u.)
   Center  Symbol    Alpha    Beta     Spin     Total
       1     H     0.33217  0.33217  0.00000  0.33565
       2     N     3.92336  3.92336  0.00000 -0.84671
       3     C     3.06552  3.06552  0.00000 -0.13103
       4     H     0.33293  0.33293  0.00000  0.33415
       5     C     3.14626  3.14626  0.00000 -0.29252
       6     H     0.41907  0.41907  0.00000  0.16187
       7     H     0.43294  0.43294  0.00000  0.13412
       8     C     3.24951  3.24951  0.00000 -0.49902
       9     H     0.42488  0.42488  0.00000  0.15024
      10     H     0.41683  0.41683  0.00000  0.16634
      11     H     0.42705  0.42705  0.00000  0.14589
      12     H     0.41867  0.41867  0.00000  0.16266
      13     H     0.41082  0.41082  0.00000  0.17836

   Total alpha = 17.00000, Total beta = 17.00000, Total charge =  0.00000
