  ==> Input File <==

--------------------------------------------------------------------------
set {
	reference rhf
	basis 6-31G*
}

set_num_threads( 1 )
memory 2 gb

molecule MOL {
0 1

O	 -1.918184	 0.652555	 0.796269
C	 -1.083277	 0.139568	 0.115197
C	 0.323299	 -0.082943	 0.642902
C	 -1.371183	 -0.289761	 -1.306287
C	 1.355627	 -0.005344	 -0.493127
H	 0.396251	 -1.044647	 1.143147
H	 0.528637	 0.693580	 1.371677
C	 2.786168	 -0.195604	 0.007473
H	 1.132807	 -0.760304	 -1.243899
H	 1.259610	 0.958506	 -0.981915
H	 3.495561	 -0.130713	 -0.811210
H	 2.912696	 -1.165395	 0.480041
H	 3.049284	 0.565503	 0.735850
H	 -0.626373	 0.110539	 -1.987966
H	 -2.356263	 0.044012	 -1.601159
H	 -1.321189	 -1.373108	 -1.377448

	symmetry c1
}
set optking {
	frozen_dihedral = ("
		9 5 3 2
	")
}

ee = energy('scf')
oeprop('DIPOLE', 'QUADRUPOLE', 'MULLIKEN_CHARGES')
f=open( 'psi4out.xyz', 'w' )
f.write( "16  " )
f.write( str(ee) + "\n" )
f.write( MOL.save_string_xyz() )
f.close()
--------------------------------------------------------------------------

    Molecular point group: c1

    Geometry (in Angstrom), charge = 0, multiplicity = 1:

       Center              X                  Y                   Z               Mass
    ------------   -----------------  -----------------  -----------------  -----------------
           O         -1.941230970653     0.616422041684     0.842464196520    15.994914619560
           C         -1.106323970653     0.103435041684     0.161392196520    12.000000000000
           C          0.300252029347    -0.119075958316     0.689097196520    12.000000000000
           C         -1.394229970653    -0.325893958316    -1.260091803480    12.000000000000
           C          1.332580029347    -0.041476958316    -0.446931803480    12.000000000000
           H          0.373204029347    -1.080779958316     1.189342196520     1.007825032070
           H          0.505590029347     0.657447041684     1.417872196520     1.007825032070
           C          2.763121029347    -0.231736958316     0.053668196520    12.000000000000
           H          1.109760029347    -0.796436958316    -1.197703803480     1.007825032070
           H          1.236563029347     0.922373041684    -0.935719803480     1.007825032070
           H          3.472514029347    -0.166845958316    -0.765014803480     1.007825032070
           H          2.889649029347    -1.201527958316     0.526236196520     1.007825032070
           H          3.026237029347     0.529370041684     0.782045196520     1.007825032070
           H         -0.649419970653     0.074406041684    -1.941770803480     1.007825032070
           H         -2.379309970653     0.007879041684    -1.554963803480     1.007825032070
           H         -1.344235970653    -1.409240958316    -1.331252803480     1.007825032070

  Charge       = 0
  Multiplicity = 1
  Basis Set: 6-31G*
  Basis Set:

    Orbital Energies (a.u.)
    -----------------------

    Doubly Occupied:

       1A    -20.547473     2A    -11.325038     3A    -11.233801
       4A    -11.231110     5A    -11.227117     6A    -11.220878
       7A     -1.392975     8A     -1.089328     9A     -1.008702
      10A     -0.951381    11A     -0.833812    12A     -0.734867
      13A     -0.658621    14A     -0.654374    15A     -0.623766
      16A     -0.600212    17A     -0.577477    18A     -0.555070
      19A     -0.539354    20A     -0.517440    21A     -0.504522
      22A     -0.486128    23A     -0.473729    24A     -0.398009

  @DF-RHF Final Energy:  -270.02488655842069

   => Energetics <=

    Nuclear Repulsion Energy =            238.4498479787576173
    One-Electron Energy =                -838.1791827771683074
    Two-Electron Energy =                 329.7044482399901995
    DFT Exchange-Correlation Energy =       0.0000000000000000
    Empirical Dispersion Energy =           0.0000000000000000
    PCM Polarization Energy =               0.0000000000000000
    EFP Energy =                            0.0000000000000000
    Total Energy =                       -270.0248865584205191

  Mulliken Charges: (a.u.)
   Center  Symbol    Alpha    Beta     Spin     Total
       1     O     4.26249  4.26249  0.00000 -0.52498
       2     C     2.73222  2.73222  0.00000  0.53556
       3     C     3.20149  3.20149  0.00000 -0.40297
       4     C     3.29589  3.29589  0.00000 -0.59178
       5     C     3.17130  3.17130  0.00000 -0.34260
       6     H     0.40432  0.40432  0.00000  0.19136
       7     H     0.39916  0.39916  0.00000  0.20168
       8     C     3.23853  3.23853  0.00000 -0.47705
       9     H     0.41683  0.41683  0.00000  0.16634
      10     H     0.41617  0.41617  0.00000  0.16767
      11     H     0.41622  0.41622  0.00000  0.16756
      12     H     0.41973  0.41973  0.00000  0.16055
      13     H     0.41808  0.41808  0.00000  0.16384
      14     H     0.40473  0.40473  0.00000  0.19054
      15     H     0.39566  0.39566  0.00000  0.20868
      16     H     0.40720  0.40720  0.00000  0.18560

   Total alpha = 24.00000, Total beta = 24.00000, Total charge =  0.00000
