                              Psi4 1.0.54 Driver

  ==> Input File <==

--------------------------------------------------------------------------
set {
	reference rhf
	basis cc-pvtz
}

set_num_threads( 4 )
memory 2 gb

molecule MOL {
0 1

H	 -3.436473	 1.252944	 -1.023892
O	 -3.458596	 0.315260	 -0.960865
C	 -3.176635	 -0.080824	 0.355601
C	 -1.763371	 0.265266	 0.799691
H	 -3.321825	 -1.153438	 0.379502
H	 -3.895468	 0.357385	 1.043382
C	 -0.673390	 -0.426948	 -0.013392
H	 -1.631049	 1.344913	 0.747560
H	 -1.664587	 -0.001624	 1.849167
C	 0.737842	 -0.043159	 0.423759
H	 -0.806103	 -0.190518	 -1.063345
H	 -0.797221	 -1.503753	 0.074146
C	 1.824000	 -0.743224	 -0.390623
H	 0.850588	 1.033777	 0.343840
H	 0.868587	 -0.286314	 1.476203
C	 3.233057	 -0.644669	 0.196483
H	 1.828982	 -0.341634	 -1.401341
H	 1.563580	 -1.793902	 -0.484841
C	 3.820474	 0.764515	 0.213289
H	 3.890570	 -1.287821	 -0.380412
H	 3.229165	 -1.045175	 1.206929
H	 3.831621	 1.193281	 -0.783763
H	 4.841571	 0.751001	 0.577186
H	 3.256438	 1.431830	 0.853727

	symmetry c1
}
set optking {
	frozen_dihedral = ("
		17 13 10 7
	")
}

ee,wfn = optimize('scf', return_wfn=True)
oeprop( wfn, 'DIPOLE', 'QUADRUPOLE', 'MULLIKEN_CHARGES')
f=open( 'psi4out.xyz', 'w' )
f.write( "24  " )
f.write( str(ee) + "\n" )
f.write( MOL.save_string_xyz() )
f.close()
--------------------------------------------------------------------------

    Molecular point group: c1
  Charge       = 0
  Multiplicity = 1
  Basis Set: CC-PVTZ
  Basis Set:
  @DF-RHF Final Energy:  -349.38008641895095
    Total Energy =                       -349.3800864189512367
    Molecular point group: c1
  Basis Set: CC-PVTZ
  Basis Set:
  Basis Set: CC-PVTZ
  Basis Set:
  @DF-RHF Final Energy:  -349.37997983117765
    Total Energy =                       -349.3799798311772520
  Basis Set: CC-PVTZ
  Basis Set:
  Basis Set: CC-PVTZ
  Basis Set:
  @DF-RHF Final Energy:  -349.38014715152673
    Total Energy =                       -349.3801471515266144
  Basis Set: CC-PVTZ
  Basis Set:
  Basis Set: CC-PVTZ
  Basis Set:
  @DF-RHF Final Energy:  -349.38015032883766
    Total Energy =                       -349.3801503288374306
  Basis Set: CC-PVTZ
  Basis Set:
  Basis Set: CC-PVTZ
  Basis Set:
  @DF-RHF Final Energy:  -349.38015133665181
    Total Energy =                       -349.3801513366519202
  Basis Set: CC-PVTZ
  Basis Set:
  Charge       = 0
  Multiplicity = 1
  Basis Set: CC-PVTZ
  Basis Set:

    Orbital Energies (a.u.)
    -----------------------

    Doubly Occupied:

       1A    -20.546246     2A    -11.265522     3A    -11.215170
       4A    -11.211936     5A    -11.210298     6A    -11.209427
       7A    -11.209041     8A    -11.205278     9A     -1.364120
      10A     -1.089849    11A     -1.049498    12A     -0.986439
      13A     -0.915885    14A     -0.851421    15A     -0.801846
      16A     -0.776066    17A     -0.682048    18A     -0.654070
      19A     -0.627242    20A     -0.621113    21A     -0.596580
      22A     -0.587930    23A     -0.556448    24A     -0.543617
      25A     -0.516349    26A     -0.507931    27A     -0.501223
      28A     -0.473350    29A     -0.468213    30A     -0.461435
      31A     -0.454760    32A     -0.451789    33A     -0.421247

  @DF-RHF Final Energy:  -349.38015144441039

   => Energetics <=

    Nuclear Repulsion Energy =            384.8371402829203021
    One-Electron Energy =               -1236.3678027605626539
    Two-Electron Energy =                 502.1505110332316235
    DFT Exchange-Correlation Energy =       0.0000000000000000
    Empirical Dispersion Energy =           0.0000000000000000
    PCM Polarization Energy =               0.0000000000000000
    EFP Energy =                            0.0000000000000000
    Total Energy =                       -349.3801514444107852
    Molecular point group: c1
  Basis Set: CC-PVTZ
  Basis Set:

  -Total Gradient:
     Atom            X                  Y                   Z
    ------   -----------------  -----------------  -----------------
       1        0.000000207048    -0.000001519743     0.000004705607
       2       -0.000003331906    -0.000004660251     0.000004738286
       3        0.000001922274    -0.000000886148     0.000003545370
       4        0.000001720956     0.000004662817    -0.000004290230
       5       -0.000003620307     0.000001275586    -0.000007119940
       6       -0.000001156810    -0.000000150700    -0.000004058065
       7        0.000001153965    -0.000925779807     0.000793270105
       8        0.000003581084    -0.000002067649    -0.000000310817
       9       -0.000000908367     0.000000348691    -0.000000723405
      10        0.000252301764     0.001564567813    -0.000995848577
      11       -0.000001660673    -0.000001596163     0.000002970948
      12        0.000001496082     0.000003756196     0.000002734459
      13       -0.001374077643    -0.001804114718    -0.000284384723
      14       -0.000003668357    -0.000007089765    -0.000001451296
      15        0.000002017781     0.000000468223     0.000000616133
      16        0.000005692644    -0.000002032888     0.000010740535
      17        0.001110289845     0.001161854181     0.000472699934
      18       -0.000006246730     0.000007258761    -0.000000836608
      19        0.000006230295    -0.000000153581     0.000000355741
      20       -0.000002397543     0.000009334630     0.000008480923
      21        0.000004597592     0.000000272241    -0.000002725516
      22       -0.000001808740     0.000000616213     0.000005615284
      23       -0.000001290710     0.000003952029    -0.000002214314
      24        0.000008956455    -0.000008315967    -0.000006509837

  **** Optimization is complete! (in 6 steps) ****
    Final optimized geometry and variables:
    Molecular point group: c1

    Geometry (in Angstrom), charge = 0, multiplicity = 1:

    H           -3.440242678987     1.291756796305    -1.108174928472
    O           -3.467679876340     0.355921967387    -1.023687052251
    C           -3.183735546579    -0.011477841085     0.300528227264
    C           -1.767106958228     0.336667362538     0.732221387541
    H           -3.334853244647    -1.082447557760     0.349001231416
    H           -3.898018011297     0.446145856697     0.980373636233
    C           -0.683442111192    -0.377710240800    -0.069951330941
    H           -1.629539369054     1.414285707048     0.657375605340
    H           -1.665826145577     0.091011987267     1.786690083581
    C            0.731445634831    -0.003866478127     0.364333272319
    H           -0.813788805773    -0.155641987383    -1.123607324733
    H           -0.816917371032    -1.451748140345     0.033296715877
    C            1.812754923290    -0.704709825756    -0.458275479443
    H            0.854247021038     1.072739226744     0.297346562016
    H            0.859140130907    -0.260149686192     1.414248565650
    C            3.225257555303    -0.594620324938     0.119208060304
    H            1.815788966423    -0.296483904142    -1.466261895631
    H            1.559363976609    -1.756693785573    -0.550933801845
    C            3.781162257795     0.826335759893     0.170420622537
    H            3.890942839747    -1.208065403789    -0.480319428240
    H            3.237921037096    -1.021882073156     1.118517217644
    H            3.773742174507     1.283117402065    -0.814216345066
    H            4.805278853450     0.826931545170     0.525888592104
    H            3.206217792158     1.461639988273     0.833552339741

  Mulliken Charges: (a.u.)
   Center  Symbol    Alpha    Beta     Spin     Total
       1     H     0.39530  0.39530  0.00000  0.20939
       2     O     4.20374  4.20374  0.00000 -0.40749
       3     C     2.97767  2.97767  0.00000  0.04465
       4     C     3.10215  3.10215  0.00000 -0.20429
       5     H     0.45896  0.45896  0.00000  0.08209
       6     H     0.46039  0.46039  0.00000  0.07922
       7     C     3.08625  3.08625  0.00000 -0.17250
       8     H     0.45914  0.45914  0.00000  0.08171
       9     H     0.45342  0.45342  0.00000  0.09316
      10     C     3.09313  3.09313  0.00000 -0.18625
      11     H     0.44657  0.44657  0.00000  0.10686
      12     H     0.45502  0.45502  0.00000  0.08997
      13     C     3.09428  3.09428  0.00000 -0.18856
      14     H     0.45260  0.45260  0.00000  0.09479
      15     H     0.45621  0.45621  0.00000  0.08759
      16     C     3.09004  3.09004  0.00000 -0.18007
      17     H     0.45343  0.45343  0.00000  0.09315
      18     H     0.44951  0.44951  0.00000  0.10098
      19     C     3.15275  3.15275  0.00000 -0.30550
      20     H     0.44887  0.44887  0.00000  0.10226
      21     H     0.45525  0.45525  0.00000  0.08950
      22     H     0.45503  0.45503  0.00000  0.08994
      23     H     0.44653  0.44653  0.00000  0.10694
      24     H     0.45378  0.45378  0.00000  0.09244

   Total alpha = 33.00000, Total beta = 33.00000, Total charge = -0.00000

*** Psi4 exiting successfully. Buy a developer a beer!
