  ==> Input File <==

--------------------------------------------------------------------------
set {
	reference rhf
	basis 6-31G*
}

set_num_threads( 4 )
memory 2 gb

molecule MOL {
0 1

H	 -0.478193	 3.728812	 6.213226
C	 -1.093737	 2.851813	 6.038581
C	 -1.291900	 2.604868	 4.543614
H	 -0.605016	 2.005192	 6.511578
H	 -2.044118	 3.009184	 6.541382
C	 -2.162092	 1.378015	 4.261811
H	 -0.323808	 2.478238	 4.069944
H	 -1.751001	 3.482901	 4.091976
C	 -2.393186	 1.115914	 2.773468
H	 -1.708296	 0.500054	 4.707789
H	 -3.130021	 1.511685	 4.739607
C	 -1.165491	 0.614703	 2.027280
H	 -3.162934	 0.355733	 2.649438
H	 -2.775620	 2.005007	 2.277047
C	 -1.181045	 0.701995	 0.511084
O	 -0.228192	 0.151510	 2.604626
C	 -2.285934	 -0.139295	 -0.145128
H	 -0.207309	 0.376692	 0.165062
H	 -1.305229	 1.745044	 0.225930
C	 -3.651768	 0.085446	 0.506485
H	 -2.346596	 0.110469	 -1.202272
H	 -2.034737	 -1.195320	 -0.088721
C	 -4.759797	 -0.746382	 -0.137905
H	 -3.908762	 1.140117	 0.445781
H	 -3.588286	 -0.154158	 1.565709
H	 -4.868882	 -0.505166	 -1.191300
H	 -4.548009	 -1.809175	 -0.062213
H	 -5.715422	 -0.564821	 0.343442

	symmetry c1
}
set optking {
	frozen_dihedral = ("
		12 15 17 21
	")
}

ee = optimize('scf')
oeprop('DIPOLE', 'QUADRUPOLE', 'MULLIKEN_CHARGES')
f=open( 'psi4out.xyz', 'w' )
f.write( "28  " )
f.write( str(ee) + "\n" )
f.write( MOL.save_string_xyz() )
f.close()
--------------------------------------------------------------------------

    Molecular point group: c1
  Charge       = 0
  Multiplicity = 1
  Basis Set: 6-31G*
  Basis Set:
  @DF-RHF Final Energy:  -426.13192402097354
    Total Energy =                       -426.1319240209737700
    Molecular point group: c1
  Basis Set: 6-31G*
  Basis Set:
  Basis Set: 6-31G*
  Basis Set:
  @DF-RHF Final Energy:  -426.15504106387527
    Total Energy =                       -426.1550410638757285
  Basis Set: 6-31G*
  Basis Set:
  Basis Set: 6-31G*
  Basis Set:
  @DF-RHF Final Energy:  -426.15938142590812
    Total Energy =                       -426.1593814259085775
  Basis Set: 6-31G*
  Basis Set:
  Basis Set: 6-31G*
  Basis Set:
  @DF-RHF Final Energy:  -426.16008480235996
    Total Energy =                       -426.1600848023598473
  Basis Set: 6-31G*
  Basis Set:
  @DF-RHF Final Energy:  -426.16157836319690
    Total Energy =                       -426.1615783631970089
  @DF-RHF Final Energy:  -426.16314022307097
    Total Energy =                       -426.1631402230711956
  @DF-RHF Final Energy:  -426.16412489111838
    Total Energy =                       -426.1641248911187176
  @DF-RHF Final Energy:  -426.16581407434160
    Total Energy =                       -426.1658140743417107
  @DF-RHF Final Energy:  -426.16709279642851
    Total Energy =                       -426.1670927964285056
  @DF-RHF Final Energy:  -426.16773832317472
    Total Energy =                       -426.1677383231747172
  @DF-RHF Final Energy:  -426.16809093851134
    Total Energy =                       -426.1680909385108862
  @DF-RHF Final Energy:  -426.16818412794214
    Total Energy =                       -426.1681841279421405
  @DF-RHF Final Energy:  -426.16825468262653
    Total Energy =                       -426.1682546826270936
  @DF-RHF Final Energy:  -426.16834804886639
    Total Energy =                       -426.1683480488666191
  @DF-RHF Final Energy:  -426.16867380255985
    Total Energy =                       -426.1686738025598515
  @DF-RHF Final Energy:  -426.16881455960140
    Total Energy =                       -426.1688145596010600
  Basis Set: 6-31G*
  Basis Set:
  @DF-RHF Final Energy:  -426.16886850771550
    Total Energy =                       -426.1688685077156151
  Basis Set: 6-31G*
  Basis Set:
  Basis Set: 6-31G*
  Basis Set:
  @DF-RHF Final Energy:  -426.16888355862818
    Total Energy =                       -426.1688835586276127
  Basis Set: 6-31G*
  Basis Set:
  Basis Set: 6-31G*
  Basis Set:
  @DF-RHF Final Energy:  -426.16888542076993
    Total Energy =                       -426.1688854207702661
  Basis Set: 6-31G*
  Basis Set:
  Charge       = 0
  Multiplicity = 1
  Basis Set: 6-31G*
  Basis Set:

    Orbital Energies (a.u.)
    -----------------------

    Doubly Occupied:

       1A    -20.549603     2A    -11.324712     3A    -11.231759
       4A    -11.231414     5A    -11.220697     6A    -11.217087
       7A    -11.212606     8A    -11.211853     9A    -11.206794
      10A    -11.206044    11A     -1.395456    12A     -1.087485
      13A     -1.076050    14A     -1.021113    15A     -0.989475
      16A     -0.909870    17A     -0.865696    18A     -0.808190
      19A     -0.789800    20A     -0.721611    21A     -0.674819
      22A     -0.638417    23A     -0.632311    24A     -0.615163
      25A     -0.605544    26A     -0.584843    27A     -0.577623
      28A     -0.573930    29A     -0.543902    30A     -0.523628
      31A     -0.521209    32A     -0.509826    33A     -0.495752
      34A     -0.479249    35A     -0.471446    36A     -0.467242
      37A     -0.466635    38A     -0.458937    39A     -0.456992
      40A     -0.393472

  @DF-RHF Final Energy:  -426.16888545149845

   => Energetics <=

    Nuclear Repulsion Energy =            539.3926659640239905
    One-Electron Energy =               -1647.1865900919437991
    Two-Electron Energy =                 681.6250386764213545
    DFT Exchange-Correlation Energy =       0.0000000000000000
    Empirical Dispersion Energy =           0.0000000000000000
    PCM Polarization Energy =               0.0000000000000000
    EFP Energy =                            0.0000000000000000
    Total Energy =                       -426.1688854514984541
    Molecular point group: c1
  Basis Set: 6-31G*
  Basis Set:

  -Total Gradient:
     Atom            X                  Y                   Z
    ------   -----------------  -----------------  -----------------
       1       -0.000005462157    -0.000009809846    -0.000001204278
       2        0.000002653433    -0.000015269599     0.000000261346
       3        0.000005065696     0.000001636388    -0.000002063711
       4       -0.000005758263     0.000002572961     0.000010069357
       5        0.000007436028    -0.000001675534    -0.000004092859
       6        0.000023391751     0.000006093824    -0.000024313722
       7       -0.000014739735     0.000019539589    -0.000010906403
       8       -0.000001934273     0.000009821437     0.000010350141
       9       -0.000062658206    -0.000049336276     0.000054617029
      10       -0.000004810158     0.000001842173     0.000010974507
      11        0.000008266188     0.000003773255    -0.000020656746
      12       -0.004193749860     0.001186655081    -0.000075221002
      13        0.000012629654     0.000001312281    -0.000016926580
      14        0.000013595379     0.000015137038    -0.000014509008
      15        0.004860315962    -0.001479704877     0.000244647332
      16        0.000008128863    -0.000005508699     0.000005266170
      17        0.004972369280    -0.000713710482    -0.000943155479
      18       -0.000006577700     0.000002616514     0.000010520617
      19        0.000003360447     0.000005131484     0.000008806217
      20       -0.000013074371    -0.000032085840    -0.000009251747
      21       -0.005614063331     0.001013467536     0.000766068667
      22       -0.000003629347    -0.000000025336    -0.000003032514
      23        0.000014515423     0.000000925763    -0.000004325617
      24        0.000008590900     0.000002864812     0.000008921013
      25       -0.000007946906     0.000016736450    -0.000018476881
      26       -0.000004001711    -0.000003776200     0.000018483379
      27       -0.000011114154     0.000013363984    -0.000000286684
      28        0.000009201168     0.000007412123    -0.000000562542

  **** Optimization is complete! (in 20 steps) ****
    Final optimized geometry and variables:
    Molecular point group: c1

    Geometry (in Angstrom), charge = 0, multiplicity = 1:

    H            2.820404739089     1.339554069300     4.179735365987
    C            1.760243097454     1.349824346254     3.946438259187
    C            1.527497149635     1.410363590474     2.437390699694
    H            1.319171941858     0.453716973759     4.372853092042
    H            1.319412679285     2.207105282379     4.448011838464
    C            0.041201832424     1.432849793219     2.073351907452
    H            2.002026146172     0.555913768533     1.966424031157
    H            2.009258098672     2.300081379875     2.034905180289
    C           -0.222592314049     1.502173225680     0.570140779577
    H           -0.445215860924     0.551432885543     2.476873151811
    H           -0.426561993626     2.295084814922     2.543104219008
    C            0.079709359537     0.221247636094    -0.188840816928
    H           -1.272568362026     1.724733201027     0.380965254371
    H            0.333110552345     2.319095027637     0.113401530885
    C            0.139173437947     0.341415355723    -1.702759770170
    O            0.273844043104    -0.816229635698     0.369972369119
    C           -0.195969741302    -0.930143888649    -2.490586211460
    H            1.146289711058     0.678308474577    -1.945115039392
    H           -0.521658400356     1.148883222867    -2.009720334899
    C           -1.521573301677    -1.591927402265    -2.094699367811
    H           -0.286454778721    -0.644388175264    -3.536037158796
    H            0.612285804933    -1.648209131040    -2.406237253587
    C           -1.880844262680    -2.758052624121    -3.015264985887
    H           -2.317578725177    -0.848900610255    -2.132360098268
    H           -1.468167983323    -1.944049796151    -1.072480390822
    H           -1.983166522182    -2.432393609909    -4.046874662674
    H           -1.114987016696    -3.527836740686    -2.986072603980
    H           -2.819296992586    -3.215876526695    -2.718460802654

  Mulliken Charges: (a.u.)
   Center  Symbol    Alpha    Beta     Spin     Total
       1     H     0.41930  0.41930  0.00000  0.16141
       2     C     3.24014  3.24014  0.00000 -0.48028
       3     C     3.15648  3.15648  0.00000 -0.31297
       4     H     0.41841  0.41841  0.00000  0.16319
       5     H     0.42361  0.42361  0.00000  0.15278
       6     C     3.14939  3.14939  0.00000 -0.29878
       7     H     0.40957  0.40957  0.00000  0.18086
       8     H     0.42763  0.42763  0.00000  0.14474
       9     C     3.21209  3.21209  0.00000 -0.42417
      10     H     0.40757  0.40757  0.00000  0.18485
      11     H     0.42162  0.42162  0.00000  0.15677
      12     C     2.72882  2.72882  0.00000  0.54236
      13     H     0.40462  0.40462  0.00000  0.19075
      14     H     0.41080  0.41080  0.00000  0.17840
      15     C     3.20933  3.20933  0.00000 -0.41865
      16     O     4.27095  4.27095  0.00000 -0.54191
      17     C     3.14519  3.14519  0.00000 -0.29037
      18     H     0.40242  0.40242  0.00000  0.19516
      19     H     0.41361  0.41361  0.00000  0.17279
      20     C     3.16179  3.16179  0.00000 -0.32358
      21     H     0.42137  0.42137  0.00000  0.15725
      22     H     0.41148  0.41148  0.00000  0.17704
      23     C     3.24014  3.24014  0.00000 -0.48028
      24     H     0.42892  0.42892  0.00000  0.14215
      25     H     0.40232  0.40232  0.00000  0.19535
      26     H     0.42400  0.42400  0.00000  0.15200
      27     H     0.41972  0.41972  0.00000  0.16055
      28     H     0.41871  0.41871  0.00000  0.16258

   Total alpha = 40.00000, Total beta = 40.00000, Total charge = -0.00000
