                              Psi4 1.0.54 Driver

  ==> Input File <==

--------------------------------------------------------------------------
set {
	reference rhf
	basis cc-pvtz
}

set_num_threads( 4 )
memory 2 gb

molecule MOL {
0 1

H	 2.625218	 -1.524583	 0.978199
O	 2.824271	 -1.154299	 0.131461
C	 2.076458	 -0.067370	 -0.038225
C	 0.626018	 -0.337582	 0.258241
O	 2.538288	 0.965419	 -0.381593
C	 -0.267326	 0.883135	 0.076490
H	 0.325620	 -1.161483	 -0.378003
H	 0.574537	 -0.713685	 1.275261
C	 -1.726822	 0.642622	 0.463839
H	 -0.210803	 1.217591	 -0.953497
H	 0.129920	 1.693110	 0.675679
C	 -2.480891	 -0.340606	 -0.429852
H	 -2.243098	 1.597649	 0.438609
H	 -1.776542	 0.301208	 1.495542
C	 -3.955933	 -0.460128	 -0.060472
H	 -2.393755	 -0.020485	 -1.464726
H	 -2.024244	 -1.323637	 -0.374360
H	 -4.467673	 -1.160944	 -0.709827
H	 -4.458917	 0.497287	 -0.144505
H	 -4.076458	 -0.806900	 0.960497

	symmetry c1
}
set optking {
	frozen_dihedral = ("
		1 2 3 5
	")
}

ee,wfn = optimize('scf', return_wfn=True)
oeprop( wfn, 'DIPOLE', 'QUADRUPOLE', 'MULLIKEN_CHARGES')
f=open( 'psi4out.xyz', 'w' )
f.write( "20  " )
f.write( str(ee) + "\n" )
f.write( MOL.save_string_xyz() )
f.close()
--------------------------------------------------------------------------

    Molecular point group: c1
  Charge       = 0
  Multiplicity = 1
  Basis Set: CC-PVTZ
  Basis Set:
  @DF-RHF Final Energy:  -384.07748619782342
    Total Energy =                       -384.0774861978228500
    Molecular point group: c1
  Basis Set: CC-PVTZ
  Basis Set:
  Basis Set: CC-PVTZ
  Basis Set:
  @DF-RHF Final Energy:  -384.07878095850117
    Total Energy =                       -384.0787809585015111
  Basis Set: CC-PVTZ
  Basis Set:
  Basis Set: CC-PVTZ
  Basis Set:
  @DF-RHF Final Energy:  -384.07880997592929
    Total Energy =                       -384.0788099759291754
  Basis Set: CC-PVTZ
  Basis Set:
  Basis Set: CC-PVTZ
  Basis Set:
  @DF-RHF Final Energy:  -384.07887699198318
    Total Energy =                       -384.0788769919832930
  Basis Set: CC-PVTZ
  Basis Set:
  Basis Set: CC-PVTZ
  Basis Set:
  @DF-RHF Final Energy:  -384.07894316113044
    Total Energy =                       -384.0789431611302689
  Basis Set: CC-PVTZ
  Basis Set:
  Charge       = 0
  Multiplicity = 1
  Basis Set: CC-PVTZ
  Basis Set:

    Orbital Energies (a.u.)
    -----------------------

    Doubly Occupied:

       1A    -20.593555     2A    -20.544431     3A    -11.373231
       4A    -11.245944     5A    -11.224962     6A    -11.222425
       7A    -11.221647     8A    -11.213370     9A     -1.465855
      10A     -1.372578    11A     -1.100763    12A     -1.043582
      13A     -0.960655    14A     -0.866640    15A     -0.825547
      16A     -0.790680    17A     -0.719411    18A     -0.673441
      19A     -0.663264    20A     -0.637653    21A     -0.620087
      22A     -0.594413    23A     -0.563888    24A     -0.553108
      25A     -0.549711    26A     -0.513544    27A     -0.501850
      28A     -0.489778    29A     -0.473625    30A     -0.470911
      31A     -0.462220    32A     -0.444693

  @DF-RHF Final Energy:  -384.07894398810873

   => Energetics <=

    Nuclear Repulsion Energy =            376.1722336205104398
    One-Electron Energy =               -1268.5074322497505364
    Two-Electron Energy =                 508.2562546411317044
    DFT Exchange-Correlation Energy =       0.0000000000000000
    Empirical Dispersion Energy =           0.0000000000000000
    PCM Polarization Energy =               0.0000000000000000
    EFP Energy =                            0.0000000000000000
    Total Energy =                       -384.0789439881083354
    Molecular point group: c1
  Basis Set: CC-PVTZ
  Basis Set:

  -Total Gradient:
     Atom            X                  Y                   Z
    ------   -----------------  -----------------  -----------------
       1        0.004746569327     0.003995496056     0.002696006245
       2       -0.005634912613    -0.004315660502    -0.000935221258
       3       -0.000012999762    -0.001250235433    -0.007348671832
       4       -0.000018942845    -0.000031965907    -0.000077604772
       5        0.000896984848     0.001574009575     0.005593098139
       6        0.000006685303     0.000034219842     0.000022188583
       7       -0.000010750047    -0.000000127473     0.000028403683
       8        0.000012013293     0.000015692196     0.000032595381
       9       -0.000012013349     0.000001258324    -0.000009463239
      10        0.000002839801     0.000007061219    -0.000009142758
      11       -0.000001253722    -0.000018660588    -0.000005603937
      12        0.000016778190    -0.000017101321     0.000019339449
      13       -0.000006105161     0.000002301806    -0.000002347575
      14        0.000000579001     0.000002445285     0.000002629368
      15       -0.000001858042     0.000011967857    -0.000004606271
      16        0.000004902275    -0.000002423623     0.000000957603
      17        0.000015648113    -0.000013223010    -0.000003953547
      18       -0.000000366168     0.000006592528    -0.000004918214
      19       -0.000004284336     0.000004397661     0.000005818222
      20        0.000000485902    -0.000006044495     0.000000496728

  **** Optimization is complete! (in 6 steps) ****
    Final optimized geometry and variables:
    Molecular point group: c1

    Geometry (in Angstrom), charge = 0, multiplicity = 1:

    H            2.762866084406    -1.549508471764     0.954862453465
    O            2.892113650853    -1.136933859475     0.118013922437
    C            2.084054291588    -0.068703976701    -0.046878416386
    C            0.627734391502    -0.338686133282     0.247953001749
    O            2.521486230057     0.961904822691    -0.400605556840
    C           -0.265465440717     0.886088119937     0.094373978830
    H            0.323783883538    -1.147613488547    -0.406304763419
    H            0.561350221411    -0.734313225238     1.259751547305
    C           -1.726646390298     0.639029097361     0.471379683458
    H           -0.203495688486     1.242896461451    -0.927299761877
    H            0.131967345039     1.681412293564     0.712878688899
    C           -2.479901302670    -0.320556147319    -0.448465806681
    H           -2.240498814314     1.595550769290     0.467330714200
    H           -1.781453237146     0.273646679823     1.494843218272
    C           -3.955438476708    -0.449460915005    -0.084011093313
    H           -2.391244626543     0.026359176287    -1.474405969820
    H           -2.023525020645    -1.305013553776    -0.418615860400
    H           -4.465976101966    -1.134209977667    -0.751097616700
    H           -4.458491143845     0.509566692342    -0.145437782614
    H           -4.077622274987    -0.821059463872     0.928048094027

  Mulliken Charges: (a.u.)
   Center  Symbol    Alpha    Beta     Spin     Total
       1     H     0.38889  0.38889  0.00000  0.22222
       2     O     4.16023  4.16023  0.00000 -0.32046
       3     C     2.80090  2.80090  0.00000  0.39821
       4     C     3.12495  3.12495  0.00000 -0.24990
       5     O     4.16506  4.16506  0.00000 -0.33012
       6     C     3.09585  3.09585  0.00000 -0.19170
       7     H     0.43394  0.43394  0.00000  0.13213
       8     H     0.45173  0.45173  0.00000  0.09655
       9     C     3.09954  3.09954  0.00000 -0.19909
      10     H     0.44226  0.44226  0.00000  0.11547
      11     H     0.43879  0.43879  0.00000  0.12242
      12     C     3.08687  3.08687  0.00000 -0.17373
      13     H     0.44481  0.44481  0.00000  0.11039
      14     H     0.45469  0.45469  0.00000  0.09061
      15     C     3.14942  3.14942  0.00000 -0.29883
      16     H     0.45130  0.45130  0.00000  0.09740
      17     H     0.45522  0.45522  0.00000  0.08956
      18     H     0.44725  0.44725  0.00000  0.10551
      19     H     0.45309  0.45309  0.00000  0.09381
      20     H     0.45521  0.45521  0.00000  0.08957

   Total alpha = 32.00000, Total beta = 32.00000, Total charge = -0.00000

*** Psi4 exiting successfully. Buy a developer a beer!
