  ==> Input File <==

--------------------------------------------------------------------------
set {
	reference rhf
	basis 6-31G*
}

set_num_threads( 4 )
memory 2 gb

molecule MOL {
0 1

H	 2.073744	 -0.975211	 -0.644674
C	 1.265242	 -1.517834	 -1.149339
C	 -0.033502	 -0.763630	 -1.273345
O	 1.447760	 -2.620511	 -1.552972
C	 -0.558097	 -0.297372	 0.091132
H	 -0.750768	 -1.402325	 -1.775420
H	 0.145877	 0.104525	 -1.906559
C	 -1.850991	 0.512573	 -0.019058
H	 -0.728122	 -1.164478	 0.725160
H	 0.201564	 0.303770	 0.587521
C	 -3.096943	 -0.368295	 -0.099594
H	 -1.800724	 1.150330	 -0.898172
H	 -1.931651	 1.177355	 0.838044
H	 -3.060452	 -1.020287	 -0.967456
H	 -3.996858	 0.233488	 -0.175704
H	 -3.191959	 -0.995686	 0.782074

	symmetry c1
}
set optking {
	frozen_dihedral = ("
		9 5 8 12
	")
}

ee = optimize('scf')
oeprop('DIPOLE', 'QUADRUPOLE', 'MULLIKEN_CHARGES')
f=open( 'psi4out.xyz', 'w' )
f.write( "16  " )
f.write( str(ee) + "\n" )
f.write( MOL.save_string_xyz() )
f.close()
--------------------------------------------------------------------------

    Molecular point group: c1
  Charge       = 0
  Multiplicity = 1
  Basis Set: 6-31G*
  Basis Set:
  @DF-RHF Final Energy:  -270.01717000573257
    Total Energy =                       -270.0171700057326234
    Molecular point group: c1
  Basis Set: 6-31G*
  Basis Set:
  Basis Set: 6-31G*
  Basis Set:
  @DF-RHF Final Energy:  -270.01721937292757
    Total Energy =                       -270.0172193729273999
  Basis Set: 6-31G*
  Basis Set:
  Basis Set: 6-31G*
  Basis Set:
  @DF-RHF Final Energy:  -270.01709996771513
    Total Energy =                       -270.0170999677150121
  Basis Set: 6-31G*
  Basis Set:
  Basis Set: 6-31G*
  Basis Set:
  @DF-RHF Final Energy:  -270.01734449291769
    Total Energy =                       -270.0173444929175730
  Basis Set: 6-31G*
  Basis Set:
  Basis Set: 6-31G*
  Basis Set:
  @DF-RHF Final Energy:  -270.01735637030788
    Total Energy =                       -270.0173563703078798
  Basis Set: 6-31G*
  Basis Set:
  Basis Set: 6-31G*
  Basis Set:
  @DF-RHF Final Energy:  -270.01735779397654
    Total Energy =                       -270.0173577939765437
  Basis Set: 6-31G*
  Basis Set:
  Basis Set: 6-31G*
  Basis Set:
  @DF-RHF Final Energy:  -270.01735981253876
    Total Energy =                       -270.0173598125385865
  Basis Set: 6-31G*
  Basis Set:
  Charge       = 0
  Multiplicity = 1
  Basis Set: 6-31G*
  Basis Set:

    Orbital Energies (a.u.)
    -----------------------

    Doubly Occupied:

       1A    -20.562521     2A    -11.326460     3A    -11.236792
       4A    -11.235033     5A    -11.229393     6A    -11.217517
       7A     -1.402253     8A     -1.095823     9A     -1.015856
      10A     -0.909373    11A     -0.810209    12A     -0.792662
      13A     -0.677189    14A     -0.646656    15A     -0.623265
      16A     -0.611863    17A     -0.580279    18A     -0.546517
      19A     -0.538205    20A     -0.506094    21A     -0.486931
      22A     -0.479545    23A     -0.474695    24A     -0.409364

  @DF-RHF Final Energy:  -270.01736054073478

   => Energetics <=

    Nuclear Repulsion Energy =            231.4173949115458129
    One-Electron Energy =                -824.0405218814150885
    Two-Electron Energy =                 322.6057664291344054
    DFT Exchange-Correlation Energy =       0.0000000000000000
    Empirical Dispersion Energy =           0.0000000000000000
    PCM Polarization Energy =               0.0000000000000000
    EFP Energy =                            0.0000000000000000
    Total Energy =                       -270.0173605407348987
    Molecular point group: c1
  Basis Set: 6-31G*
  Basis Set:

  -Total Gradient:
     Atom            X                  Y                   Z
    ------   -----------------  -----------------  -----------------
       1        0.000003387256    -0.000003754692    -0.000015931057
       2       -0.000017633283    -0.000025496032     0.000051853582
       3        0.000019597921     0.000038118981    -0.000020404240
       4        0.000027223931    -0.000006337607    -0.000025113938
       5        0.000555125699     0.001379154938     0.002421337294
       6       -0.000026324502     0.000000403764     0.000011787855
       7       -0.000004246722    -0.000003547252     0.000009379915
       8        0.001301265894     0.002180879578     0.001374528173
       9       -0.000756083402    -0.001524854778    -0.002328803668
      10       -0.000009309914     0.000035843954     0.000040810875
      11        0.000022794174     0.000005609760     0.000039369576
      12       -0.001145709142    -0.002130203701    -0.001579452727
      13       -0.000011251772     0.000045917620     0.000024996682
      14        0.000038455754     0.000005221448    -0.000021118355
      15       -0.000001864312     0.000009629155     0.000014521152
      16        0.000004572415    -0.000006585136     0.000002238885

  **** Optimization is complete! (in 8 steps) ****
    Final optimized geometry and variables:
    Molecular point group: c1

    Geometry (in Angstrom), charge = 0, multiplicity = 1:

    H            2.557154847092    -0.133051108922     0.023313022096
    C            1.742960717386    -0.668808528198    -0.479372876058
    C            0.452853618451     0.099183566941    -0.608154178420
    O            1.912692910956    -1.776597140000    -0.874714027376
    C           -0.064634504896     0.575498604509     0.758479278062
    H           -0.266424577843    -0.534217936469    -1.112758271132
    H            0.643593516322     0.964801048358    -1.241187137663
    C           -1.373965846345     1.372526872769     0.659525832006
    H           -0.220044350835    -0.296762674767     1.388907727781
    H            0.700777669081     1.182491018760     1.235113697566
    C           -2.617468183171     0.485700679362     0.564354638463
    H           -1.338357095458     2.015942304144    -0.216324084119
    H           -1.467915038702     2.021260678495     1.525226084641
    H           -2.578571502611    -0.169532380504    -0.300376625073
    H           -3.516595413156     1.087597406969     0.478425492146
    H           -2.719714507249    -0.138176081991     1.447386883876

  Mulliken Charges: (a.u.)
   Center  Symbol    Alpha    Beta     Spin     Total
       1     H     0.43216  0.43216  0.00000  0.13569
       2     C     2.82988  2.82988  0.00000  0.34023
       3     C     3.20951  3.20951  0.00000 -0.41902
       4     O     4.23705  4.23705  0.00000 -0.47411
       5     C     3.16663  3.16663  0.00000 -0.33327
       6     H     0.39863  0.39863  0.00000  0.20274
       7     H     0.40988  0.40988  0.00000  0.18023
       8     C     3.15391  3.15391  0.00000 -0.30781
       9     H     0.41253  0.41253  0.00000  0.17493
      10     H     0.41668  0.41668  0.00000  0.16664
      11     C     3.24172  3.24172  0.00000 -0.48344
      12     H     0.42045  0.42045  0.00000  0.15911
      13     H     0.41619  0.41619  0.00000  0.16763
      14     H     0.41877  0.41877  0.00000  0.16245
      15     H     0.41686  0.41686  0.00000  0.16627
      16     H     0.41913  0.41913  0.00000  0.16173

   Total alpha = 24.00000, Total beta = 24.00000, Total charge =  0.00000
