  ==> Input File <==

--------------------------------------------------------------------------
set {
	reference rhf
	basis 6-31G*
}

set_num_threads( 1 )
memory 2 gb

molecule MOL {
0 1

O	 2.862325	 1.357334	 0.000267
C	 2.843464	 0.164689	 -0.000222
C	 1.546494	 -0.624492	 -0.000609
C	 4.124123	 -0.644674	 -0.000428
C	 0.291004	 0.242674	 0.000989
H	 1.557904	 -1.283758	 -0.867573
H	 1.558622	 -1.285963	 0.864672
C	 -0.994322	 -0.586602	 0.000262
H	 0.309117	 0.896430	 -0.865270
H	 0.309661	 0.894078	 0.869017
C	 -2.259874	 0.272531	 0.000494
H	 -1.004862	 -1.240012	 -0.870939
H	 -1.005220	 -1.241071	 0.870675
C	 -3.480386	 -0.447672	 0.576402
H	 -2.478089	 0.591306	 -1.017241
H	 -2.077076	 1.181556	 0.570805
C	 -4.740652	 0.416853	 0.573040
H	 -3.664825	 -1.355900	 0.006378
H	 -3.264007	 -0.765482	 1.594261
H	 -5.003161	 0.723138	 -0.435637
H	 -5.588313	 -0.121045	 0.986363
H	 -4.599922	 1.317178	 1.164441
H	 4.165367	 -1.288615	 -0.874074
H	 4.976217	 0.020734	 -0.001915
H	 4.166763	 -1.286207	 0.874930

	symmetry c1
}
set optking {
	frozen_dihedral = ("
		9 5 8 12,
		15 11 14 18,
		1 2 3 6,
		9 5 3 6
	")
}

ee = energy('scf')
oeprop('DIPOLE', 'QUADRUPOLE', 'MULLIKEN_CHARGES')
f=open( 'psi4out.xyz', 'w' )
f.write( "25  " )
f.write( str(ee) + "\n" )
f.write( MOL.save_string_xyz() )
f.close()
--------------------------------------------------------------------------

    Molecular point group: c1

    Geometry (in Angstrom), charge = 0, multiplicity = 1:

       Center              X                  Y                   Z               Mass
    ------------   -----------------  -----------------  -----------------  -----------------
           O          2.846652719810     1.334283085061    -0.130038446609    15.994914619560
           C          2.827791719810     0.141638085061    -0.130527446609    12.000000000000
           C          1.530821719810    -0.647542914939    -0.130914446609    12.000000000000
           C          4.108450719810    -0.667724914939    -0.130733446609    12.000000000000
           C          0.275331719810     0.219623085061    -0.129316446609    12.000000000000
           H          1.542231719810    -1.306808914939    -0.997878446609     1.007825032070
           H          1.542949719810    -1.309013914939     0.734366553391     1.007825032070
           C         -1.009994280190    -0.609652914939    -0.130043446609    12.000000000000
           H          0.293444719810     0.873379085061    -0.995575446609     1.007825032070
           H          0.293988719810     0.871027085061     0.738711553391     1.007825032070
           C         -2.275546280190     0.249480085061    -0.129811446609    12.000000000000
           H         -1.020534280190    -1.263062914939    -1.001244446609     1.007825032070
           H         -1.020892280190    -1.264121914939     0.740369553391     1.007825032070
           C         -3.496058280190    -0.470722914939     0.446096553391    12.000000000000
           H         -2.493761280190     0.568255085061    -1.147546446609     1.007825032070
           H         -2.092748280190     1.158505085061     0.440499553391     1.007825032070
           C         -4.756324280190     0.393802085061     0.442734553391    12.000000000000
           H         -3.680497280190    -1.378950914939    -0.123927446609     1.007825032070
           H         -3.279679280190    -0.788532914939     1.463955553391     1.007825032070
           H         -5.018833280190     0.700087085061    -0.565942446609     1.007825032070
           H         -5.603985280190    -0.144095914939     0.856057553391     1.007825032070
           H         -4.615594280190     1.294127085061     1.034135553391     1.007825032070
           H          4.149694719810    -1.311665914939    -1.004379446609     1.007825032070
           H          4.960544719810    -0.002316914939    -0.132220446609     1.007825032070
           H          4.151090719810    -1.309257914939     0.744624553391     1.007825032070

  Charge       = 0
  Multiplicity = 1
  Basis Set: 6-31G*
  Basis Set:

    Orbital Energies (a.u.)
    -----------------------

    Doubly Occupied:

       1A    -20.550464     2A    -11.326285     3A    -11.231731
       4A    -11.228316     5A    -11.217040     6A    -11.216141
       7A    -11.215461     8A    -11.212937     9A    -11.208103
      10A     -1.395764    11A     -1.093635    12A     -1.056208
      13A     -1.014419    14A     -0.969161    15A     -0.890528
      16A     -0.814709    17A     -0.790658    18A     -0.729978
      19A     -0.660064    20A     -0.651903    21A     -0.632469
      22A     -0.623346    23A     -0.597032    24A     -0.583731
      25A     -0.566300    26A     -0.560978    27A     -0.539348
      28A     -0.527952    29A     -0.511225    30A     -0.489301
      31A     -0.487816    32A     -0.475113    33A     -0.463849
      34A     -0.459919    35A     -0.449949    36A     -0.399371

  @DF-RHF Final Energy:  -387.13459510819411

   => Energetics <=

    Nuclear Repulsion Energy =            438.7273693919628954
    One-Electron Energy =               -1394.0415995227360781
    Two-Electron Energy =                 568.1796350225818060
    DFT Exchange-Correlation Energy =       0.0000000000000000
    Empirical Dispersion Energy =           0.0000000000000000
    PCM Polarization Energy =               0.0000000000000000
    EFP Energy =                            0.0000000000000000
    Total Energy =                       -387.1345951081914336

  Mulliken Charges: (a.u.)
   Center  Symbol    Alpha    Beta     Spin     Total
       1     O     4.26120  4.26120  0.00000 -0.52240
       2     C     2.73570  2.73570  0.00000  0.52860
       3     C     3.21104  3.21104  0.00000 -0.42208
       4     C     3.28663  3.28663  0.00000 -0.57327
       5     C     3.14909  3.14909  0.00000 -0.29817
       6     H     0.41002  0.41002  0.00000  0.17996
       7     H     0.40997  0.40997  0.00000  0.18007
       8     C     3.15459  3.15459  0.00000 -0.30918
       9     H     0.41196  0.41196  0.00000  0.17608
      10     H     0.41200  0.41200  0.00000  0.17600
      11     C     3.15164  3.15164  0.00000 -0.30328
      12     H     0.42361  0.42361  0.00000  0.15277
      13     H     0.42452  0.42452  0.00000  0.15097
      14     C     3.15241  3.15241  0.00000 -0.30481
      15     H     0.42187  0.42187  0.00000  0.15625
      16     H     0.42123  0.42123  0.00000  0.15754
      17     C     3.23960  3.23960  0.00000 -0.47919
      18     H     0.42352  0.42352  0.00000  0.15297
      19     H     0.42319  0.42319  0.00000  0.15361
      20     H     0.42161  0.42161  0.00000  0.15678
      21     H     0.41959  0.41959  0.00000  0.16083
      22     H     0.42110  0.42110  0.00000  0.15781
      23     H     0.40874  0.40874  0.00000  0.18252
      24     H     0.39648  0.39648  0.00000  0.20704
      25     H     0.40871  0.40871  0.00000  0.18259

   Total alpha = 36.00000, Total beta = 36.00000, Total charge =  0.00000
