  ==> Input File <==

--------------------------------------------------------------------------
set {
	reference rhf
	basis 6-31G*
}

set_num_threads( 4 )
memory 2 gb

molecule MOL {
0 1

H	 -4.123982	 0.078499	 1.365717
O	 -3.404447	 -0.479608	 1.107471
C	 -2.250435	 0.297033	 0.913369
C	 -1.119381	 -0.628640	 0.501553
H	 -2.418592	 1.046758	 0.141395
H	 -1.985576	 0.825050	 1.828458
C	 0.198102	 0.111031	 0.262842
H	 -1.420663	 -1.156956	 -0.398914
H	 -0.992873	 -1.379631	 1.276463
C	 1.331804	 -0.827780	 -0.158768
H	 0.047098	 0.873753	 -0.497175
H	 0.489844	 0.636478	 1.171309
C	 2.723619	 -0.410569	 0.329459
H	 1.342964	 -0.912588	 -1.244120
H	 1.116806	 -1.824343	 0.220779
C	 3.243875	 0.895854	 -0.272975
H	 3.424222	 -1.207124	 0.091250
H	 2.714788	 -0.329854	 1.414619
H	 3.251977	 0.848779	 -1.358681
H	 2.637085	 1.747371	 0.016682
H	 4.259473	 1.094070	 0.055697

	symmetry c1
}
set optking {
	frozen_dihedral = ("
		4 7 10 14
	")
}

ee = optimize('scf')
oeprop('DIPOLE', 'QUADRUPOLE', 'MULLIKEN_CHARGES')
f=open( 'psi4out.xyz', 'w' )
f.write( "21  " )
f.write( str(ee) + "\n" )
f.write( MOL.save_string_xyz() )
f.close()
--------------------------------------------------------------------------

    Molecular point group: c1
  Charge       = 0
  Multiplicity = 1
  Basis Set: 6-31G*
  Basis Set:
  @DF-RHF Final Energy:  -310.21019958197803
    Total Energy =                       -310.2101995819780882
    Molecular point group: c1
  Basis Set: 6-31G*
  Basis Set:
  Basis Set: 6-31G*
  Basis Set:
  @DF-RHF Final Energy:  -310.21035018265093
    Total Energy =                       -310.2103501826510410
  Basis Set: 6-31G*
  Basis Set:
  Basis Set: 6-31G*
  Basis Set:
  @DF-RHF Final Energy:  -310.21051725995403
    Total Energy =                       -310.2105172599540879
  Basis Set: 6-31G*
  Basis Set:
  Basis Set: 6-31G*
  Basis Set:
  @DF-RHF Final Energy:  -310.21042383046830
    Total Energy =                       -310.2104238304681303
  Basis Set: 6-31G*
  Basis Set:
  Basis Set: 6-31G*
  Basis Set:
  @DF-RHF Final Energy:  -310.21054465269924
    Total Energy =                       -310.2105446526992409
  Basis Set: 6-31G*
  Basis Set:
  Basis Set: 6-31G*
  Basis Set:
  @DF-RHF Final Energy:  -310.21054740549374
    Total Energy =                       -310.2105474054934007
  Basis Set: 6-31G*
  Basis Set:
  Charge       = 0
  Multiplicity = 1
  Basis Set: 6-31G*
  Basis Set:

    Orbital Energies (a.u.)
    -----------------------

    Doubly Occupied:

       1A    -20.551870     2A    -11.266970     3A    -11.215920
       4A    -11.214799     5A    -11.213429     6A    -11.210919
       7A    -11.208156     8A     -1.358672     9A     -1.085650
      10A     -1.033225    11A     -0.952959    12A     -0.875840
      13A     -0.808552    14A     -0.778067    15A     -0.692320
      16A     -0.660006    17A     -0.626050    18A     -0.603279
      19A     -0.584415    20A     -0.572788    21A     -0.535767
      22A     -0.521067    23A     -0.508905    24A     -0.487378
      25A     -0.480582    26A     -0.458482    27A     -0.455419
      28A     -0.442567    29A     -0.434127

  @DF-RHF Final Energy:  -310.21054754575096

   => Energetics <=

    Nuclear Repulsion Energy =            312.6486650301064856
    One-Electron Energy =               -1040.0420687253799770
    Two-Electron Energy =                 417.1828561495226495
    DFT Exchange-Correlation Energy =       0.0000000000000000
    Empirical Dispersion Energy =           0.0000000000000000
    PCM Polarization Energy =               0.0000000000000000
    EFP Energy =                            0.0000000000000000
    Total Energy =                       -310.2105475457508419
    Molecular point group: c1
  Basis Set: 6-31G*
  Basis Set:

  -Total Gradient:
     Atom            X                  Y                   Z
    ------   -----------------  -----------------  -----------------
       1       -0.000001697084    -0.000001295095    -0.000000246538
       2       -0.000006672625     0.000000057381     0.000002350736
       3       -0.000003484167    -0.000000789174    -0.000005425480
       4        0.000707564763    -0.000402634144     0.002802697540
       5        0.000002803114     0.000002799736     0.000001326177
       6        0.000000217276    -0.000003076011     0.000000084463
       7       -0.000426259626     0.001395401314    -0.003909383734
       8        0.000014799978     0.000006427283    -0.000003619755
       9        0.000002056061    -0.000004627624     0.000001079807
      10       -0.002794404430    -0.004021983571     0.001292371648
      11       -0.000006183851     0.000036491943     0.000024768801
      12       -0.000063185364    -0.000011351656    -0.000002646991
      13       -0.000007630863    -0.000011540235    -0.000038765817
      14        0.002562415392     0.003043486953    -0.000142836013
      15        0.000042906143    -0.000013730861     0.000007674614
      16       -0.000003980095     0.000001697361    -0.000011201537
      17        0.000011213533     0.000014188503    -0.000016420897
      18       -0.000030441632    -0.000026660984     0.000000206489
      19       -0.000005752860     0.000007321776    -0.000000799324
      20        0.000003883561    -0.000006867403     0.000002892577
      21        0.000001832767    -0.000003315492    -0.000004106767

  **** Optimization is complete! (in 7 steps) ****
    Final optimized geometry and variables:
    Molecular point group: c1

    Geometry (in Angstrom), charge = 0, multiplicity = 1:

    H           -4.156933099951     0.259766103861     0.936850243739
    O           -3.440058802398    -0.310103799640     0.697588473049
    C           -2.277670394014     0.452114872014     0.496329415259
    C           -1.151571201827    -0.491711745137     0.114100575913
    H           -2.432739495059     1.186461949306    -0.292936559340
    H           -2.015505455326     0.997541706550     1.402089269624
    C            0.179586825044     0.228038533096    -0.111051240178
    H           -1.446692231693    -1.031472236016    -0.782115094506
    H           -1.041333746922    -1.231704574729     0.901587395215
    C            1.307577194733    -0.723402765636    -0.547901594886
    H            0.054754032525     1.019873223746    -0.845308468309
    H            0.464756814971     0.719989245256     0.817828306441
    C            2.703763787140    -0.289710750263    -0.085718530023
    H            1.322185738418    -0.791716317277    -1.633686327383
    H            1.109961083990    -1.722040505252    -0.168205796201
    C            3.163904595325     1.046648912943    -0.670198569829
    H            3.418726326477    -1.060208112018    -0.364158249720
    H            2.721773863183    -0.235256346101     1.000935488052
    H            3.166542175442     1.016284167649    -1.756584162317
    H            2.518099662964     1.863849833123    -0.364597890805
    H            4.171296700092     1.287161409372    -0.344604852768

  Mulliken Charges: (a.u.)
   Center  Symbol    Alpha    Beta     Spin     Total
       1     H     0.28118  0.28118  0.00000  0.43765
       2     O     4.37173  4.37173  0.00000 -0.74346
       3     C     2.99012  2.99012  0.00000  0.01977
       4     C     3.16029  3.16029  0.00000 -0.32059
       5     H     0.43284  0.43284  0.00000  0.13433
       6     H     0.43299  0.43299  0.00000  0.13402
       7     C     3.16277  3.16277  0.00000 -0.32554
       8     H     0.41476  0.41476  0.00000  0.17048
       9     H     0.41447  0.41447  0.00000  0.17106
      10     C     3.15294  3.15294  0.00000 -0.30588
      11     H     0.42076  0.42076  0.00000  0.15849
      12     H     0.42319  0.42319  0.00000  0.15363
      13     C     3.15347  3.15347  0.00000 -0.30694
      14     H     0.42212  0.42212  0.00000  0.15576
      15     H     0.41859  0.41859  0.00000  0.16283
      16     C     3.24122  3.24122  0.00000 -0.48243
      17     H     0.42134  0.42134  0.00000  0.15731
      18     H     0.42351  0.42351  0.00000  0.15297
      19     H     0.42235  0.42235  0.00000  0.15529
      20     H     0.42011  0.42011  0.00000  0.15977
      21     H     0.41925  0.41925  0.00000  0.16149

   Total alpha = 29.00000, Total beta = 29.00000, Total charge = -0.00000
