  ==> Input File <==

--------------------------------------------------------------------------
set {
	reference rhf
	basis 6-31G*
}

set_num_threads( 4 )
memory 2 gb

molecule MOL {
0 1

O	 1.214711	 1.306902	 -0.000018
C	 1.122059	 0.121804	 -0.000188
C	 -0.170150	 -0.657997	 -0.000612
O	 2.172624	 -0.688929	 0.000216
C	 -1.412532	 0.227344	 -0.000452
H	 -0.153702	 -1.313099	 -0.867402
H	 -0.153924	 -1.313811	 0.865644
C	 -1.981695	 0.430204	 1.404634
H	 -2.167602	 -0.214576	 -0.643165
H	 -1.167363	 1.188951	 -0.440575
C	 -3.225979	 1.317148	 1.414147
H	 -2.224889	 -0.536362	 1.841308
H	 -1.220275	 0.870800	 2.045091
H	 -4.018676	 0.885991	 0.809672
H	 -3.609440	 1.444643	 2.421609
H	 -3.006739	 2.303379	 1.015497
C	 3.452279	 -0.082609	 0.000533
H	 3.583069	 0.529321	 -0.880332
H	 4.163299	 -0.894027	 0.001117
H	 3.582335	 0.529955	 0.881077

	symmetry c1
}
set optking {
	frozen_dihedral = ("
		9 5 3 6
	")
}

ee = optimize('scf')
oeprop('DIPOLE', 'QUADRUPOLE', 'MULLIKEN_CHARGES')
f=open( 'psi4out.xyz', 'w' )
f.write( "20  " )
f.write( str(ee) + "\n" )
f.write( MOL.save_string_xyz() )
f.close()
--------------------------------------------------------------------------

    Molecular point group: c1
  Charge       = 0
  Multiplicity = 1
  Basis Set: 6-31G*
  Basis Set:
  @DF-RHF Final Energy:  -383.93869692953274
    Total Energy =                       -383.9386969295323979
    Molecular point group: c1
  Basis Set: 6-31G*
  Basis Set:
  Basis Set: 6-31G*
  Basis Set:
  @DF-RHF Final Energy:  -383.93897038936450
    Total Energy =                       -383.9389703893644992
  Basis Set: 6-31G*
  Basis Set:
  Basis Set: 6-31G*
  Basis Set:
  @DF-RHF Final Energy:  -383.93882263813282
    Total Energy =                       -383.9388226381328195
  Basis Set: 6-31G*
  Basis Set:
  Basis Set: 6-31G*
  Basis Set:
  @DF-RHF Final Energy:  -383.93903885399106
    Total Energy =                       -383.9390388539906098
  Basis Set: 6-31G*
  Basis Set:
  Basis Set: 6-31G*
  Basis Set:
  @DF-RHF Final Energy:  -383.93903407604017
    Total Energy =                       -383.9390340760404570
  Basis Set: 6-31G*
  Basis Set:
  Basis Set: 6-31G*
  Basis Set:
  @DF-RHF Final Energy:  -383.93904981713985
    Total Energy =                       -383.9390498171399031
  Basis Set: 6-31G*
  Basis Set:
  Basis Set: 6-31G*
  Basis Set:
  @DF-RHF Final Energy:  -383.93905176782641
    Total Energy =                       -383.9390517678265269
  Basis Set: 6-31G*
  Basis Set:
  Charge       = 0
  Multiplicity = 1
  Basis Set: 6-31G*
  Basis Set:

    Orbital Energies (a.u.)
    -----------------------

    Doubly Occupied:

       1A    -20.604512     2A    -20.546513     3A    -11.373434
       4A    -11.281448     5A    -11.235413     6A    -11.218356
       7A    -11.216194     8A    -11.207616     9A     -1.470368
      10A     -1.363660    11A     -1.086030    12A     -1.022757
      13A     -0.968463    14A     -0.884833    15A     -0.804980
      16A     -0.766917    17A     -0.703593    18A     -0.680649
      19A     -0.672616    20A     -0.629658    21A     -0.605785
      22A     -0.588742    23A     -0.578679    24A     -0.546155
      25A     -0.529782    26A     -0.513235    27A     -0.513178
      28A     -0.476277    29A     -0.469280    30A     -0.462225
      31A     -0.456378    32A     -0.439460

  @DF-RHF Final Energy:  -383.93905230835060

   => Energetics <=

    Nuclear Repulsion Energy =            386.0266545009131960
    One-Electron Energy =               -1288.0970420680271218
    Two-Electron Energy =                 518.1313352587634427
    DFT Exchange-Correlation Energy =       0.0000000000000000
    Empirical Dispersion Energy =           0.0000000000000000
    PCM Polarization Energy =               0.0000000000000000
    EFP Energy =                            0.0000000000000000
    Total Energy =                       -383.9390523083504831
    Molecular point group: c1
  Basis Set: 6-31G*
  Basis Set:

  -Total Gradient:
     Atom            X                  Y                   Z
    ------   -----------------  -----------------  -----------------
       1        0.000027779462    -0.000008830042    -0.000000605710
       2       -0.000038854008    -0.000011258206     0.000004014962
       3        0.002569863341     0.003907280791    -0.003232804350
       4       -0.000003812615     0.000027203296     0.000000153374
       5       -0.002079731903    -0.003169305095     0.004192465395
       6       -0.001810411936    -0.002696656265     0.002008304845
       7       -0.000006558967    -0.000007454605     0.000003334791
       8        0.000033759102     0.000024468547     0.000008000317
       9        0.001286606924     0.001947757272    -0.002980363578
      10        0.000002320294    -0.000007271524    -0.000008422758
      11        0.000000358046    -0.000002518360    -0.000006716039
      12       -0.000002733315     0.000001770448     0.000003541190
      13        0.000000608138     0.000000663064     0.000012297486
      14       -0.000000961121    -0.000000089293    -0.000002311032
      15        0.000004596417    -0.000003680093    -0.000002272658
      16       -0.000000152250     0.000002750804     0.000001653520
      17        0.000006093626    -0.000012881568    -0.000000739683
      18       -0.000000895615     0.000000495688     0.000000897620
      19        0.000012443249     0.000006692374     0.000000444799
      20       -0.000000316865     0.000000862766    -0.000000872492

  **** Optimization is complete! (in 8 steps) ****
    Final optimized geometry and variables:
    Molecular point group: c1

    Geometry (in Angstrom), charge = 0, multiplicity = 1:

    O            1.031132346628     1.047736921203    -0.252209479879
    C            0.941291653414    -0.134620399981    -0.339494907211
    C           -0.346003341674    -0.922343528542    -0.376602289352
    O            1.994304820289    -0.938697605328    -0.405054419870
    C           -1.613144533186    -0.059904328489    -0.358760867160
    H           -0.317199327287    -1.583957162694    -1.236117218982
    H           -0.321072518233    -1.591395947762     0.480571583236
    C           -2.165528480989     0.184539694824     1.045500172161
    H           -2.367503715350    -0.522989347923    -0.989051711948
    H           -1.389566901565     0.895210761145    -0.821109838644
    C           -3.402206232198     1.081017074106     1.046151393398
    H           -2.409079776769    -0.768934362729     1.510389374397
    H           -1.389283542122     0.638861503147     1.656107782038
    H           -4.205006666089     0.642836689450     0.459448114159
    H           -3.775084158411     1.234297311320     2.054009588733
    H           -3.177468154738     2.055950713410     0.623997710345
    C            3.272231020133    -0.329760285336    -0.364977577862
    H            3.396230006497     0.348276474479    -1.197009317046
    H            3.985561914241    -1.136467492347    -0.430394593103
    H            3.405198364583     0.213768375226     0.559353040438

  Mulliken Charges: (a.u.)
   Center  Symbol    Alpha    Beta     Spin     Total
       1     O     4.28613  4.28613  0.00000 -0.57226
       2     C     2.60825  2.60825  0.00000  0.78349
       3     C     3.21119  3.21119  0.00000 -0.42238
       4     O     4.30598  4.30598  0.00000 -0.61196
       5     C     3.15772  3.15772  0.00000 -0.31544
       6     H     0.39699  0.39699  0.00000  0.20602
       7     H     0.39949  0.39949  0.00000  0.20102
       8     C     3.15453  3.15453  0.00000 -0.30906
       9     H     0.41943  0.41943  0.00000  0.16113
      10     H     0.40198  0.40198  0.00000  0.19604
      11     C     3.24079  3.24079  0.00000 -0.48157
      12     H     0.42478  0.42478  0.00000  0.15044
      13     H     0.41499  0.41499  0.00000  0.17003
      14     H     0.42261  0.42261  0.00000  0.15479
      15     H     0.41884  0.41884  0.00000  0.16231
      16     H     0.41778  0.41778  0.00000  0.16444
      17     C     3.09227  3.09227  0.00000 -0.18454
      18     H     0.40884  0.40884  0.00000  0.18232
      19     H     0.40834  0.40834  0.00000  0.18332
      20     H     0.40907  0.40907  0.00000  0.18185

   Total alpha = 32.00000, Total beta = 32.00000, Total charge = -0.00000
