  ==> Input File <==

--------------------------------------------------------------------------
set {
	reference rhf
	basis 6-31G*
}

set_num_threads( 4 )
memory 2 gb

molecule MOL {
0 1

O	 3.064095	 0.522976	 -1.230363
C	 2.614672	 -0.180961	 -0.384460
C	 1.169961	 -0.221285	 0.051401
O	 3.347903	 -1.046386	 0.304773
C	 0.282331	 0.750398	 -0.723234
H	 0.835149	 -1.248215	 -0.051110
H	 1.147885	 -0.006834	 1.116868
C	 -1.165157	 0.797499	 -0.222180
H	 0.298482	 0.488709	 -1.776978
H	 0.714351	 1.742919	 -0.654802
C	 -1.962726	 -0.492985	 -0.431096
H	 -1.674170	 1.607905	 -0.738776
H	 -1.174653	 1.060779	 0.834515
C	 -3.429368	 -0.359731	 -0.016123
H	 -1.910633	 -0.779769	 -1.480315
H	 -1.511484	 -1.307484	 0.130992
C	 -4.234886	 -1.644831	 -0.215598
H	 -3.892271	 0.445358	 -0.584267
H	 -3.482005	 -0.062516	 1.030104
C	 -5.699342	 -1.502204	 0.197593
H	 -4.182519	 -1.943802	 -1.260355
H	 -3.776231	 -2.449713	 0.354999
H	 -6.243703	 -2.428957	 0.044603
H	 -6.196019	 -0.727769	 -0.380126
H	 -5.786470	 -1.236979	 1.247516
C	 4.728119	 -1.109107	 -0.004993
H	 4.882018	 -1.033965	 -1.071845
H	 5.068212	 -2.067527	 0.355250
H	 5.265056	 -0.311663	 0.488280

	symmetry c1
}
set optking {
	frozen_dihedral = ("
		2 4 26 27
	")
}

ee = optimize('scf')
oeprop('DIPOLE', 'QUADRUPOLE', 'MULLIKEN_CHARGES')
f=open( 'psi4out.xyz', 'w' )
f.write( "29  " )
f.write( str(ee) + "\n" )
f.write( MOL.save_string_xyz() )
f.close()
--------------------------------------------------------------------------

    Molecular point group: c1
  Charge       = 0
  Multiplicity = 1
  Basis Set: 6-31G*
  Basis Set:
  @DF-RHF Final Energy:  -501.04339293123212
    Total Energy =                       -501.0433929312321197
    Molecular point group: c1
  Basis Set: 6-31G*
  Basis Set:
  Basis Set: 6-31G*
  Basis Set:
  @DF-RHF Final Energy:  -501.04343705183953
    Total Energy =                       -501.0434370518391916
  Basis Set: 6-31G*
  Basis Set:
  Basis Set: 6-31G*
  Basis Set:
  @DF-RHF Final Energy:  -501.04325717061226
    Total Energy =                       -501.0432571706127192
  Basis Set: 6-31G*
  Basis Set:
  Basis Set: 6-31G*
  Basis Set:
  @DF-RHF Final Energy:  -501.04348870695594
    Total Energy =                       -501.0434887069559409
  Basis Set: 6-31G*
  Basis Set:
  Basis Set: 6-31G*
  Basis Set:
  @DF-RHF Final Energy:  -501.04350129217744
    Total Energy =                       -501.0435012921773250
  Basis Set: 6-31G*
  Basis Set:
  Charge       = 0
  Multiplicity = 1
  Basis Set: 6-31G*
  Basis Set:

    Orbital Energies (a.u.)
    -----------------------

    Doubly Occupied:

       1A    -20.603092     2A    -20.544991     3A    -11.372401
       4A    -11.280299     5A    -11.234536     6A    -11.218925
       7A    -11.217526     8A    -11.215933     9A    -11.215809
      10A    -11.214401    11A    -11.209038    12A     -1.468255
      13A     -1.362671    14A     -1.097951    15A     -1.066726
      16A     -1.019533    17A     -0.977428    18A     -0.928533
      19A     -0.861487    20A     -0.799189    21A     -0.790415
      22A     -0.763688    23A     -0.701049    24A     -0.681526
      25A     -0.672097    26A     -0.650785    27A     -0.628583
      28A     -0.604864    29A     -0.595401    30A     -0.580952
      31A     -0.566963    32A     -0.549368    33A     -0.532954
      34A     -0.528898    35A     -0.516077    36A     -0.511707
      37A     -0.496343    38A     -0.477757    39A     -0.470072
      40A     -0.462357    41A     -0.458869    42A     -0.454410
      43A     -0.441320    44A     -0.435159

  @DF-RHF Final Energy:  -501.04350108531662

   => Energetics <=

    Nuclear Repulsion Energy =            610.0190665418917888
    One-Electron Energy =               -1891.1644575234738568
    Two-Electron Energy =                 780.1018898962652202
    DFT Exchange-Correlation Energy =       0.0000000000000000
    Empirical Dispersion Energy =           0.0000000000000000
    PCM Polarization Energy =               0.0000000000000000
    EFP Energy =                            0.0000000000000000
    Total Energy =                       -501.0435010853168478
    Molecular point group: c1
  Basis Set: 6-31G*
  Basis Set:

  -Total Gradient:
     Atom            X                  Y                   Z
    ------   -----------------  -----------------  -----------------
       1       -0.000024960342     0.000012827657    -0.000003919727
       2       -0.000265441491    -0.000932637756    -0.000906270622
       3        0.000018608933    -0.000017080110    -0.000003814156
       4        0.000394377155     0.001731843205     0.001323501833
       5       -0.000005172634    -0.000008090111    -0.000017095648
       6        0.000027662010     0.000021920937     0.000000672093
       7        0.000008151438     0.000005981554     0.000011077241
       8        0.000004026057    -0.000009968254     0.000006063033
       9       -0.000002840176    -0.000011067523    -0.000004936661
      10       -0.000007994905     0.000003584313    -0.000009181656
      11       -0.000008876241     0.000003269784     0.000000984840
      12        0.000002588708     0.000010338087     0.000009538909
      13        0.000009729306    -0.000016011074     0.000004335832
      14       -0.000000135998     0.000004586484    -0.000005728592
      15        0.000007530300    -0.000009281139    -0.000003169887
      16       -0.000025220769     0.000014561109     0.000003276412
      17       -0.000000262552     0.000000489493    -0.000002123528
      18       -0.000002892032     0.000004001125     0.000005790621
      19        0.000004351064    -0.000005703640     0.000000318256
      20       -0.000001573344     0.000002574978    -0.000006903923
      21        0.000001856732    -0.000003604618     0.000000325221
      22       -0.000000961555     0.000002304564     0.000003162184
      23       -0.000000112896     0.000000727228    -0.000001933884
      24       -0.000001405688     0.000001264245     0.000001192586
      25        0.000001545884    -0.000001536546    -0.000000516341
      26       -0.000277546743    -0.002350745756    -0.000490517998
      27        0.000126186568     0.001549615829     0.000094211201
      28       -0.000012063111     0.000003890454    -0.000000524790
      29        0.000030846298    -0.000008054516    -0.000007812848

  **** Optimization is complete! (in 6 steps) ****
    Final optimized geometry and variables:
    Molecular point group: c1

    Geometry (in Angstrom), charge = 0, multiplicity = 1:

    O            3.133093160305     0.951266796977    -0.993058300436
    C            2.689215418034     0.247284603907    -0.144363568813
    C            1.245122162854     0.203107127946     0.293570687884
    O            3.423852454314    -0.613265978783     0.549957383702
    C            0.353453897505     1.171679353242    -0.480302726256
    H            0.913104854446    -0.824839443809     0.192693823700
    H            1.224341471114     0.418568064901     1.358865745532
    C           -1.093303520377     1.215106953012     0.023196202064
    H            0.368510465596     0.909346562830    -1.533901566544
    H            0.782770762272     2.165463358883    -0.413282016118
    C           -1.889216190476    -0.076068011821    -0.187841883475
    H           -1.604445073459     2.026022288985    -0.490499762620
    H           -1.101561888082     1.475635242377     1.080582777853
    C           -3.356086519005     0.054699888335     0.227125677969
    H           -1.836634035008    -0.361116196529    -1.237510899546
    H           -1.437044952894    -0.890889751403     0.373010315431
    C           -4.160251643841    -1.230739434448     0.024448711412
    H           -3.819686761626     0.860643458383    -0.339228572428
    H           -3.409251115123     0.349414669181     1.274028774284
    C           -5.625150409795    -1.090324976568     0.436840680477
    H           -4.106842592418    -1.527539242818    -1.020874320288
    H           -3.701261427563    -2.036350048307     0.593746681071
    H           -6.168552239307    -2.017246561796     0.281451729491
    H           -6.122095026146    -0.315100469194    -0.139583106721
    H           -5.713301980048    -0.827431617220     1.487263118627
    C            4.801040233190    -0.709121260498     0.232988735368
    H            4.954017468234    -0.659971544629    -0.833635703196
    H            5.135807065263    -1.655731020632     0.627823855362
    H            5.345282043843     0.099339396173     0.703091562513

  Mulliken Charges: (a.u.)
   Center  Symbol    Alpha    Beta     Spin     Total
       1     O     4.28589  4.28589  0.00000 -0.57177
       2     C     2.60466  2.60466  0.00000  0.79068
       3     C     3.20978  3.20978  0.00000 -0.41957
       4     O     4.30809  4.30809  0.00000 -0.61617
       5     C     3.15378  3.15378  0.00000 -0.30757
       6     H     0.39896  0.39896  0.00000  0.20208
       7     H     0.40117  0.40117  0.00000  0.19766
       8     C     3.15663  3.15663  0.00000 -0.31326
       9     H     0.41314  0.41314  0.00000  0.17372
      10     H     0.40875  0.40875  0.00000  0.18250
      11     C     3.15502  3.15502  0.00000 -0.31004
      12     H     0.41826  0.41826  0.00000  0.16349
      13     H     0.42387  0.42387  0.00000  0.15227
      14     C     3.15030  3.15030  0.00000 -0.30060
      15     H     0.42264  0.42264  0.00000  0.15472
      16     H     0.42363  0.42363  0.00000  0.15275
      17     C     3.15145  3.15145  0.00000 -0.30290
      18     H     0.42333  0.42333  0.00000  0.15334
      19     H     0.42397  0.42397  0.00000  0.15206
      20     C     3.23935  3.23935  0.00000 -0.47869
      21     H     0.42281  0.42281  0.00000  0.15437
      22     H     0.42344  0.42344  0.00000  0.15312
      23     H     0.41924  0.41924  0.00000  0.16152
      24     H     0.42155  0.42155  0.00000  0.15691
      25     H     0.42183  0.42183  0.00000  0.15634
      26     C     3.09395  3.09395  0.00000 -0.18790
      27     H     0.40293  0.40293  0.00000  0.19413
      28     H     0.40893  0.40893  0.00000  0.18213
      29     H     0.41266  0.41266  0.00000  0.17467

   Total alpha = 44.00000, Total beta = 44.00000, Total charge = -0.00000
