  ==> Input File <==

--------------------------------------------------------------------------
set {
	reference rhf
	basis 6-31G*
}

set_num_threads( 1 )
memory 2 gb

molecule MOL {
0 1

H	 1.272433	 4.740351	 -1.040501
C	 2.035927	 4.696158	 -0.253898
C	 1.570233	 4.108480	 1.053916
O	 3.134898	 5.095364	 -0.465196
C	 0.899085	 2.739207	 0.878111
H	 2.419056	 4.053020	 1.725580
H	 0.851790	 4.807260	 1.480767
C	 1.860638	 1.643682	 0.410627
H	 0.455480	 2.449425	 1.826017
H	 0.074185	 2.829081	 0.172973
C	 1.180775	 0.282413	 0.250794
H	 2.678293	 1.559845	 1.123549
H	 2.315104	 1.930707	 -0.535743
C	 2.148627	 -0.814315	 -0.201312
H	 0.720018	 0.005882	 1.195762
H	 0.370542	 0.366773	 -0.472249
C	 3.580890	 -0.659131	 0.322722
H	 2.166869	 -0.852443	 -1.289387
H	 1.762857	 -1.776509	 0.128956
C	 4.324889	 0.564933	 -0.213704
H	 4.142010	 -1.551473	 0.056605
H	 3.564836	 -0.624694	 1.410140
H	 4.342616	 0.565491	 -1.300421
H	 3.866655	 1.493402	 0.110242
H	 5.353900	 0.572371	 0.132816

	symmetry c1
}
set optking {
	frozen_dihedral = ("
		6 3 5 8,
		6 3 2 4,
		3 5 8 12,
		12 8 11 14,
		20 17 14 18
	")
}

ee = energy('scf')
oeprop('DIPOLE', 'QUADRUPOLE', 'MULLIKEN_CHARGES')
f=open( 'psi4out.xyz', 'w' )
f.write( "25  " )
f.write( str(ee) + "\n" )
f.write( MOL.save_string_xyz() )
f.close()
--------------------------------------------------------------------------

    Molecular point group: c1

    Geometry (in Angstrom), charge = 0, multiplicity = 1:

       Center              X                  Y                   Z               Mass
    ------------   -----------------  -----------------  -----------------  -----------------
           H         -1.053480690038     2.765903240882    -1.230076085688     1.007825032070
           C         -0.289986690038     2.721710240882    -0.443473085688    12.000000000000
           C         -0.755680690038     2.134032240882     0.864340914312    12.000000000000
           O          0.808984309962     3.120916240882    -0.654771085688    15.994914619560
           C         -1.426828690038     0.764759240882     0.688535914312    12.000000000000
           H          0.093142309962     2.078572240882     1.536004914312     1.007825032070
           H         -1.474123690038     2.832812240882     1.291191914312     1.007825032070
           C         -0.465275690038    -0.330765759118     0.221051914312    12.000000000000
           H         -1.870433690038     0.474977240882     1.636441914312     1.007825032070
           H         -2.251728690038     0.854633240882    -0.016602085688     1.007825032070
           C         -1.145138690038    -1.692034759118     0.061218914312    12.000000000000
           H          0.352379309962    -0.414602759118     0.933973914312     1.007825032070
           H         -0.010809690038    -0.043740759118    -0.725318085688     1.007825032070
           C         -0.177286690038    -2.788762759118    -0.390887085688    12.000000000000
           H         -1.605895690038    -1.968565759118     1.006186914312     1.007825032070
           H         -1.955371690038    -1.607674759118    -0.661824085688     1.007825032070
           C          1.254976309962    -2.633578759118     0.133146914312    12.000000000000
           H         -0.159044690038    -2.826890759118    -1.478962085688     1.007825032070
           H         -0.563056690038    -3.750956759118    -0.060619085688     1.007825032070
           C          1.998975309962    -1.409514759118    -0.403279085688    12.000000000000
           H          1.816096309962    -3.525920759118    -0.132970085688     1.007825032070
           H          1.238922309962    -2.599141759118     1.220564914312     1.007825032070
           H          2.016702309962    -1.408956759118    -1.489996085688     1.007825032070
           H          1.540741309962    -0.481045759118    -0.079333085688     1.007825032070
           H          3.027986309962    -1.402076759118    -0.056759085688     1.007825032070

  Charge       = 0
  Multiplicity = 1
  Basis Set: 6-31G*
  Basis Set:

    Orbital Energies (a.u.)
    -----------------------

    Doubly Occupied:

       1A    -20.562871     2A    -11.326822     3A    -11.235178
       4A    -11.233566     5A    -11.221485     6A    -11.220480
       7A    -11.216616     8A    -11.216002     9A    -11.197711
      10A     -1.402858    11A     -1.109521    12A     -1.068531
      13A     -1.004011    14A     -0.953969    15A     -0.877805
      16A     -0.819308    17A     -0.789627    18A     -0.778661
      19A     -0.669228    20A     -0.663247    21A     -0.633394
      22A     -0.625448    23A     -0.607174    24A     -0.594164
      25A     -0.569604    26A     -0.547279    27A     -0.543943
      28A     -0.522679    29A     -0.515513    30A     -0.497421
      31A     -0.486577    32A     -0.479039    33A     -0.458121
      34A     -0.446655    35A     -0.432338    36A     -0.409559

  @DF-RHF Final Energy:  -387.08939230582473

   => Energetics <=

    Nuclear Repulsion Energy =            462.4779575881290157
    One-Electron Energy =               -1441.2617696238994540
    Two-Electron Energy =                 591.6944197299451389
    DFT Exchange-Correlation Energy =       0.0000000000000000
    Empirical Dispersion Energy =           0.0000000000000000
    PCM Polarization Energy =               0.0000000000000000
    EFP Energy =                            0.0000000000000000
    Total Energy =                       -387.0893923058252994

  Mulliken Charges: (a.u.)
   Center  Symbol    Alpha    Beta     Spin     Total
       1     H     0.43203  0.43203  0.00000  0.13595
       2     C     2.83130  2.83130  0.00000  0.33739
       3     C     3.20875  3.20875  0.00000 -0.41751
       4     O     4.23797  4.23797  0.00000 -0.47594
       5     C     3.16301  3.16301  0.00000 -0.32603
       6     H     0.40041  0.40041  0.00000  0.19917
       7     H     0.40627  0.40627  0.00000  0.18746
       8     C     3.17574  3.17574  0.00000 -0.35148
       9     H     0.41358  0.41358  0.00000  0.17283
      10     H     0.42052  0.42052  0.00000  0.15897
      11     C     3.14922  3.14922  0.00000 -0.29844
      12     H     0.41030  0.41030  0.00000  0.17941
      13     H     0.41173  0.41173  0.00000  0.17654
      14     C     3.15426  3.15426  0.00000 -0.30851
      15     H     0.42172  0.42172  0.00000  0.15656
      16     H     0.42086  0.42086  0.00000  0.15828
      17     C     3.16069  3.16069  0.00000 -0.32138
      18     H     0.42202  0.42202  0.00000  0.15596
      19     H     0.41940  0.41940  0.00000  0.16120
      20     C     3.24597  3.24597  0.00000 -0.49195
      21     H     0.41779  0.41779  0.00000  0.16442
      22     H     0.42371  0.42371  0.00000  0.15258
      23     H     0.42257  0.42257  0.00000  0.15487
      24     H     0.41005  0.41005  0.00000  0.17989
      25     H     0.42013  0.42013  0.00000  0.15975

   Total alpha = 36.00000, Total beta = 36.00000, Total charge =  0.00000
