  ==> Input File <==

--------------------------------------------------------------------------
set {
	reference rhf
	basis 6-31G*
}

set_num_threads( 4 )
memory 2 gb

molecule MOL {
0 1

H	 -2.428262	 1.135069	 1.496702
C	 -1.760116	 1.572041	 2.236146
O	 -0.440101	 1.191169	 2.017433
H	 -1.806186	 2.649369	 2.156237
H	 -2.103007	 1.278145	 3.227346
C	 -0.222336	 -0.182021	 2.096015
C	 1.213683	 -0.481408	 1.734873
H	 -0.419375	 -0.538803	 3.107735
H	 -0.882118	 -0.718071	 1.416793
O	 1.392611	 -0.295398	 0.366430
H	 1.870503	 0.173602	 2.303693
H	 1.445261	 -1.511165	 2.009944
C	 2.706965	 -0.449871	 -0.062409
H	 2.756559	 -0.644779	 -1.131878
H	 3.305899	 0.433456	 0.155466
H	 3.125548	 -1.294566	 0.467107

	symmetry c1
}
set optking {
	frozen_dihedral = ("
		7 10 13 14
	")
}

ee = optimize('scf')
oeprop('DIPOLE', 'QUADRUPOLE', 'MULLIKEN_CHARGES')
f=open( 'psi4out.xyz', 'w' )
f.write( "16  " )
f.write( str(ee) + "\n" )
f.write( MOL.save_string_xyz() )
f.close()
--------------------------------------------------------------------------

    Molecular point group: c1
  Charge       = 0
  Multiplicity = 1
  Basis Set: 6-31G*
  Basis Set:
  @DF-RHF Final Energy:  -306.97559140354196
    Total Energy =                       -306.9755914035418982
    Molecular point group: c1
  Basis Set: 6-31G*
  Basis Set:
  Basis Set: 6-31G*
  Basis Set:
  @DF-RHF Final Energy:  -306.97650800626985
    Total Energy =                       -306.9765080062695688
  Basis Set: 6-31G*
  Basis Set:
  Basis Set: 6-31G*
  Basis Set:
  @DF-RHF Final Energy:  -306.97677520602787
    Total Energy =                       -306.9767752060278099
  Basis Set: 6-31G*
  Basis Set:
  Basis Set: 6-31G*
  Basis Set:
  @DF-RHF Final Energy:  -306.97677644859209
    Total Energy =                       -306.9767764485921475
  Basis Set: 6-31G*
  Basis Set:
  Charge       = 0
  Multiplicity = 1
  Basis Set: 6-31G*
  Basis Set:

    Orbital Energies (a.u.)
    -----------------------

    Doubly Occupied:

       1A    -20.553487     2A    -20.552578     3A    -11.269069
       4A    -11.268358     5A    -11.263461     6A    -11.263395
       7A     -1.387599     8A     -1.369922     9A     -1.030687
      10A     -0.936014    11A     -0.892006    12A     -0.823940
      13A     -0.683824    14A     -0.680154    15A     -0.656461
      16A     -0.634888    17A     -0.630063    18A     -0.596179
      19A     -0.551210    20A     -0.537370    21A     -0.507837
      22A     -0.477291    23A     -0.462422    24A     -0.418940
      25A     -0.410014

  @DF-RHF Final Energy:  -306.97677680316588

   => Energetics <=

    Nuclear Repulsion Energy =            258.7477906339063338
    One-Electron Energy =                -931.7347941136767986
    Two-Electron Energy =                 366.0102266766047023
    DFT Exchange-Correlation Energy =       0.0000000000000000
    Empirical Dispersion Energy =           0.0000000000000000
    PCM Polarization Energy =               0.0000000000000000
    EFP Energy =                            0.0000000000000000
    Total Energy =                       -306.9767768031657624
    Molecular point group: c1
  Basis Set: 6-31G*
  Basis Set:

  -Total Gradient:
     Atom            X                  Y                   Z
    ------   -----------------  -----------------  -----------------
       1       -0.000000934216     0.000000332621     0.000000185491
       2        0.000000281147    -0.000000527622    -0.000001324605
       3       -0.000004759004    -0.000004448009    -0.000004625107
       4        0.000000098191    -0.000000006791    -0.000000051157
       5        0.000000746873    -0.000000405459    -0.000000048849
       6        0.000002917670     0.000010314135     0.000013595981
       7       -0.000355068997    -0.002084393190    -0.000339573174
       8       -0.000005242395    -0.000002568109     0.000005060686
       9        0.000005954622     0.000004756233    -0.000000004686
      10        0.000472119882     0.002333744514     0.000571462622
      11       -0.000003036881    -0.000000481096    -0.000006440838
      12        0.000004277771    -0.000001022708    -0.000002741945
      13        0.000042432431     0.002319015396    -0.000700038728
      14       -0.000154905151    -0.002570776560     0.000464200825
      15       -0.000008073610    -0.000000964845    -0.000002230309
      16        0.000003191670    -0.000002568508     0.000002573794

  **** Optimization is complete! (in 5 steps) ****
    Final optimized geometry and variables:
    Molecular point group: c1

    Geometry (in Angstrom), charge = 0, multiplicity = 1:

    H           -2.907661813281     0.910402492163     0.088674543541
    C           -2.243761496166     1.344117546632     0.833837696931
    O           -0.922929041537     0.961313563595     0.623305930057
    H           -2.287395689940     2.421736955966     0.756671396516
    H           -2.593696909181     1.047841762499     1.821801303519
    C           -0.708166169549    -0.412511723027     0.699841329797
    C            0.729377384672    -0.714122274811     0.346988494030
    H           -0.912834449808    -0.771642814379     1.709241648139
    H           -1.364323835836    -0.945367230468     0.014668659617
    O            0.915344333557    -0.528578711631    -1.021001373604
    H            1.382607511253    -0.060820733191     0.921976851508
    H            0.958027690994    -1.744400395825     0.620811110118
    C            2.231070131427    -0.681966652904    -1.451267941974
    H            2.210603563821    -0.871298839001    -2.516103879527
    H            2.821937493400     0.208118471781    -1.249462635798
    H            2.711666859377    -1.531865051038    -0.969350929509

  Mulliken Charges: (a.u.)
   Center  Symbol    Alpha    Beta     Spin     Total
       1     H     0.42806  0.42806  0.00000  0.14387
       2     C     3.07949  3.07949  0.00000 -0.15898
       3     O     4.30091  4.30091  0.00000 -0.60182
       4     H     0.41130  0.41130  0.00000  0.17739
       5     H     0.43190  0.43190  0.00000  0.13620
       6     C     2.99340  2.99340  0.00000  0.01321
       7     C     2.99355  2.99355  0.00000  0.01290
       8     H     0.43233  0.43233  0.00000  0.13534
       9     H     0.42277  0.42277  0.00000  0.15447
      10     O     4.30206  4.30206  0.00000 -0.60412
      11     H     0.42295  0.42295  0.00000  0.15411
      12     H     0.43177  0.43177  0.00000  0.13645
      13     C     3.07839  3.07839  0.00000 -0.15678
      14     H     0.41310  0.41310  0.00000  0.17381
      15     H     0.42508  0.42508  0.00000  0.14985
      16     H     0.43294  0.43294  0.00000  0.13412

   Total alpha = 25.00000, Total beta = 25.00000, Total charge =  0.00000
