  ==> Input File <==

--------------------------------------------------------------------------
set {
	reference rhf
	basis 6-31G*
}

set_num_threads( 4 )
memory 2 gb

molecule MOL {
0 1

H	 -2.258317	 -0.920211	 0.781428
O	 -2.347518	 -0.290803	 0.079804
C	 -1.184022	 0.487508	 -0.006784
C	 0.062599	 -0.378592	 0.031606
H	 -1.176523	 1.099369	 -0.904519
H	 -1.187323	 1.153111	 0.844927
O	 1.171513	 0.459272	 -0.058250
H	 0.050699	 -1.089204	 -0.797170
H	 0.078739	 -0.954914	 0.954740
C	 2.397842	 -0.198080	 -0.002151
H	 2.508049	 -0.905315	 -0.822092
H	 3.173794	 0.550865	 -0.078850
H	 2.517602	 -0.735921	 0.936026

	symmetry c1
}
set optking {
	frozen_dihedral = ("
		1 2 3 5
	")
}

ee = optimize('scf')
oeprop('DIPOLE', 'QUADRUPOLE', 'MULLIKEN_CHARGES')
f=open( 'psi4out.xyz', 'w' )
f.write( "13  " )
f.write( str(ee) + "\n" )
f.write( MOL.save_string_xyz() )
f.close()
--------------------------------------------------------------------------

    Molecular point group: c1
  Charge       = 0
  Multiplicity = 1
  Basis Set: 6-31G*
  Basis Set:
  @DF-RHF Final Energy:  -267.94773759550537
    Total Energy =                       -267.9477375955053731
    Molecular point group: c1
  Basis Set: 6-31G*
  Basis Set:
  Basis Set: 6-31G*
  Basis Set:
  @DF-RHF Final Energy:  -267.94936907267908
    Total Energy =                       -267.9493690726794739
  Basis Set: 6-31G*
  Basis Set:
  Basis Set: 6-31G*
  Basis Set:
  @DF-RHF Final Energy:  -267.94973721004351
    Total Energy =                       -267.9497372100435655
  Basis Set: 6-31G*
  Basis Set:
  Basis Set: 6-31G*
  Basis Set:
  @DF-RHF Final Energy:  -267.94974369732108
    Total Energy =                       -267.9497436973211961
  Basis Set: 6-31G*
  Basis Set:
  Charge       = 0
  Multiplicity = 1
  Basis Set: 6-31G*
  Basis Set:

    Orbital Energies (a.u.)
    -----------------------

    Doubly Occupied:

       1A    -20.565209     2A    -20.559819     3A    -11.275217
       4A    -11.272318     5A    -11.268897     6A     -1.391628
       7A     -1.365154     8A     -1.020152     9A     -0.914719
      10A     -0.846662    11A     -0.705328    12A     -0.676710
      13A     -0.666526    14A     -0.633891    15A     -0.597295
      16A     -0.576789    17A     -0.545604    18A     -0.494344
      19A     -0.477151    20A     -0.439691    21A     -0.424977

  @DF-RHF Final Energy:  -267.94974423935571

   => Energetics <=

    Nuclear Repulsion Energy =            190.3496915913918315
    One-Electron Energy =                -743.1627061937927010
    Two-Electron Energy =                 284.8632703630449896
    DFT Exchange-Correlation Energy =       0.0000000000000000
    Empirical Dispersion Energy =           0.0000000000000000
    PCM Polarization Energy =               0.0000000000000000
    EFP Energy =                            0.0000000000000000
    Total Energy =                       -267.9497442393559368
    Molecular point group: c1
  Basis Set: 6-31G*
  Basis Set:

  -Total Gradient:
     Atom            X                  Y                   Z
    ------   -----------------  -----------------  -----------------
       1        0.001068568985    -0.001695994205    -0.001475049165
       2       -0.001125304725     0.001697164448     0.001622140020
       3       -0.001027435725     0.001602286852     0.000836537846
       4       -0.000041782396     0.000028321930    -0.000032750597
       5        0.001080183821    -0.001625139934    -0.000943798150
       6        0.000000951543    -0.000016805175    -0.000005809314
       7        0.000038633266    -0.000001347780     0.000007872926
       8       -0.000001607372    -0.000022204002     0.000001984996
       9       -0.000005178268     0.000029798422    -0.000021336005
      10        0.000004949524     0.000007435359     0.000018208693
      11       -0.000004220268     0.000003397442    -0.000003482914
      12        0.000002268724    -0.000001804477    -0.000003558273
      13        0.000009972890    -0.000005108881    -0.000000960063

  **** Optimization is complete! (in 5 steps) ****
    Final optimized geometry and variables:
    Molecular point group: c1

    Geometry (in Angstrom), charge = 0, multiplicity = 1:

    H           -2.309850772665    -0.892880114068     0.757088056414
    O           -2.354254210735    -0.291181248469     0.026811724582
    C           -1.187611295135     0.485263379920    -0.022501172046
    C            0.062803008448    -0.376909555210     0.018885596091
    H           -1.209539888730     1.018705241217    -0.962173950291
    H           -1.156326533317     1.211873924354     0.784251938004
    O            1.169208006847     0.465792657297    -0.034661755182
    H            0.056663149170    -1.071357946835    -0.819560999820
    H            0.080401617002    -0.970908629631     0.935952338843
    C            2.397132773178    -0.191987150771    -0.035309920648
    H            2.494058238724    -0.850770974896    -0.895727366921
    H            3.170688328498     0.561798183006    -0.081035064194
    H            2.532099393149    -0.781861767966     0.869269949700

  Mulliken Charges: (a.u.)
   Center  Symbol    Alpha    Beta     Spin     Total
       1     H     0.28255  0.28255  0.00000  0.43489
       2     O     4.37186  4.37186  0.00000 -0.74372
       3     C     2.99627  2.99627  0.00000  0.00747
       4     C     3.00370  3.00370  0.00000 -0.00739
       5     H     0.40886  0.40886  0.00000  0.18228
       6     H     0.42156  0.42156  0.00000  0.15688
       7     O     4.30629  4.30629  0.00000 -0.61257
       8     H     0.42337  0.42337  0.00000  0.15325
       9     H     0.43865  0.43865  0.00000  0.12270
      10     C     3.08063  3.08063  0.00000 -0.16127
      11     H     0.42747  0.42747  0.00000  0.14506
      12     H     0.40990  0.40990  0.00000  0.18020
      13     H     0.42889  0.42889  0.00000  0.14222

   Total alpha = 21.00000, Total beta = 21.00000, Total charge =  0.00000
