  ==> Input File <==

--------------------------------------------------------------------------
set {
	reference rhf
	basis cc-pvtz
}

set_num_threads( 4 )
memory 2 gb

molecule MOL {
0 1

O	 0.342629	 0.952774	 -1.379201
C	 0.336113	 -0.037488	 -0.730211
C	 1.479668	 -1.014684	 -0.624250
O	 -0.695554	 -0.422406	 0.000602
C	 2.693673	 -0.616306	 -1.447937
H	 1.100789	 -1.985700	 -0.923465
H	 1.728308	 -1.104945	 0.427399
H	 2.444936	 -0.543572	 -2.498202
H	 3.479342	 -1.353030	 -1.332561
H	 3.078173	 0.345204	 -1.135071
C	 -1.852370	 0.402254	 0.000718
C	 -3.063338	 -0.501097	 -0.000437
H	 -1.831732	 1.039442	 -0.872158
H	 -1.832493	 1.038301	 0.874430
H	 -3.071944	 -1.133732	 -0.879113
H	 -3.966302	 0.097976	 -0.000483
H	 -3.072764	 -1.134834	 0.877435

	symmetry c1
}
set optking {
	frozen_dihedral = ("
		2 4 11 13
	")
}

ee = optimize('scf')
oeprop('DIPOLE', 'QUADRUPOLE', 'MULLIKEN_CHARGES')
f=open( 'psi4out.xyz', 'w' )
f.write( "17  " )
f.write( str(ee) + "\n" )
f.write( MOL.save_string_xyz() )
f.close()
--------------------------------------------------------------------------

    Molecular point group: c1
  Charge       = 0
  Multiplicity = 1
  Basis Set: CC-PVTZ
  Basis Set:
  @DF-RHF Final Energy:  -345.03856541822989
    Total Energy =                       -345.0385654182300073
    Molecular point group: c1
  Basis Set: CC-PVTZ
  Basis Set:
  Basis Set: CC-PVTZ
  Basis Set:
  @DF-RHF Final Energy:  -345.03875673753083
    Total Energy =                       -345.0387567375307185
  Basis Set: CC-PVTZ
  Basis Set:
  Basis Set: CC-PVTZ
  Basis Set:
  @DF-RHF Final Energy:  -345.03899859908171
    Total Energy =                       -345.0389985990814239
  Basis Set: CC-PVTZ
  Basis Set:
  Basis Set: CC-PVTZ
  Basis Set:
  @DF-RHF Final Energy:  -345.03880056895696
    Total Energy =                       -345.0388005689565034
  Basis Set: CC-PVTZ
  Basis Set:
  Basis Set: CC-PVTZ
  Basis Set:
  @DF-RHF Final Energy:  -345.03905077242945
    Total Energy =                       -345.0390507724293911
  Basis Set: CC-PVTZ
  Basis Set:
  Charge       = 0
  Multiplicity = 1
  Basis Set: CC-PVTZ
  Basis Set:

    Orbital Energies (a.u.)
    -----------------------

    Doubly Occupied:

       1A    -20.592620     2A    -20.532414     3A    -11.364553
       4A    -11.281556     5A    -11.235438     6A    -11.220445
       7A    -11.213458     8A     -1.468498     9A     -1.365315
      10A     -1.070559    11A     -1.032058    12A     -0.913153
      13A     -0.849139    14A     -0.772601    15A     -0.701880
      16A     -0.687333    17A     -0.665577    18A     -0.629034
      19A     -0.590983    20A     -0.571492    21A     -0.557546
      22A     -0.529338    23A     -0.520772    24A     -0.515606
      25A     -0.500597    26A     -0.494330    27A     -0.453057
      28A     -0.438883

  @DF-RHF Final Energy:  -345.03905128766519

   => Energetics <=

    Nuclear Repulsion Energy =            315.3137023923324023
    One-Electron Energy =               -1095.1690407975229391
    Two-Electron Energy =                 434.8162871175254622
    DFT Exchange-Correlation Energy =       0.0000000000000000
    Empirical Dispersion Energy =           0.0000000000000000
    PCM Polarization Energy =               0.0000000000000000
    EFP Energy =                            0.0000000000000000
    Total Energy =                       -345.0390512876650746
    Molecular point group: c1
  Basis Set: CC-PVTZ
  Basis Set:

  -Total Gradient:
     Atom            X                  Y                   Z
    ------   -----------------  -----------------  -----------------
       1        0.000006638047    -0.000026364285     0.000016128507
       2       -0.000424434087    -0.000577918473    -0.000981293145
       3       -0.000025557007    -0.000008633927     0.000007399028
       4        0.000769574754     0.001151667017     0.001608421011
       5       -0.000001888808     0.000009245636    -0.000004467602
       6       -0.000002489669     0.000004401337     0.000002206710
       7       -0.000004301077     0.000007540616     0.000001459995
       8        0.000001780272     0.000000379463    -0.000002872553
       9       -0.000001963870    -0.000000611286     0.000000718343
      10       -0.000000323225    -0.000000271314    -0.000000237716
      11       -0.000988160701    -0.001544110679    -0.001365128631
      12       -0.000007973396     0.000004965069     0.000013608662
      13        0.000658828108     0.000986959603     0.000703211132
      14        0.000017820543    -0.000011718341     0.000003204989
      15        0.000011757478     0.000006967162     0.000000594073
      16       -0.000005577072    -0.000002049252    -0.000000489849
      17       -0.000003730292    -0.000000448341    -0.000002462956

  **** Optimization is complete! (in 6 steps) ****
    Final optimized geometry and variables:
    Molecular point group: c1

    Geometry (in Angstrom), charge = 0, multiplicity = 1:

    O            0.503125068628     1.143525664817    -0.781512302717
    C            0.466109151184     0.150327837334    -0.138601123475
    C            1.591080755151    -0.848070910465    -0.025306392438
    O           -0.576565183049    -0.228112947362     0.581542081408
    C            2.822488778307    -0.466557381836    -0.830897662476
    H            1.198844919565    -1.810411098332    -0.334874889390
    H            1.824492760112    -0.948693828642     1.028867494034
    H            2.588871256208    -0.383174531413    -1.883841321559
    H            3.593271665829    -1.218000811060    -0.709946967468
    H            3.220052962477     0.485985716530    -0.507196483845
    C           -1.755904366760     0.566393595103     0.583686678735
    C           -2.955456189908    -0.352793734063     0.621839580213
    H           -1.760406586785     1.204909598300    -0.283901713623
    H           -1.724516124622     1.198259857683     1.462352563272
    H           -2.993637490013    -0.972774370065    -0.265302589894
    H           -3.865295904738     0.234345164750     0.668558915390
    H           -2.920264662139    -0.998880721039     1.489937713826

  Mulliken Charges: (a.u.)
   Center  Symbol    Alpha    Beta     Spin     Total
       1     O     4.19795  4.19795  0.00000 -0.39590
       2     C     2.80314  2.80314  0.00000  0.39371
       3     C     3.09523  3.09523  0.00000 -0.19046
       4     O     4.15471  4.15471  0.00000 -0.30941
       5     C     3.14012  3.14012  0.00000 -0.28025
       6     H     0.44213  0.44213  0.00000  0.11575
       7     H     0.44142  0.44142  0.00000  0.11716
       8     H     0.44862  0.44862  0.00000  0.10275
       9     H     0.45064  0.45064  0.00000  0.09871
      10     H     0.44839  0.44839  0.00000  0.10321
      11     C     2.98805  2.98805  0.00000  0.02390
      12     C     3.13298  3.13298  0.00000 -0.26596
      13     H     0.44342  0.44342  0.00000  0.11317
      14     H     0.45553  0.45553  0.00000  0.08894
      15     H     0.45200  0.45200  0.00000  0.09600
      16     H     0.45436  0.45436  0.00000  0.09128
      17     H     0.45131  0.45131  0.00000  0.09738

   Total alpha = 28.00000, Total beta = 28.00000, Total charge = -0.00000
