  ==> Input File <==

--------------------------------------------------------------------------
set {
	reference rhf
	basis cc-pvtz
}

set_num_threads( 4 )
memory 2 gb

molecule MOL {
0 1

H	 1.112652	 1.835310	 1.427903
O	 1.338845	 0.958296	 1.174653
C	 0.706474	 0.636793	 -0.025501
C	 -0.793473	 0.591216	 0.050087
H	 1.078643	 -0.338421	 -0.316620
H	 0.997740	 1.327651	 -0.814537
C	 -1.534243	 -0.493009	 -0.013340
H	 -1.266611	 1.552628	 0.164437
H	 -1.101195	 -1.466332	 -0.144046
H	 -2.604242	 -0.437780	 0.050785

	symmetry c1
}
set optking {
	frozen_dihedral = ("
		5 3 4 7
	")
}

ee = optimize('scf')
oeprop('DIPOLE', 'QUADRUPOLE', 'MULLIKEN_CHARGES')
f=open( 'psi4out.xyz', 'w' )
f.write( "10  " )
f.write( str(ee) + "\n" )
f.write( MOL.save_string_xyz() )
f.close()
--------------------------------------------------------------------------

    Molecular point group: c1
  Charge       = 0
  Multiplicity = 1
  Basis Set: CC-PVTZ
  Basis Set:
  @DF-RHF Final Energy:  -191.99599390586391
    Total Energy =                       -191.9959939058638838
    Molecular point group: c1
  Basis Set: CC-PVTZ
  Basis Set:
  Basis Set: CC-PVTZ
  Basis Set:
  @DF-RHF Final Energy:  -191.99632444844525
    Total Energy =                       -191.9963244484451934
  Basis Set: CC-PVTZ
  Basis Set:
  Basis Set: CC-PVTZ
  Basis Set:
  @DF-RHF Final Energy:  -191.99637489895321
    Total Energy =                       -191.9963748989531496
  Basis Set: CC-PVTZ
  Basis Set:
  Basis Set: CC-PVTZ
  Basis Set:
  @DF-RHF Final Energy:  -191.99637809500379
    Total Energy =                       -191.9963780950035925
  Basis Set: CC-PVTZ
  Basis Set:
  Charge       = 0
  Multiplicity = 1
  Basis Set: CC-PVTZ
  Basis Set:

    Orbital Energies (a.u.)
    -----------------------

    Doubly Occupied:

       1A    -20.551262     2A    -11.275539     3A    -11.230007
       4A    -11.223409     5A     -1.369162     6A     -1.066595
       7A     -0.923794     8A     -0.782472     9A     -0.688969
      10A     -0.660491    11A     -0.620057    12A     -0.573510
      13A     -0.546624    14A     -0.489776    15A     -0.445343
      16A     -0.377660

  @DF-RHF Final Energy:  -191.99637826997889

   => Energetics <=

    Nuclear Repulsion Energy =            117.6954822839379631
    One-Electron Energy =                -493.7343768321187554
    Two-Electron Energy =                 184.0425162782017878
    DFT Exchange-Correlation Energy =       0.0000000000000000
    Empirical Dispersion Energy =           0.0000000000000000
    PCM Polarization Energy =               0.0000000000000000
    EFP Energy =                            0.0000000000000000
    Total Energy =                       -191.9963782699790045
    Molecular point group: c1
  Basis Set: CC-PVTZ
  Basis Set:

  -Total Gradient:
     Atom            X                  Y                   Z
    ------   -----------------  -----------------  -----------------
       1        0.000000076919     0.000001286924    -0.000004995994
       2       -0.000022023866    -0.000004598617    -0.000027572333
       3        0.000170230848    -0.000574270108     0.002701635201
       4       -0.000149913885     0.000306148028    -0.002601510511
       5       -0.000099436064     0.000405933886    -0.001566180400
       6        0.000007237019     0.000004798383     0.000007099469
       7        0.000090861339    -0.000125097359     0.001513859246
       8        0.000002786858    -0.000007947251    -0.000009658315
       9       -0.000003476032    -0.000001092223    -0.000001967570
      10        0.000003656868    -0.000005161663    -0.000010708792

  **** Optimization is complete! (in 5 steps) ****
    Final optimized geometry and variables:
    Molecular point group: c1

    Geometry (in Angstrom), charge = 0, multiplicity = 1:

    H            1.088230542021     1.365713471328     1.104486779775
    O            1.321434042631     0.492152999340     0.847117780190
    C            0.707317846646     0.165728708021    -0.371105716820
    C           -0.792938267500     0.146328783657    -0.286911240551
    H            1.074429876711    -0.810320079290    -0.653519555608
    H            1.018882823089     0.862415395189    -1.146076472751
    C           -1.526699404730    -0.942825652313    -0.338854114904
    H           -1.275467623187     1.101569046358    -0.152283955717
    H           -1.083376397113    -1.914288064215    -0.463711293942
    H           -2.597200472574    -0.905466587735    -0.263696334290

  Mulliken Charges: (a.u.)
   Center  Symbol    Alpha    Beta     Spin     Total
       1     H     0.39461  0.39461  0.00000  0.21078
       2     O     4.19723  4.19723  0.00000 -0.39445
       3     C     2.95616  2.95616  0.00000  0.08768
       4     C     3.07171  3.07171  0.00000 -0.14341
       5     H     0.45568  0.45568  0.00000  0.08864
       6     H     0.47243  0.47243  0.00000  0.05515
       7     C     3.16615  3.16615  0.00000 -0.33231
       8     H     0.42817  0.42817  0.00000  0.14366
       9     H     0.42951  0.42951  0.00000  0.14099
      10     H     0.42837  0.42837  0.00000  0.14327

   Total alpha = 16.00000, Total beta = 16.00000, Total charge = -0.00000
