                              Psi4 1.0.54 Driver

  ==> Input File <==

--------------------------------------------------------------------------
set {
	reference rhf
	basis cc-pvtz
}

set_num_threads( 4 )
memory 2 gb

molecule MOL {
0 1

H	 1.830795	 -1.486944	 0.687268
O	 2.012307	 -0.863440	 0.000222
C	 1.050374	 0.054877	 0.000135
C	 -0.318151	 -0.570512	 0.000144
O	 1.286319	 1.213453	 -0.000040
C	 -1.454884	 0.441630	 -0.000560
H	 -0.371613	 -1.223646	 -0.864985
H	 -0.371920	 -1.222758	 0.865929
C	 -2.822577	 -0.232186	 0.000063
H	 -1.359760	 1.084704	 -0.867077
H	 -1.359641	 1.085996	 0.864983
H	 -2.954352	 -0.858985	 -0.875745
H	 -3.615886	 0.505352	 0.000019
H	 -2.953878	 -0.858359	 0.876394

	symmetry c1
}
set optking {
	frozen_dihedral = ("
		1 2 3 5
	")
}

ee,wfn = optimize('scf', return_wfn=True)
oeprop( wfn, 'DIPOLE', 'QUADRUPOLE', 'MULLIKEN_CHARGES')
f=open( 'psi4out.xyz', 'w' )
f.write( "14  " )
f.write( str(ee) + "\n" )
f.write( MOL.save_string_xyz() )
f.close()
--------------------------------------------------------------------------

    Molecular point group: c1
  Charge       = 0
  Multiplicity = 1
  Basis Set: CC-PVTZ
  Basis Set:
  @DF-RHF Final Energy:  -305.98352436548629
    Total Energy =                       -305.9835243654859482
    Molecular point group: c1
  Basis Set: CC-PVTZ
  Basis Set:
  Basis Set: CC-PVTZ
  Basis Set:
  @DF-RHF Final Energy:  -305.98481419815084
    Total Energy =                       -305.9848141981507297
  Basis Set: CC-PVTZ
  Basis Set:
  Basis Set: CC-PVTZ
  Basis Set:
  @DF-RHF Final Energy:  -305.98484005201800
    Total Energy =                       -305.9848400520180576
  Basis Set: CC-PVTZ
  Basis Set:
  Basis Set: CC-PVTZ
  Basis Set:
  @DF-RHF Final Energy:  -305.98491453084682
    Total Energy =                       -305.9849145308467087
  Basis Set: CC-PVTZ
  Basis Set:
  Basis Set: CC-PVTZ
  Basis Set:
  @DF-RHF Final Energy:  -305.98497772840398
    Total Energy =                       -305.9849777284040897
  Basis Set: CC-PVTZ
  Basis Set:
  Charge       = 0
  Multiplicity = 1
  Basis Set: CC-PVTZ
  Basis Set:

    Orbital Energies (a.u.)
    -----------------------

    Doubly Occupied:

       1A    -20.594262     2A    -20.545150     3A    -11.373960
       4A    -11.247265     5A    -11.227943     6A    -11.219366
       7A     -1.466588     8A     -1.373343     9A     -1.087216
      10A     -0.978388    11A     -0.853405    12A     -0.811977
      13A     -0.719446    14A     -0.675149    15A     -0.664441
      16A     -0.630911    17A     -0.582815    18A     -0.572850
      19A     -0.550022    20A     -0.509838    21A     -0.497083
      22A     -0.487739    23A     -0.485184    24A     -0.446279

  @DF-RHF Final Energy:  -305.98497826176254

   => Energetics <=

    Nuclear Repulsion Energy =            239.9965891593377876
    One-Electron Energy =                -892.7618922033047966
    Two-Electron Energy =                 346.7803247822046160
    DFT Exchange-Correlation Energy =       0.0000000000000000
    Empirical Dispersion Energy =           0.0000000000000000
    PCM Polarization Energy =               0.0000000000000000
    EFP Energy =                            0.0000000000000000
    Total Energy =                       -305.9849782617624214
    Molecular point group: c1
  Basis Set: CC-PVTZ
  Basis Set:

  -Total Gradient:
     Atom            X                  Y                   Z
    ------   -----------------  -----------------  -----------------
       1        0.003387238712     0.003980050552     0.004301484483
       2       -0.004306326278    -0.004985428056    -0.002821421705
       3        0.000896136165     0.000909824539    -0.007348230744
       4       -0.000000771949     0.000001846775    -0.000068500298
       5        0.000010891077     0.000088346846     0.005879872867
       6       -0.000001932081     0.000018596285     0.000017937704
       7       -0.000008155120    -0.000002506671     0.000024082652
       8        0.000006590880     0.000003856912     0.000032421968
       9        0.000007855732    -0.000009244658    -0.000001237921
      10        0.000001244882     0.000002813504    -0.000007828506
      11        0.000003069151    -0.000007635461    -0.000008369562
      12       -0.000002151772    -0.000000343785    -0.000003593611
      13        0.000007625556     0.000002178388     0.000000038395
      14       -0.000001314953    -0.000002355173     0.000003344279

  **** Optimization is complete! (in 6 steps) ****
    Final optimized geometry and variables:
    Molecular point group: c1

    Geometry (in Angstrom), charge = 0, multiplicity = 1:

    H            1.996985914542    -1.441701045302     0.660454491517
    O            2.087385151253    -0.791007140925    -0.014627238815
    C            1.057234609980     0.080331877782    -0.015843027648
    C           -0.306956852171    -0.566735716213    -0.013751026576
    O            1.253213105128     1.237966301302    -0.026132088036
    C           -1.462433711771     0.423613517905     0.014634401169
    H           -0.358064856637    -1.204007200922    -0.891214692087
    H           -0.357042086882    -1.237657218516     0.841516523091
    C           -2.818708744376    -0.272852766255     0.011082417575
    H           -1.382215972360     1.083893593831    -0.839852507571
    H           -1.371077505054     1.052894933271     0.891633008715
    H           -2.946127884339    -0.884812136909    -0.875749335019
    H           -3.623618273000     0.451579401076     0.029843767616
    H           -2.935156809044    -0.917311818800     0.876414417813

  Mulliken Charges: (a.u.)
   Center  Symbol    Alpha    Beta     Spin     Total
       1     H     0.38863  0.38863  0.00000  0.22275
       2     O     4.16010  4.16010  0.00000 -0.32019
       3     C     2.80435  2.80435  0.00000  0.39130
       4     C     3.11646  3.11646  0.00000 -0.23291
       5     O     4.16495  4.16495  0.00000 -0.32990
       6     C     3.08231  3.08231  0.00000 -0.16462
       7     H     0.43615  0.43615  0.00000  0.12771
       8     H     0.45273  0.45273  0.00000  0.09455
       9     C     3.15012  3.15012  0.00000 -0.30025
      10     H     0.44293  0.44293  0.00000  0.11413
      11     H     0.44564  0.44564  0.00000  0.10871
      12     H     0.45503  0.45503  0.00000  0.08995
      13     H     0.44420  0.44420  0.00000  0.11160
      14     H     0.45642  0.45642  0.00000  0.08717

   Total alpha = 24.00000, Total beta = 24.00000, Total charge =  0.00000

*** Psi4 exiting successfully. Buy a developer a beer!
