  ==> Input File <==

--------------------------------------------------------------------------
set {
	reference rhf
	basis 6-31G*
}

set_num_threads( 1 )
memory 2 gb

molecule MOL {
0 1

H	 3.893188	 0.355400	 -0.101367
N	 3.092854	 -0.246221	 -0.068770
C	 1.865559	 0.531981	 0.018834
H	 3.199514	 -0.826043	 0.741946
C	 0.645745	 -0.382037	 -0.029944
H	 1.841966	 1.207024	 -0.831236
H	 1.815756	 1.155410	 0.915079
C	 -0.679275	 0.379305	 0.025956
H	 0.698998	 -0.976915	 -0.937203
H	 0.693479	 -1.083846	 0.802235
C	 -1.611769	 -0.114457	 1.133669
H	 -1.186731	 0.291205	 -0.933510
H	 -0.483902	 1.440828	 0.170334
C	 -2.936221	 0.646387	 1.183223
H	 -1.809433	 -1.174510	 0.990740
H	 -1.108318	 -0.025185	 2.093994
H	 -3.480072	 0.548022	 0.247880
H	 -3.575184	 0.273266	 1.977648
H	 -2.773600	 1.705986	 1.359845

	symmetry c1
}
set optking {
	frozen_dihedral = ("
		6 3 5 9,
		12 8 11 15,
		1 2 3 6
	")
}

ee = energy('scf')
oeprop('DIPOLE', 'QUADRUPOLE', 'MULLIKEN_CHARGES')
f=open( 'psi4out.xyz', 'w' )
f.write( "19  " )
f.write( str(ee) + "\n" )
f.write( MOL.save_string_xyz() )
f.close()
--------------------------------------------------------------------------

    Molecular point group: c1

    Geometry (in Angstrom), charge = 0, multiplicity = 1:

       Center              X                  Y                   Z               Mass
    ------------   -----------------  -----------------  -----------------  -----------------
           H          3.796456296026     0.215343900189    -0.486708384683     1.007825032070
           N          2.996122296026    -0.386277099811    -0.454111384683    14.003074004780
           C          1.768827296026     0.391924900189    -0.366507384683    12.000000000000
           H          3.102782296026    -0.966099099811     0.356604615317     1.007825032070
           C          0.549013296026    -0.522093099811    -0.415285384683    12.000000000000
           H          1.745234296026     1.066967900189    -1.216577384683     1.007825032070
           H          1.719024296026     1.015353900189     0.529737615317     1.007825032070
           C         -0.776006703974     0.239248900189    -0.359385384683    12.000000000000
           H          0.602266296026    -1.116971099811    -1.322544384683     1.007825032070
           H          0.596747296026    -1.223902099811     0.416893615317     1.007825032070
           C         -1.708500703974    -0.254513099811     0.748327615317    12.000000000000
           H         -1.283462703974     0.151148900189    -1.318851384683     1.007825032070
           H         -0.580633703974     1.300771900189    -0.215007384683     1.007825032070
           C         -3.032952703974     0.506330900189     0.797881615317    12.000000000000
           H         -1.906164703974    -1.314566099811     0.605398615317     1.007825032070
           H         -1.205049703974    -0.165241099811     1.708652615317     1.007825032070
           H         -3.576803703974     0.407965900189    -0.137461384683     1.007825032070
           H         -3.671915703974     0.133209900189     1.592306615317     1.007825032070
           H         -2.870331703974     1.565929900189     0.974503615317     1.007825032070

  Charge       = 0
  Multiplicity = 1
  Basis Set: 6-31G*
  Basis Set:

    Orbital Energies (a.u.)
    -----------------------

    Doubly Occupied:

       1A    -15.532280     2A    -11.240261     3A    -11.214794
       4A    -11.211425     5A    -11.207899     6A    -11.207471
       7A     -1.176581     8A     -1.073323     9A     -0.998011
      10A     -0.899817    11A     -0.816069    12A     -0.788633
      13A     -0.662404    14A     -0.639276    15A     -0.616472
      16A     -0.593957    17A     -0.561743    18A     -0.549708
      19A     -0.534786    20A     -0.490475    21A     -0.488933
      22A     -0.466274    23A     -0.455845    24A     -0.446960
      25A     -0.381272

  @DF-RHF Final Energy:  -251.34668326373770

   => Energetics <=

    Nuclear Repulsion Energy =            246.6958831924325750
    One-Electron Energy =                -827.5756347370106596
    Two-Electron Energy =                 329.5330682808398137
    DFT Exchange-Correlation Energy =       0.0000000000000000
    Empirical Dispersion Energy =           0.0000000000000000
    PCM Polarization Energy =               0.0000000000000000
    EFP Energy =                            0.0000000000000000
    Total Energy =                       -251.3466832637382709

  Mulliken Charges: (a.u.)
   Center  Symbol    Alpha    Beta     Spin     Total
       1     H     0.33260  0.33260  0.00000  0.33479
       2     N     3.92213  3.92213  0.00000 -0.84426
       3     C     3.06340  3.06340  0.00000 -0.12680
       4     H     0.33526  0.33526  0.00000  0.32948
       5     C     3.15345  3.15345  0.00000 -0.30691
       6     H     0.42026  0.42026  0.00000  0.15948
       7     H     0.43460  0.43460  0.00000  0.13080
       8     C     3.15730  3.15730  0.00000 -0.31460
       9     H     0.41087  0.41087  0.00000  0.17826
      10     H     0.42509  0.42509  0.00000  0.14982
      11     C     3.15345  3.15345  0.00000 -0.30690
      12     H     0.41997  0.41997  0.00000  0.16007
      13     H     0.42267  0.42267  0.00000  0.15467
      14     C     3.23990  3.23990  0.00000 -0.47980
      15     H     0.42177  0.42177  0.00000  0.15646
      16     H     0.42394  0.42394  0.00000  0.15211
      17     H     0.42153  0.42153  0.00000  0.15693
      18     H     0.41970  0.41970  0.00000  0.16059
      19     H     0.42209  0.42209  0.00000  0.15581

   Total alpha = 25.00000, Total beta = 25.00000, Total charge = -0.00000
