                              Psi4 1.0.54 Driver

  ==> Input File <==

--------------------------------------------------------------------------
set {
	reference rhf
	basis cc-pvtz
}

set_num_threads( 4 )
memory 2 gb

molecule MOL {
0 1

O	 -2.081319	 -0.951530	 -0.502732
N	 -1.613558	 0.006676	 0.014756
C	 -0.329345	 -0.171618	 0.743966
O	 -2.068523	 1.100482	 -0.024385
C	 -0.569383	 -0.034461	 2.242184
H	 0.333258	 0.592339	 0.372823
H	 0.028227	 -1.153705	 0.483432
C	 0.725054	 -0.212463	 3.031433
H	 -0.994409	 0.942150	 2.442538
H	 -1.296832	 -0.776092	 2.551277
C	 0.511266	 -0.086972	 4.535769
H	 1.450634	 0.527368	 2.706439
H	 1.153746	 -1.184746	 2.807163
H	 0.114232	 0.888416	 4.793993
H	 -0.186635	 -0.835019	 4.895039
H	 1.443410	 -0.218295	 5.071513

	symmetry c1
}
set optking {
	frozen_dihedral = ("
		5 3 2 1
	")
}

ee,wfn = optimize('scf', return_wfn=True)
oeprop( wfn, 'DIPOLE', 'QUADRUPOLE', 'MULLIKEN_CHARGES')
f=open( 'psi4out.xyz', 'w' )
f.write( "16  " )
f.write( str(ee) + "\n" )
f.write( MOL.save_string_xyz() )
f.close()
--------------------------------------------------------------------------

    Molecular point group: c1
  Charge       = 0
  Multiplicity = 1
  Basis Set: CC-PVTZ
  Basis Set:
  @DF-RHF Final Energy:  -360.90922059256923
    Total Energy =                       -360.9092205925695680
    Molecular point group: c1
  Basis Set: CC-PVTZ
  Basis Set:
  Basis Set: CC-PVTZ
  Basis Set:
  @DF-RHF Final Energy:  -360.90349653748507
    Total Energy =                       -360.9034965374852391
  Basis Set: CC-PVTZ
  Basis Set:
  Basis Set: CC-PVTZ
  Basis Set:
  @DF-RHF Final Energy:  -360.90860000918917
    Total Energy =                       -360.9086000091892856
  Basis Set: CC-PVTZ
  Basis Set:
  Basis Set: CC-PVTZ
  Basis Set:
  @DF-RHF Final Energy:  -360.90936422578551
    Total Energy =                       -360.9093642257853389
  Basis Set: CC-PVTZ
  Basis Set:
  Basis Set: CC-PVTZ
  Basis Set:
  @DF-RHF Final Energy:  -360.90934594914688
    Total Energy =                       -360.9093459491471663
  Basis Set: CC-PVTZ
  Basis Set:
  Basis Set: CC-PVTZ
  Basis Set:
  @DF-RHF Final Energy:  -360.90938673120695
    Total Energy =                       -360.9093867312069506
  Basis Set: CC-PVTZ
  Basis Set:
  Charge       = 0
  Multiplicity = 1
  Basis Set: CC-PVTZ
  Basis Set:

    Orbital Energies (a.u.)
    -----------------------

    Doubly Occupied:

       1A    -20.591498     2A    -20.588287     3A    -15.836462
       4A    -11.296483     5A    -11.249563     6A    -11.241516
       7A    -11.225631     8A     -1.635451     9A     -1.419718
      10A     -1.136129    11A     -1.059926    12A     -0.948803
      13A     -0.843452    14A     -0.828177    15A     -0.758303
      16A     -0.739267    17A     -0.728454    18A     -0.678076
      19A     -0.615563    20A     -0.607376    21A     -0.567465
      22A     -0.541249    23A     -0.517547    24A     -0.503884
      25A     -0.496205    26A     -0.486425    27A     -0.469780
      28A     -0.452618

  @DF-RHF Final Energy:  -360.90938679647246

   => Energetics <=

    Nuclear Repulsion Energy =            312.8747430486808412
    One-Electron Energy =               -1111.4416396315737074
    Two-Electron Energy =                 437.6575097864204622
    DFT Exchange-Correlation Energy =       0.0000000000000000
    Empirical Dispersion Energy =           0.0000000000000000
    PCM Polarization Energy =               0.0000000000000000
    EFP Energy =                            0.0000000000000000
    Total Energy =                       -360.9093867964724609
    Molecular point group: c1
  Basis Set: CC-PVTZ
  Basis Set:

  -Total Gradient:
     Atom            X                  Y                   Z
    ------   -----------------  -----------------  -----------------
       1        0.000217180090     0.000043167435    -0.000315508082
       2       -0.000278908867    -0.000017612515     0.000400233160
       3       -0.000003807372    -0.000349648131    -0.000100758229
       4        0.000034005166     0.000029491743     0.000027373886
       5        0.000049841907     0.000309774947    -0.000012642830
       6       -0.000010475399     0.000001160754     0.000000968393
       7       -0.000009873298    -0.000000280793    -0.000014096703
       8       -0.000011307606    -0.000019848747     0.000005095638
       9       -0.000007172720     0.000003543769     0.000004723820
      10        0.000010439557     0.000003160040    -0.000004436020
      11        0.000009384346     0.000002709584     0.000004363061
      12       -0.000009276474    -0.000001530825     0.000001590238
      13        0.000009338822    -0.000004452408     0.000003051624
      14       -0.000001345030    -0.000000686721    -0.000001274699
      15        0.000001846039    -0.000000750012    -0.000002557809
      16        0.000000130832     0.000001801885     0.000003874551

  **** Optimization is complete! (in 7 steps) ****
    Final optimized geometry and variables:
    Molecular point group: c1

    Geometry (in Angstrom), charge = 0, multiplicity = 1:

    O           -1.312918256781    -0.929824462064    -1.880900097277
    N           -0.840369294670     0.034294686005    -1.380390266059
    C            0.456184965524    -0.124229575672    -0.666205927247
    O           -1.318895943740     1.119252666385    -1.392185783416
    C            0.255003430702     0.027727786890     0.835118029409
    H            1.099688437614     0.648103047331    -1.058236068896
    H            0.825964385570    -1.098681561100    -0.934213893861
    C            1.570021411978    -0.145955444131     1.590903445577
    H           -0.166116212641     1.003912156382     1.037407874981
    H           -0.463583352527    -0.712029539386     1.172185588806
    C            1.397965037651    -0.000965854214     3.098861941761
    H            2.288100909296     0.588152049424     1.237095985941
    H            1.991076396289    -1.121762177436     1.367525233262
    H            1.008516918479     0.977913614348     3.355287619283
    H            0.709851200996    -0.743764676321     3.486877377788
    H            2.344383287664    -0.126311364114     3.610503796011

  Mulliken Charges: (a.u.)
   Center  Symbol    Alpha    Beta     Spin     Total
       1     O     4.17042  4.17042  0.00000 -0.34084
       2     N     3.27629  3.27629  0.00000  0.44742
       3     C     3.04083  3.04083  0.00000 -0.08166
       4     O     4.17534  4.17534  0.00000 -0.35068
       5     C     3.10136  3.10136  0.00000 -0.20272
       6     H     0.43555  0.43555  0.00000  0.12889
       7     H     0.43268  0.43268  0.00000  0.13464
       8     C     3.09359  3.09359  0.00000 -0.18719
       9     H     0.43423  0.43423  0.00000  0.13153
      10     H     0.44164  0.44164  0.00000  0.11671
      11     C     3.14819  3.14819  0.00000 -0.29638
      12     H     0.45071  0.45071  0.00000  0.09858
      13     H     0.45037  0.45037  0.00000  0.09926
      14     H     0.45155  0.45155  0.00000  0.09690
      15     H     0.45197  0.45197  0.00000  0.09607
      16     H     0.44526  0.44526  0.00000  0.10947

   Total alpha = 28.00000, Total beta = 28.00000, Total charge = -0.00000

*** Psi4 exiting successfully. Buy a developer a beer!
