  ==> Input File <==

--------------------------------------------------------------------------
set {
	reference rhf
	basis 6-31G*
}

set_num_threads( 4 )
memory 2 gb

molecule MOL {
0 1

H	 4.254228	 0.070316	 2.157533
C	 3.491812	 -0.506713	 1.644202
C	 2.184868	 0.278145	 1.539993
H	 3.876968	 -0.760128	 0.660503
H	 3.353899	 -1.433682	 2.193706
C	 1.084442	 -0.498932	 0.824723
H	 2.349256	 1.211374	 1.010417
H	 1.844436	 0.544632	 2.539233
N	 -0.128711	 0.287511	 0.718781
H	 1.413863	 -0.742483	 -0.181820
H	 0.918971	 -1.453534	 1.335344
C	 -1.217365	 -0.386708	 0.039277
H	 -0.427952	 0.562917	 1.635103
C	 -2.452633	 0.504241	 -0.042481
H	 -0.884087	 -0.630396	 -0.965959
H	 -1.481713	 -1.336521	 0.516098
C	 -3.758029	 -0.289423	 -0.010781
H	 -2.394220	 1.093569	 -0.952170
H	 -2.440793	 1.210787	 0.785871
H	 -3.816659	 -0.981993	 -0.845726
H	 -4.617837	 0.370165	 -0.069296
H	 -3.847478	 -0.867502	 0.904682

	symmetry c1
}
set optking {
	frozen_dihedral = ("
		15 12 14 18
	")
}

ee = optimize('scf')
oeprop('DIPOLE', 'QUADRUPOLE', 'MULLIKEN_CHARGES')
f=open( 'psi4out.xyz', 'w' )
f.write( "22  " )
f.write( str(ee) + "\n" )
f.write( MOL.save_string_xyz() )
f.close()
--------------------------------------------------------------------------

    Molecular point group: c1
  Charge       = 0
  Multiplicity = 1
  Basis Set: 6-31G*
  Basis Set:
  @DF-RHF Final Energy:  -290.37959806721733
    Total Energy =                       -290.3795980672169321
    Molecular point group: c1
  Basis Set: 6-31G*
  Basis Set:
  Basis Set: 6-31G*
  Basis Set:
  @DF-RHF Final Energy:  -290.37990363021487
    Total Energy =                       -290.3799036302145851
  Basis Set: 6-31G*
  Basis Set:
  Basis Set: 6-31G*
  Basis Set:
  @DF-RHF Final Energy:  -290.37999336338970
    Total Energy =                       -290.3799933633898718
  Basis Set: 6-31G*
  Basis Set:
  Basis Set: 6-31G*
  Basis Set:
  @DF-RHF Final Energy:  -290.37999440393014
    Total Energy =                       -290.3799944039302545
  Basis Set: 6-31G*
  Basis Set:
  Charge       = 0
  Multiplicity = 1
  Basis Set: 6-31G*
  Basis Set:

    Orbital Energies (a.u.)
    -----------------------

    Doubly Occupied:

       1A    -15.533421     2A    -11.238261     3A    -11.237643
       4A    -11.213667     5A    -11.213465     6A    -11.209655
       7A    -11.209274     8A     -1.204937     9A     -1.058254
      10A     -1.025259    11A     -0.927649    12A     -0.868307
      13A     -0.810640    14A     -0.793916    15A     -0.668624
      16A     -0.628473    17A     -0.615834    18A     -0.605730
      19A     -0.575614    20A     -0.562948    21A     -0.535901
      22A     -0.527838    23A     -0.509639    24A     -0.486481
      25A     -0.482473    26A     -0.473551    27A     -0.465757
      28A     -0.449920    29A     -0.358487

  @DF-RHF Final Energy:  -290.37999455972073

   => Energetics <=

    Nuclear Repulsion Energy =            313.2144154160891389
    One-Electron Energy =               -1012.2055856075156726
    Two-Electron Energy =                 408.6111756317061463
    DFT Exchange-Correlation Energy =       0.0000000000000000
    Empirical Dispersion Energy =           0.0000000000000000
    PCM Polarization Energy =               0.0000000000000000
    EFP Energy =                            0.0000000000000000
    Total Energy =                       -290.3799945597204442
    Molecular point group: c1
  Basis Set: 6-31G*
  Basis Set:

  -Total Gradient:
     Atom            X                  Y                   Z
    ------   -----------------  -----------------  -----------------
       1       -0.000000472139     0.000001681438    -0.000003349439
       2       -0.000000237114     0.000004560284    -0.000008199302
       3       -0.000002761990    -0.000005140526     0.000004981824
       4        0.000000455003    -0.000003657066    -0.000000641042
       5       -0.000001773342     0.000003088954     0.000002145410
       6       -0.000010198603     0.000005872367     0.000006760106
       7        0.000003901171     0.000005792719     0.000005845667
       8       -0.000000763316    -0.000001529193     0.000001224819
       9       -0.000003027361    -0.000018860875    -0.000012096494
      10        0.000003852670    -0.000003576253    -0.000001111119
      11        0.000002066299    -0.000004804261     0.000002445724
      12       -0.003996453446    -0.005441293515    -0.000584747546
      13       -0.000001213418    -0.000007024095    -0.000010579106
      14        0.003489294696     0.005044283766     0.002922514891
      15        0.002817374059     0.003793041017     0.000036000971
      16       -0.000004542073     0.000022975609    -0.000008463216
      17       -0.000001539149     0.000004354530     0.000015325209
      18       -0.002290925290    -0.003384923850    -0.002366993089
      19        0.000003053997    -0.000015369862     0.000003658038
      20        0.000009502804    -0.000005144611    -0.000002505934
      21       -0.000006473581     0.000000372625    -0.000001327477
      22       -0.000009119879     0.000005300801    -0.000000888895

  **** Optimization is complete! (in 5 steps) ****
    Final optimized geometry and variables:
    Molecular point group: c1

    Geometry (in Angstrom), charge = 0, multiplicity = 1:

    H            4.390978655097     0.181197191723     1.434605199033
    C            3.624237600099    -0.398846882980     0.931164428087
    C            2.310590855983     0.377606618229     0.851534852992
    H            3.995074821847    -0.645509472185    -0.059699428017
    H            3.501427103820    -1.329025894058     1.478834458516
    C            1.204355715577    -0.403168277828     0.149287349541
    H            2.460434382233     1.314628768538     0.324367178285
    H            1.984103507121     0.636604452036     1.857442529624
    N           -0.014537405727     0.376404595895     0.064048861686
    H            1.521035373326    -0.641425958198    -0.862675611941
    H            1.052134707106    -1.360806066594     0.658766499150
    C           -1.113873416391    -0.307385873169    -0.593794241428
    H           -0.297792785705     0.652673032453     0.985142666314
    C           -2.341243126448     0.606154160020    -0.703081530558
    H           -0.764098594099    -0.561986992979    -1.589477532238
    H           -1.379094941038    -1.242161737073    -0.091330104719
    C           -3.655467444833    -0.176365098803    -0.742795217363
    H           -2.266996345368     1.194884097850    -1.611753426736
    H           -2.356984099990     1.301290651387     0.131364196555
    H           -3.666273625565    -0.883808409999    -1.567733392730
    H           -4.504232324401     0.488341129463    -0.869603019552
    H           -3.808265518264    -0.738866072380     0.174011681215

  Mulliken Charges: (a.u.)
   Center  Symbol    Alpha    Beta     Spin     Total
       1     H     0.41776  0.41776  0.00000  0.16447
       2     C     3.24322  3.24322  0.00000 -0.48645
       3     C     3.15564  3.15564  0.00000 -0.31127
       4     H     0.42071  0.42071  0.00000  0.15858
       5     H     0.42169  0.42169  0.00000  0.15662
       6     C     3.04666  3.04666  0.00000 -0.09332
       7     H     0.41292  0.41292  0.00000  0.17416
       8     H     0.42676  0.42676  0.00000  0.14648
       9     N     3.85869  3.85869  0.00000 -0.71739
      10     H     0.42198  0.42198  0.00000  0.15605
      11     H     0.43650  0.43650  0.00000  0.12700
      12     C     3.04994  3.04994  0.00000 -0.09988
      13     H     0.33569  0.33569  0.00000  0.32861
      14     C     3.15405  3.15405  0.00000 -0.30811
      15     H     0.41982  0.41982  0.00000  0.16035
      16     H     0.43388  0.43388  0.00000  0.13224
      17     C     3.24400  3.24400  0.00000 -0.48800
      18     H     0.41583  0.41583  0.00000  0.16834
      19     H     0.42153  0.42153  0.00000  0.15693
      20     H     0.42160  0.42160  0.00000  0.15679
      21     H     0.41885  0.41885  0.00000  0.16230
      22     H     0.42226  0.42226  0.00000  0.15548

   Total alpha = 29.00000, Total beta = 29.00000, Total charge =  0.00000
