  ==> Input File <==

--------------------------------------------------------------------------
set {
	reference rhf
	basis 6-31G*
}

set_num_threads( 4 )
memory 2 gb

molecule MOL {
0 1

H	 3.462098	 1.063521	 0.488894
O	 2.545597	 0.932427	 0.711595
C	 2.077727	 -0.067559	 -0.035091
C	 0.624473	 -0.343591	 0.253101
O	 2.759781	 -0.642494	 -0.819481
C	 -0.265902	 0.883932	 0.072916
H	 0.324016	 -1.163849	 -0.390541
H	 0.565024	 -0.726111	 1.268924
C	 -1.728698	 0.646073	 0.462102
H	 -0.209144	 1.219470	 -0.958188
H	 0.135059	 1.692851	 0.673903
C	 -2.482460	 -0.343073	 -0.431425
H	 -2.245265	 1.602650	 0.432430
H	 -1.779332	 0.308348	 1.496285
C	 -3.960546	 -0.461025	 -0.060175
H	 -2.395034	 -0.026811	 -1.468912
H	 -2.024850	 -1.327147	 -0.371646
H	 -4.472726	 -1.168004	 -0.705284
H	 -4.465146	 0.496508	 -0.151489
H	 -4.081218	 -0.800940	 0.964585

	symmetry c1
}
set optking {
	frozen_dihedral = ("
		5 3 4 7
	")
}

ee = optimize('scf')
oeprop('DIPOLE', 'QUADRUPOLE', 'MULLIKEN_CHARGES')
f=open( 'psi4out.xyz', 'w' )
f.write( "20  " )
f.write( str(ee) + "\n" )
f.write( MOL.save_string_xyz() )
f.close()
--------------------------------------------------------------------------

    Molecular point group: c1
  Charge       = 0
  Multiplicity = 1
  Basis Set: 6-31G*
  Basis Set:
  @DF-RHF Final Energy:  -383.94693176153146
    Total Energy =                       -383.9469317615317436
    Molecular point group: c1
  Basis Set: 6-31G*
  Basis Set:
  Basis Set: 6-31G*
  Basis Set:
  @DF-RHF Final Energy:  -383.94677221290397
    Total Energy =                       -383.9467722129037952
  Basis Set: 6-31G*
  Basis Set:
  Basis Set: 6-31G*
  Basis Set:
  @DF-RHF Final Energy:  -383.94684779744506
    Total Energy =                       -383.9468477974450025
  Basis Set: 6-31G*
  Basis Set:
  Basis Set: 6-31G*
  Basis Set:
  @DF-RHF Final Energy:  -383.94728876289577
    Total Energy =                       -383.9472887628958233
  Basis Set: 6-31G*
  Basis Set:
  Basis Set: 6-31G*
  Basis Set:
  @DF-RHF Final Energy:  -383.94727760743388
    Total Energy =                       -383.9472776074339890
  Basis Set: 6-31G*
  Basis Set:
  Basis Set: 6-31G*
  Basis Set:
  @DF-RHF Final Energy:  -383.94729493937820
    Total Energy =                       -383.9472949393779686
  Basis Set: 6-31G*
  Basis Set:
  Charge       = 0
  Multiplicity = 1
  Basis Set: 6-31G*
  Basis Set:

    Orbital Energies (a.u.)
    -----------------------

    Doubly Occupied:

       1A    -20.612860     2A    -20.549670     3A    -11.379841
       4A    -11.238849     5A    -11.231194     6A    -11.223913
       7A    -11.221534     8A    -11.213415     9A     -1.473931
      10A     -1.364038    11A     -1.098998    12A     -1.041975
      13A     -0.960412    14A     -0.863287    15A     -0.823770
      16A     -0.790108    17A     -0.700561    18A     -0.686133
      19A     -0.643237    20A     -0.637692    21A     -0.616248
      22A     -0.592141    23A     -0.578191    24A     -0.553389
      25A     -0.540973    26A     -0.520449    27A     -0.499816
      28A     -0.482484    29A     -0.476851    30A     -0.469473
      31A     -0.458778    32A     -0.434574

  @DF-RHF Final Energy:  -383.94729577623303

   => Energetics <=

    Nuclear Repulsion Energy =            376.4350649120096364
    One-Electron Energy =               -1268.8071495367037187
    Two-Electron Energy =                 508.4247888484611622
    DFT Exchange-Correlation Energy =       0.0000000000000000
    Empirical Dispersion Energy =           0.0000000000000000
    PCM Polarization Energy =               0.0000000000000000
    EFP Energy =                            0.0000000000000000
    Total Energy =                       -383.9472957762328633
    Molecular point group: c1
  Basis Set: 6-31G*
  Basis Set:

  -Total Gradient:
     Atom            X                  Y                   Z
    ------   -----------------  -----------------  -----------------
       1       -0.000006707213    -0.000009684010    -0.000004473338
       2       -0.000039023111     0.000006308230    -0.000001719282
       3       -0.000220577282     0.000549405085    -0.000613366441
       4        0.000249298204    -0.000491328242     0.000630479777
       5        0.000156567242    -0.000351214589     0.000356610698
       6        0.000007318848    -0.000004609248    -0.000039515449
       7       -0.000145774052     0.000316261569    -0.000346664821
       8       -0.000003906407    -0.000014208942    -0.000018426193
       9       -0.000014004398     0.000000599580     0.000004433082
      10        0.000009848843     0.000013856592     0.000020776106
      11        0.000010229230    -0.000008996500    -0.000002908116
      12        0.000011747493     0.000002224250     0.000016598510
      13       -0.000020208350    -0.000012823321    -0.000002718928
      14       -0.000000043808     0.000002850739     0.000004971580
      15       -0.000004419357     0.000006770329    -0.000006646286
      16        0.000006380213    -0.000002356682     0.000004109602
      17        0.000005380430    -0.000005447046     0.000002605213
      18       -0.000003806717     0.000001501953    -0.000002351729
      19       -0.000001367681     0.000001045570     0.000001805007
      20        0.000003067870    -0.000000155316    -0.000003598995

  **** Optimization is complete! (in 7 steps) ****
    Final optimized geometry and variables:
    Molecular point group: c1

    Geometry (in Angstrom), charge = 0, multiplicity = 1:

    H            3.509405155089     0.950094424119     0.416277096430
    O            2.598098458913     0.839513758638     0.669413000286
    C            2.084007979863    -0.147962143634    -0.064000862276
    C            0.637852878980    -0.418160228620     0.261873147192
    O            2.731631485752    -0.736799419015    -0.867547299903
    C           -0.259849754639     0.814552212803     0.076830800346
    H            0.326297845366    -1.236047464370    -0.371718788646
    H            0.591257245332    -0.750503193062     1.295627911585
    C           -1.725350556892     0.566685765484     0.450062067795
    H           -0.201804713773     1.147899652428    -0.956948723827
    H            0.127440993603     1.622610346988     0.686897595279
    C           -2.464878282558    -0.423471130728    -0.453796706388
    H           -2.246258305386     1.520951750510     0.418860046713
    H           -1.780981302327     0.225838260849     1.482704227060
    C           -3.946024107064    -0.548047130740    -0.097175174062
    H           -2.368379472718    -0.104190865503    -1.489442744224
    H           -2.003543142305    -1.405212500426    -0.392095195710
    H           -4.448410115428    -1.255538717702    -0.749209793033
    H           -4.453990297368     0.407496937935    -0.191130344017
    H           -4.075490275413    -0.891290115609     0.925387106525

  Mulliken Charges: (a.u.)
   Center  Symbol    Alpha    Beta     Spin     Total
       1     H     0.26747  0.26747  0.00000  0.46507
       2     O     4.34752  4.34752  0.00000 -0.69504
       3     C     2.62923  2.62923  0.00000  0.74154
       4     C     3.20479  3.20479  0.00000 -0.40959
       5     O     4.27913  4.27913  0.00000 -0.55826
       6     C     3.16597  3.16597  0.00000 -0.33194
       7     H     0.39462  0.39462  0.00000  0.21075
       8     H     0.40251  0.40251  0.00000  0.19499
       9     C     3.15434  3.15434  0.00000 -0.30867
      10     H     0.41491  0.41491  0.00000  0.17018
      11     H     0.40369  0.40369  0.00000  0.19262
      12     C     3.15499  3.15499  0.00000 -0.30998
      13     H     0.41798  0.41798  0.00000  0.16405
      14     H     0.42202  0.42202  0.00000  0.15596
      15     C     3.23957  3.23957  0.00000 -0.47914
      16     H     0.42095  0.42095  0.00000  0.15810
      17     H     0.42069  0.42069  0.00000  0.15863
      18     H     0.41757  0.41757  0.00000  0.16487
      19     H     0.42093  0.42093  0.00000  0.15814
      20     H     0.42114  0.42114  0.00000  0.15771

   Total alpha = 32.00000, Total beta = 32.00000, Total charge = -0.00000
