  ==> Input File <==

--------------------------------------------------------------------------
set {
	reference rhf
	basis 6-31G*
}

set_num_threads( 4 )
memory 2 gb

molecule MOL {
0 1

O	 0.685143	 -3.971002	 -3.542752
C	 0.694935	 -2.788335	 -3.702868
C	 0.501429	 -1.842444	 -2.530625
C	 0.930976	 -2.173433	 -5.064321
C	 1.800583	 -1.699675	 -1.721330
H	 -0.275329	 -2.257680	 -1.897750
H	 0.170541	 -0.867404	 -2.876799
C	 1.631333	 -0.777471	 -0.511575
H	 2.113289	 -2.688876	 -1.406560
H	 2.590101	 -1.309277	 -2.361640
C	 2.915987	 -0.544314	 0.291766
H	 0.865943	 -1.186057	 0.145664
H	 1.257162	 0.185127	 -0.853991
C	 3.373361	 0.914346	 0.347591
H	 3.708709	 -1.142521	 -0.150311
H	 2.780642	 -0.921148	 1.303579
H	 3.506512	 1.320010	 -0.651625
H	 4.322697	 0.999599	 0.867103
H	 2.660624	 1.545032	 0.868198
H	 0.032655	 -1.657246	 -5.392703
H	 1.184175	 -2.943562	 -5.779565
H	 1.726287	 -1.434976	 -5.019978

	symmetry c1
}
set optking {
	frozen_dihedral = ("
		12 8 11 15
	")
}

ee = optimize('scf')
oeprop('DIPOLE', 'QUADRUPOLE', 'MULLIKEN_CHARGES')
f=open( 'psi4out.xyz', 'w' )
f.write( "22  " )
f.write( str(ee) + "\n" )
f.write( MOL.save_string_xyz() )
f.close()
--------------------------------------------------------------------------

    Molecular point group: c1
  Charge       = 0
  Multiplicity = 1
  Basis Set: 6-31G*
  Basis Set:
  @DF-RHF Final Energy:  -348.09380028956906
    Total Energy =                       -348.0938002895687760
    Molecular point group: c1
  Basis Set: 6-31G*
  Basis Set:
  Basis Set: 6-31G*
  Basis Set:
  @DF-RHF Final Energy:  -348.09413066835344
    Total Energy =                       -348.0941306683536709
  Basis Set: 6-31G*
  Basis Set:
  Basis Set: 6-31G*
  Basis Set:
  @DF-RHF Final Energy:  -348.09227488269545
    Total Energy =                       -348.0922748826955626
  Basis Set: 6-31G*
  Basis Set:
  Basis Set: 6-31G*
  Basis Set:
  @DF-RHF Final Energy:  -348.09426769466785
    Total Energy =                       -348.0942676946676784
  Basis Set: 6-31G*
  Basis Set:
  @DF-RHF Final Energy:  -348.09372545258748
    Total Energy =                       -348.0937254525871367
  @DF-RHF Final Energy:  -348.09409685702485
    Total Energy =                       -348.0940968570246241
  Basis Set: 6-31G*
  Basis Set:
  @DF-RHF Final Energy:  -348.09429441907128
    Total Energy =                       -348.0942944190712751
  Basis Set: 6-31G*
  Basis Set:
  Basis Set: 6-31G*
  Basis Set:
  @DF-RHF Final Energy:  -348.09427109549551
    Total Energy =                       -348.0942710954954578
  Basis Set: 6-31G*
  Basis Set:
  Basis Set: 6-31G*
  Basis Set:
  @DF-RHF Final Energy:  -348.09430115988738
    Total Energy =                       -348.0943011598873227
  Basis Set: 6-31G*
  Basis Set:
  Charge       = 0
  Multiplicity = 1
  Basis Set: 6-31G*
  Basis Set:

    Orbital Energies (a.u.)
    -----------------------

    Doubly Occupied:

       1A    -20.547342     2A    -11.324511     3A    -11.230435
       4A    -11.228994     5A    -11.228203     6A    -11.222095
       7A    -11.220272     8A    -11.213519     9A     -1.393089
      10A     -1.094564    11A     -1.044346    12A     -1.000702
      13A     -0.938574    14A     -0.847849    15A     -0.797876
      16A     -0.732721    17A     -0.661368    18A     -0.646707
      19A     -0.627235    20A     -0.613044    21A     -0.596199
      22A     -0.586410    23A     -0.558323    24A     -0.546144
      25A     -0.539025    26A     -0.510139    27A     -0.499924
      28A     -0.489864    29A     -0.473549    30A     -0.463390
      31A     -0.458100    32A     -0.396025

  @DF-RHF Final Energy:  -348.09430149857189

   => Energetics <=

    Nuclear Repulsion Energy =            369.6307556322344681
    One-Electron Energy =               -1203.9890410349519243
    Two-Electron Energy =                 486.2639839041454479
    DFT Exchange-Correlation Energy =       0.0000000000000000
    Empirical Dispersion Energy =           0.0000000000000000
    PCM Polarization Energy =               0.0000000000000000
    EFP Energy =                            0.0000000000000000
    Total Energy =                       -348.0943014985720083
    Molecular point group: c1
  Basis Set: 6-31G*
  Basis Set:

  -Total Gradient:
     Atom            X                  Y                   Z
    ------   -----------------  -----------------  -----------------
       1        0.000057864893    -0.000049454185     0.000029191527
       2       -0.000043391700     0.000039957912    -0.000041247338
       3        0.000070190101     0.000032761128     0.000070191752
       4       -0.000004539403    -0.000019767996    -0.000033077802
       5       -0.000073214863     0.000036915745     0.000025590299
       6       -0.000005858908     0.000006254460     0.000032793746
       7        0.000000681114     0.000013720973     0.000027999023
       8       -0.000168662695     0.000142178982     0.000033552705
       9       -0.000042567716     0.000001400696    -0.000013104383
      10        0.000030258105    -0.000008426532     0.000002848920
      11        0.000149305866     0.000099091919    -0.000183763326
      12       -0.000006610129    -0.000134138503    -0.000084005878
      13       -0.000101013891    -0.000038677154    -0.000054942777
      14        0.000012712639    -0.000077207208     0.000058492485
      15        0.000067023520    -0.000071540539     0.000144281982
      16        0.000064119319     0.000042479792    -0.000007038282
      17        0.000007670822    -0.000031814864    -0.000005892163
      18       -0.000001415824     0.000001213398     0.000026215887
      19       -0.000014107280    -0.000000571259    -0.000021247307
      20        0.000002566067     0.000026663968    -0.000033872171
      21        0.000007076619     0.000005999977     0.000002542965
      22       -0.000008086653    -0.000017040704     0.000024490134

  **** Optimization is complete! (in 10 steps) ****
    Final optimized geometry and variables:
    Molecular point group: c1

    Geometry (in Angstrom), charge = 0, multiplicity = 1:

    O           -0.887851550014    -2.374695364179    -1.482141239384
    C           -0.883398056030    -1.191899521218    -1.640941816332
    C           -1.087683458016    -0.247672221153    -0.469166657713
    C           -0.649457440410    -0.574362943899    -3.001868091014
    C            0.214977549733    -0.070201793662     0.325664039095
    H           -1.847881102578    -0.679193665941     0.172822370792
    H           -1.444991915314     0.718316024126    -0.815007004946
    C            0.046389887460     0.852449246469     1.534662825100
    H            0.556460635585    -1.047417326084     0.653066064809
    H            0.991757926979     0.329879455178    -0.324117950646
    C            1.350817463754     1.046288488347     2.341696276505
    H           -0.732084515367     0.448065946803     2.175900839477
    H           -0.320440653841     1.817500076000     1.192143539837
    C            1.809866197134     2.502848500847     2.415111120800
    H            2.145453246423     0.448815750049     1.902226950069
    H            1.219864338019     0.666061407667     3.350319132233
    H            1.992136119195     2.905859274231     1.422488232525
    H            2.728923167938     2.597743418671     2.985163083393
    H            1.058466729293     3.126601168043     2.890830893641
    H           -1.552478689803    -0.068834308559    -3.333909431323
    H           -0.384886078419    -1.341891340157    -3.715755402342
    H            0.137081406582     0.173155598901    -2.955169118578

  Mulliken Charges: (a.u.)
   Center  Symbol    Alpha    Beta     Spin     Total
       1     O     4.26217  4.26217  0.00000 -0.52434
       2     C     2.73718  2.73718  0.00000  0.52564
       3     C     3.20078  3.20078  0.00000 -0.40156
       4     C     3.28951  3.28951  0.00000 -0.57903
       5     C     3.16424  3.16424  0.00000 -0.32847
       6     H     0.40110  0.40110  0.00000  0.19780
       7     H     0.41683  0.41683  0.00000  0.16635
       8     C     3.15486  3.15486  0.00000 -0.30972
       9     H     0.40543  0.40543  0.00000  0.18913
      10     H     0.42075  0.42075  0.00000  0.15851
      11     C     3.15655  3.15655  0.00000 -0.31310
      12     H     0.41742  0.41742  0.00000  0.16517
      13     H     0.42062  0.42062  0.00000  0.15876
      14     C     3.24002  3.24002  0.00000 -0.48004
      15     H     0.41847  0.41847  0.00000  0.16306
      16     H     0.41777  0.41777  0.00000  0.16447
      17     H     0.42275  0.42275  0.00000  0.15450
      18     H     0.41905  0.41905  0.00000  0.16191
      19     H     0.42079  0.42079  0.00000  0.15843
      20     H     0.40682  0.40682  0.00000  0.18636
      21     H     0.39706  0.39706  0.00000  0.20588
      22     H     0.40985  0.40985  0.00000  0.18030

   Total alpha = 32.00000, Total beta = 32.00000, Total charge =  0.00000
