                              Psi4 1.0.54 Driver

  ==> Input File <==

--------------------------------------------------------------------------
set {
	reference rhf
	basis cc-pvtz
}

set_num_threads( 4 )
memory 2 gb

molecule MOL {
0 1

O	 -2.071633	 -1.227563	 -0.223463
C	 -1.652164	 -0.152425	 0.058082
C	 -0.327811	 0.006324	 0.778296
C	 -2.402515	 1.108629	 -0.298924
C	 0.843231	 -0.001575	 -0.211665
H	 -0.319484	 0.928173	 1.350354
H	 -0.227804	 -0.823091	 1.466705
C	 2.044110	 0.794938	 0.290019
H	 0.519882	 0.403435	 -1.167231
H	 1.136772	 -1.029670	 -0.393928
C	 3.215825	 0.779448	 -0.685689
H	 1.742868	 1.822043	 0.476655
H	 2.364768	 0.391751	 1.246135
H	 2.935671	 1.209283	 -1.641614
H	 3.559730	 -0.233025	 -0.867337
H	 4.053083	 1.349206	 -0.299973
H	 -3.240910	 0.874416	 -0.936711
H	 -1.747554	 1.818823	 -0.790984
H	 -2.760419	 1.579708	 0.610998

	symmetry c1
}
set optking {
	frozen_dihedral = ("
		9 5 3 2
	")
}

ee,wfn = optimize('scf', return_wfn=True)
oeprop( wfn, 'DIPOLE', 'QUADRUPOLE', 'MULLIKEN_CHARGES')
f=open( 'psi4out.xyz', 'w' )
f.write( "19  " )
f.write( str(ee) + "\n" )
f.write( MOL.save_string_xyz() )
f.close()
--------------------------------------------------------------------------

    Molecular point group: c1
  Charge       = 0
  Multiplicity = 1
  Basis Set: CC-PVTZ
  Basis Set:
  @DF-RHF Final Energy:  -309.17470759195788
    Total Energy =                       -309.1747075919578833
    Molecular point group: c1
  Basis Set: CC-PVTZ
  Basis Set:
  Basis Set: CC-PVTZ
  Basis Set:
  @DF-RHF Final Energy:  -309.17489090864439
    Total Energy =                       -309.1748909086444428
  Basis Set: CC-PVTZ
  Basis Set:
  Basis Set: CC-PVTZ
  Basis Set:
  @DF-RHF Final Energy:  -309.17499964982630
    Total Energy =                       -309.1749996498267592
  Basis Set: CC-PVTZ
  Basis Set:
  Basis Set: CC-PVTZ
  Basis Set:
  @DF-RHF Final Energy:  -309.17507452049449
    Total Energy =                       -309.1750745204944337
  Basis Set: CC-PVTZ
  Basis Set:
  @DF-RHF Final Energy:  -309.17508473873488
    Total Energy =                       -309.1750847387347676
  Basis Set: CC-PVTZ
  Basis Set:
  @DF-RHF Final Energy:  -309.17508840927553
    Total Energy =                       -309.1750884092759293
  Basis Set: CC-PVTZ
  Basis Set:
  Basis Set: CC-PVTZ
  Basis Set:
  @DF-RHF Final Energy:  -309.17509039744516
    Total Energy =                       -309.1750903974451035
  Basis Set: CC-PVTZ
  Basis Set:
  Basis Set: CC-PVTZ
  Basis Set:
  @DF-RHF Final Energy:  -309.17509153991449
    Total Energy =                       -309.1750915399146038
  Basis Set: CC-PVTZ
  Basis Set:
  Charge       = 0
  Multiplicity = 1
  Basis Set: CC-PVTZ
  Basis Set:

    Orbital Energies (a.u.)
    -----------------------

    Doubly Occupied:

       1A    -20.536611     2A    -11.319276     3A    -11.230082
       4A    -11.228068     5A    -11.226946     6A    -11.224905
       7A    -11.214419     8A     -1.396546     9A     -1.093584
      10A     -1.031214    11A     -0.984144    12A     -0.892747
      13A     -0.809704    14A     -0.735322    15A     -0.662054
      16A     -0.649758    17A     -0.623956    18A     -0.615439
      19A     -0.584725    20A     -0.576287    21A     -0.552472
      22A     -0.540121    23A     -0.509268    24A     -0.508018
      25A     -0.484527    26A     -0.476279    27A     -0.470233
      28A     -0.399107

  @DF-RHF Final Energy:  -309.17509169780743

   => Energetics <=

    Nuclear Repulsion Energy =            302.2681045977091685
    One-Electron Energy =               -1017.7347678747166810
    Two-Electron Energy =                 406.2915715791998537
    DFT Exchange-Correlation Energy =       0.0000000000000000
    Empirical Dispersion Energy =           0.0000000000000000
    PCM Polarization Energy =               0.0000000000000000
    EFP Energy =                            0.0000000000000000
    Total Energy =                       -309.1750916978076020
    Molecular point group: c1
  Basis Set: CC-PVTZ
  Basis Set:

  -Total Gradient:
     Atom            X                  Y                   Z
    ------   -----------------  -----------------  -----------------
       1        0.000006978259     0.000024420951    -0.000016644617
       2       -0.000240078846     0.002732092056    -0.000178444409
       3        0.000064357594    -0.004486122564    -0.000090391845
       4       -0.000040044790    -0.000009612474     0.000068603502
       5        0.001129604414     0.005424338104     0.001679599911
       6        0.000038906849    -0.000016595729     0.000040450582
       7       -0.000010944328    -0.000026626804    -0.000029319444
       8       -0.000024296898     0.000000274667    -0.000001354037
       9       -0.000952392656    -0.003623203254    -0.001321641753
      10       -0.000005862206     0.000006427588    -0.000102795197
      11       -0.000003431930    -0.000005548089    -0.000002108510
      12        0.000010844970    -0.000017931629    -0.000009287667
      13        0.000004301150     0.000016597405    -0.000006089650
      14        0.000001126353    -0.000001894243     0.000013971726
      15       -0.000010922841     0.000010916362     0.000002047947
      16       -0.000008273327    -0.000004966530     0.000001996360
      17        0.000006430559    -0.000000840769    -0.000009602016
      18        0.000002772316    -0.000013198803    -0.000009276333
      19        0.000030925359    -0.000008526245    -0.000029714551

  **** Optimization is complete! (in 9 steps) ****
    Final optimized geometry and variables:
    Molecular point group: c1

    Geometry (in Angstrom), charge = 0, multiplicity = 1:

    O           -2.082808426499    -1.424011905251    -0.076828607041
    C           -1.613849685237    -0.352183572255     0.129634800667
    C           -0.281254524694    -0.192081143693     0.830328691484
    C           -2.315954093581     0.913459067534    -0.304936677183
    C            0.878639947382    -0.148828994847    -0.182068066735
    H           -0.293648953760     0.727583197715     1.406860748613
    H           -0.151975801372    -1.018052781755     1.515715416163
    C            2.101522307352     0.602998351127     0.330910410949
    H            0.542515102566     0.277895858655    -1.123193340633
    H            1.154808340571    -1.169767864862    -0.423830492993
    C            3.272754894455     0.570549299291    -0.644489757712
    H            1.828824647095     1.634615109870     0.535196757866
    H            2.409702178530     0.175572908277     1.281060543017
    H            3.002407423822     1.016728848120    -1.595716974888
    H            3.593264777111    -0.447479444884    -0.837151934331
    H            4.122753649256     1.116804911550    -0.252791407187
    H           -3.135632139705     0.674095720299    -0.964798467763
    H           -1.629572654997     1.594381557715    -0.794268819546
    H           -2.699828855491     1.420640919408     0.574540489542

  Mulliken Charges: (a.u.)
   Center  Symbol    Alpha    Beta     Spin     Total
       1     O     4.17699  4.17699  0.00000 -0.35398
       2     C     2.85800  2.85800  0.00000  0.28399
       3     C     3.09784  3.09784  0.00000 -0.19567
       4     C     3.15652  3.15652  0.00000 -0.31303
       5     C     3.09875  3.09875  0.00000 -0.19749
       6     H     0.45126  0.45126  0.00000  0.09747
       7     H     0.43767  0.43767  0.00000  0.12465
       8     C     3.08647  3.08647  0.00000 -0.17293
       9     H     0.45037  0.45037  0.00000  0.09926
      10     H     0.44192  0.44192  0.00000  0.11616
      11     C     3.14941  3.14941  0.00000 -0.29882
      12     H     0.45459  0.45459  0.00000  0.09082
      13     H     0.45137  0.45137  0.00000  0.09727
      14     H     0.45457  0.45457  0.00000  0.09087
      15     H     0.45283  0.45283  0.00000  0.09433
      16     H     0.44733  0.44733  0.00000  0.10534
      17     H     0.43575  0.43575  0.00000  0.12850
      18     H     0.45081  0.45081  0.00000  0.09839
      19     H     0.44756  0.44756  0.00000  0.10488

   Total alpha = 28.00000, Total beta = 28.00000, Total charge = -0.00000

*** Psi4 exiting successfully. Buy a developer a beer!
