  ==> Input File <==

--------------------------------------------------------------------------
set {
	reference rhf
	basis cc-pvtz
}

set_num_threads( 4 )
memory 2 gb

molecule MOL {
0 1

H	 -3.162190	 0.493205	 -0.000107
C	 -2.363908	 -0.234727	 0.000005
O	 -1.158738	 0.454634	 -0.000087
H	 -2.464314	 -0.863616	 -0.882153
H	 -2.464327	 -0.863359	 0.882345
C	 -0.028611	 -0.359694	 0.000037
C	 -0.055157	 -1.250239	 1.225850
H	 0.873433	 0.252640	 -0.000046
H	 -0.005268	 -0.966962	 -0.905128
C	 1.153965	 -2.175967	 1.299364
H	 -0.098683	 -0.621778	 2.108498
H	 -0.970366	 -1.831713	 1.210577
H	 2.080748	 -1.613384	 1.340105
H	 1.109546	 -2.799909	 2.183527
H	 1.203076	 -2.831601	 0.436346

	symmetry c1
}
set optking {
	frozen_dihedral = ("
		8 6 3 2
	")
}

ee = optimize('scf')
oeprop('DIPOLE', 'QUADRUPOLE', 'MULLIKEN_CHARGES')
f=open( 'psi4out.xyz', 'w' )
f.write( "15  " )
f.write( str(ee) + "\n" )
f.write( MOL.save_string_xyz() )
f.close()
--------------------------------------------------------------------------

    Molecular point group: c1
  Charge       = 0
  Multiplicity = 1
  Basis Set: CC-PVTZ
  Basis Set:
  @DF-RHF Final Energy:  -232.21850868883345
    Total Energy =                       -232.2185086888332535
    Molecular point group: c1
  Basis Set: CC-PVTZ
  Basis Set:
  Basis Set: CC-PVTZ
  Basis Set:
  @DF-RHF Final Energy:  -232.21991728323496
    Total Energy =                       -232.2199172832348495
  Basis Set: CC-PVTZ
  Basis Set:
  Basis Set: CC-PVTZ
  Basis Set:
  @DF-RHF Final Energy:  -232.22376487617581
    Total Energy =                       -232.2237648761756077
  Basis Set: CC-PVTZ
  Basis Set:
  Basis Set: CC-PVTZ
  Basis Set:
  @DF-RHF Final Energy:  -232.22445713302534
    Total Energy =                       -232.2244571330252256
  Basis Set: CC-PVTZ
  Basis Set:
  Basis Set: CC-PVTZ
  Basis Set:
  @DF-RHF Final Energy:  -232.22451810442323
    Total Energy =                       -232.2245181044233391
  Basis Set: CC-PVTZ
  Basis Set:
  Basis Set: CC-PVTZ
  Basis Set:
  @DF-RHF Final Energy:  -232.22452570245727
    Total Energy =                       -232.2245257024572425
  Basis Set: CC-PVTZ
  Basis Set:
  Charge       = 0
  Multiplicity = 1
  Basis Set: CC-PVTZ
  Basis Set:

    Orbital Energies (a.u.)
    -----------------------

    Doubly Occupied:

       1A    -20.545548     2A    -11.264399     3A    -11.260629
       4A    -11.216347     5A    -11.213528     6A     -1.377612
       7A     -1.058015     8A     -0.960942     9A     -0.884522
      10A     -0.802648    11A     -0.672606    12A     -0.659957
      13A     -0.633975    14A     -0.604907    15A     -0.564375
      16A     -0.530025    17A     -0.526326    18A     -0.498353
      19A     -0.486632    20A     -0.454047    21A     -0.409683

  @DF-RHF Final Energy:  -232.22452624387242

   => Energetics <=

    Nuclear Repulsion Energy =            192.2043727508234667
    One-Electron Energy =                -695.6076462544159540
    Two-Electron Energy =                 271.1787472597198985
    DFT Exchange-Correlation Energy =       0.0000000000000000
    Empirical Dispersion Energy =           0.0000000000000000
    PCM Polarization Energy =               0.0000000000000000
    EFP Energy =                            0.0000000000000000
    Total Energy =                       -232.2245262438725604
    Molecular point group: c1
  Basis Set: CC-PVTZ
  Basis Set:

  -Total Gradient:
     Atom            X                  Y                   Z
    ------   -----------------  -----------------  -----------------
       1        0.000016176156     0.000007169801     0.000001199099
       2       -0.000023497569     0.000002002233     0.002071029288
       3        0.000080123737    -0.000033657613    -0.002514155697
       4       -0.000001855249     0.000001144004    -0.000003778334
       5       -0.000003427318    -0.000002295556     0.000005143597
       6        0.000011457935    -0.000002466393    -0.002025237598
       7        0.000016983620     0.000010163286     0.000027459731
       8       -0.000080431318     0.000035125146     0.002448070370
       9       -0.000009356663     0.000015211972    -0.000015452408
      10       -0.000007384081    -0.000027048986    -0.000003859943
      11       -0.000007118757     0.000001724005     0.000004846780
      12        0.000008169012    -0.000003741970     0.000002728376
      13       -0.000011606421     0.000001780917     0.000003377925
      14        0.000004592219    -0.000004406984    -0.000000145261
      15        0.000007174700    -0.000000703862    -0.000001225925

  **** Optimization is complete! (in 7 steps) ****
    Final optimized geometry and variables:
    Molecular point group: c1

    Geometry (in Angstrom), charge = 0, multiplicity = 1:

    H           -2.621721736188     1.384795394753    -0.749018499932
    C           -1.917602666683     0.595858400681    -0.526316222722
    O           -0.649809112872     1.165517472674    -0.500332490629
    H           -1.997829234254    -0.166920397283    -1.298910303311
    H           -2.189729078409     0.152015692107     0.425730827609
    C            0.431960651979     0.283865070646    -0.467506288835
    C            0.473240906511    -0.635668684805     0.747178171725
    H            1.313755912696     0.911470480561    -0.451231596195
    H            0.456461612853    -0.309164647625    -1.381846845093
    C            1.771083401171    -1.435846934629     0.799336118034
    H            0.372708843290    -0.031728714543     1.643495897120
    H           -0.366580631834    -1.321495109973     0.732387806062
    H            2.634018207437    -0.781986997795     0.864644612958
    H            1.788608084807    -2.092406914977     1.660638809575
    H            1.889750107894    -2.051721937673    -0.086057318117

  Mulliken Charges: (a.u.)
   Center  Symbol    Alpha    Beta     Spin     Total
       1     H     0.44400  0.44400  0.00000  0.11200
       2     C     3.03644  3.03644  0.00000 -0.07289
       3     O     4.17596  4.17596  0.00000 -0.35192
       4     H     0.47297  0.47297  0.00000  0.05406
       5     H     0.46830  0.46830  0.00000  0.06340
       6     C     2.97538  2.97538  0.00000  0.04924
       7     C     3.09325  3.09325  0.00000 -0.18650
       8     H     0.45110  0.45110  0.00000  0.09780
       9     H     0.47010  0.47010  0.00000  0.05980
      10     C     3.15238  3.15238  0.00000 -0.30475
      11     H     0.44927  0.44927  0.00000  0.10146
      12     H     0.45555  0.45555  0.00000  0.08890
      13     H     0.45343  0.45343  0.00000  0.09315
      14     H     0.44670  0.44670  0.00000  0.10660
      15     H     0.45517  0.45517  0.00000  0.08965

   Total alpha = 21.00000, Total beta = 21.00000, Total charge = -0.00000
