  ==> Input File <==

--------------------------------------------------------------------------
set {
	reference rhf
	basis 6-31G*
}

set_num_threads( 4 )
memory 2 gb

molecule MOL {
0 1

O	 -2.821601	 1.309235	 -0.001213
C	 -2.668563	 0.129746	 -0.000350
C	 -3.801572	 -0.864014	 -0.000442
O	 -1.481751	 -0.454642	 0.000584
H	 -4.417280	 -0.689587	 -0.874708
H	 -3.443784	 -1.883046	 -0.000565
H	 -4.417179	 -0.689832	 0.873954
C	 -0.334255	 0.388708	 0.000906
C	 0.891947	 -0.504646	 0.000751
H	 -0.365390	 1.025305	 -0.873475
H	 -0.365484	 1.024911	 0.875569
C	 2.191998	 0.301789	 0.000897
H	 0.855148	 -1.151283	 -0.871571
H	 0.855132	 -1.151660	 0.872805
C	 3.439953	 -0.579550	 0.079491
H	 2.241389	 0.912473	 -0.898942
H	 2.190045	 0.994909	 0.840339
C	 4.738456	 0.225904	 0.078279
H	 3.443684	 -1.272564	 -0.758837
H	 3.393360	 -1.188824	 0.979315
H	 4.830276	 0.820663	 -0.826068
H	 5.604577	 -0.425939	 0.134577
H	 4.779732	 0.904767	 0.925304

	symmetry c1
}
set optking {
	frozen_dihedral = ("
		16 12 9 13
	")
}

ee = optimize('scf')
oeprop('DIPOLE', 'QUADRUPOLE', 'MULLIKEN_CHARGES')
f=open( 'psi4out.xyz', 'w' )
f.write( "23  " )
f.write( str(ee) + "\n" )
f.write( MOL.save_string_xyz() )
f.close()
--------------------------------------------------------------------------

    Molecular point group: c1
  Charge       = 0
  Multiplicity = 1
  Basis Set: 6-31G*
  Basis Set:
  @DF-RHF Final Energy:  -422.97949621207255
    Total Energy =                       -422.9794962120733999
    Molecular point group: c1
  Basis Set: 6-31G*
  Basis Set:
  Basis Set: 6-31G*
  Basis Set:
  @DF-RHF Final Energy:  -422.97949820926647
    Total Energy =                       -422.9794982092661257
  Basis Set: 6-31G*
  Basis Set:
  Basis Set: 6-31G*
  Basis Set:
  @DF-RHF Final Energy:  -422.97949611857388
    Total Energy =                       -422.9794961185737066
  Basis Set: 6-31G*
  Basis Set:
  Basis Set: 6-31G*
  Basis Set:
  @DF-RHF Final Energy:  -422.97950112638313
    Total Energy =                       -422.9795011263830702
  Basis Set: 6-31G*
  Basis Set:
  Charge       = 0
  Multiplicity = 1
  Basis Set: 6-31G*
  Basis Set:

    Orbital Energies (a.u.)
    -----------------------

    Doubly Occupied:

       1A    -20.603008     2A    -20.540545     3A    -11.374094
       4A    -11.281498     5A    -11.232393     6A    -11.224462
       7A    -11.223846     8A    -11.221707     9A    -11.212976
      10A     -1.467969    11A     -1.360747    12A     -1.094262
      13A     -1.042253    14A     -1.003456    15A     -0.930918
      16A     -0.841651    17A     -0.802678    18A     -0.774410
      19A     -0.692289    20A     -0.685051    21A     -0.667913
      22A     -0.646778    23A     -0.606106    24A     -0.588405
      25A     -0.582150    26A     -0.566794    27A     -0.558661
      28A     -0.537168    29A     -0.523387    30A     -0.504859
      31A     -0.491141    32A     -0.477976    33A     -0.471292
      34A     -0.465590    35A     -0.451243    36A     -0.435327

  @DF-RHF Final Energy:  -422.97950167394589

   => Energetics <=

    Nuclear Repulsion Energy =            449.6159102828465279
    One-Electron Energy =               -1466.8208218057088743
    Two-Electron Energy =                 594.2254098489164562
    DFT Exchange-Correlation Energy =       0.0000000000000000
    Empirical Dispersion Energy =           0.0000000000000000
    PCM Polarization Energy =               0.0000000000000000
    EFP Energy =                            0.0000000000000000
    Total Energy =                       -422.9795016739459470
    Molecular point group: c1
  Basis Set: 6-31G*
  Basis Set:

  -Total Gradient:
     Atom            X                  Y                   Z
    ------   -----------------  -----------------  -----------------
       1        0.000007330808    -0.000006024459    -0.000011370614
       2       -0.000008223931     0.000003237853     0.000031428610
       3       -0.000000622826    -0.000002205844    -0.000006066440
       4        0.000004715450     0.000010710190     0.000003749314
       5       -0.000001352856    -0.000002255522    -0.000001474883
       6       -0.000001014963    -0.000000017108    -0.000000679781
       7        0.000000748936     0.000001717221    -0.000001092515
       8       -0.000019841996     0.000031759336     0.000071048114
       9        0.000314560527    -0.000494169763     0.000189388331
      10        0.000008798851    -0.000018645307     0.000002100211
      11       -0.000029615089     0.000025310252     0.000003089117
      12       -0.000326083869     0.000498017718     0.000149452857
      13       -0.000192486273     0.000338488050    -0.000248181509
      14        0.000030440489    -0.000003542288    -0.000036050156
      15        0.000019986153    -0.000016733114     0.000114212622
      16        0.000196898203    -0.000330120673    -0.000230467082
      17       -0.000029502824    -0.000019395527    -0.000040237447
      18        0.000003878524    -0.000011089457    -0.000010344818
      19       -0.000007375297     0.000019121369     0.000012311677
      20        0.000028357040    -0.000025471460     0.000014532459
      21       -0.000005527571     0.000010811461     0.000001481270
      22        0.000002887747     0.000000717481    -0.000011672183
      23        0.000003044769    -0.000010220407     0.000004842848

  **** Optimization is complete! (in 5 steps) ****
    Final optimized geometry and variables:
    Molecular point group: c1

    Geometry (in Angstrom), charge = 0, multiplicity = 1:

    O           -2.821478771103     1.308739571321    -0.019520339624
    C           -2.668347696324     0.129259675090    -0.021210555361
    C           -3.801333039552    -0.864514563552    -0.028427397394
    O           -1.481545315963    -0.455126844882    -0.017029897619
    H           -4.413831324686    -0.687506145336    -0.904422680474
    H           -3.443529649456    -1.883543097478    -0.030216848782
    H           -4.420156263094    -0.692917829683     0.844208938818
    C           -0.333983951958     0.388168091640    -0.009842648018
    C            0.892339478522    -0.505379625046    -0.005969707783
    H           -0.360905005191     1.026395682620    -0.883209639982
    H           -0.369411425211     1.022775372303     0.865802461595
    C            2.191876252946     0.301944762029    -0.008947484233
    H            0.855260636643    -1.152781678443    -0.877645130446
    H            0.854672450931    -1.149634043437     0.867972673912
    C            3.440327951734    -0.579589450786     0.063959336404
    H            2.238286923577     0.911081945813    -0.909879463458
    H            2.193826083321     0.994597257862     0.830791010383
    C            4.739034851880     0.225390098685     0.048112684215
    H            3.436933945164    -1.276637016271    -0.771051366121
    H            3.400963003460    -1.184555983583     0.967020524087
    H            4.823126425061     0.816653546135    -0.859275970293
    H            5.605402027051    -0.426539664493     0.099289130722
    H            4.788046938587     0.907516329626     0.892114572365

  Mulliken Charges: (a.u.)
   Center  Symbol    Alpha    Beta     Spin     Total
       1     O     4.28391  4.28391  0.00000 -0.56781
       2     C     2.61532  2.61532  0.00000  0.76936
       3     C     3.28774  3.28774  0.00000 -0.57548
       4     O     4.31275  4.31275  0.00000 -0.62549
       5     H     0.39750  0.39750  0.00000  0.20500
       6     H     0.39986  0.39986  0.00000  0.20028
       7     H     0.39751  0.39751  0.00000  0.20499
       8     C     2.99567  2.99567  0.00000  0.00867
       9     C     3.16477  3.16477  0.00000 -0.32954
      10     H     0.41069  0.41069  0.00000  0.17862
      11     H     0.41063  0.41063  0.00000  0.17874
      12     C     3.16002  3.16002  0.00000 -0.32003
      13     H     0.41410  0.41410  0.00000  0.17180
      14     H     0.41430  0.41430  0.00000  0.17140
      15     C     3.15146  3.15146  0.00000 -0.30292
      16     H     0.42058  0.42058  0.00000  0.15885
      17     H     0.42086  0.42086  0.00000  0.15828
      18     C     3.23987  3.23987  0.00000 -0.47973
      19     H     0.42142  0.42142  0.00000  0.15716
      20     H     0.42138  0.42138  0.00000  0.15724
      21     H     0.42086  0.42086  0.00000  0.15827
      22     H     0.41799  0.41799  0.00000  0.16402
      23     H     0.42083  0.42083  0.00000  0.15833

   Total alpha = 36.00000, Total beta = 36.00000, Total charge =  0.00000
