  ==> Input File <==

--------------------------------------------------------------------------
set {
	reference rhf
	basis 6-31G*
}

set_num_threads( 1 )
memory 2 gb

molecule MOL {
0 1

H	 -3.489934	 -0.094634	 -2.425580
C	 -2.534570	 -0.010230	 -1.938815
C	 -2.152420	 1.195670	 -1.370559
C	 -1.689524	 -1.107300	 -1.881674
H	 -2.808738	 2.045721	 -1.415576
C	 -0.923861	 1.303424	 -0.744849
H	 -1.987461	 -2.041273	 -2.322736
C	 -0.459249	 -1.001764	 -1.255847
H	 -0.611620	 2.228635	 -0.299695
C	 -0.073317	 0.205445	 -0.685353
H	 0.197849	 -1.848154	 -1.209289
C	 1.239129	 0.373821	 0.000060
O	 1.970282	 -0.730723	 0.000018
O	 1.603228	 1.391946	 0.499774
C	 3.377318	 -0.566646	 -0.000065
H	 3.695437	 -0.028981	 -0.881264
H	 3.789299	 -1.563704	 0.000236
H	 3.695516	 -0.028316	 0.880770

	symmetry c1
}
set optking {
	frozen_dihedral = ("
		12 13 15 16,
		13 12 10 6
	")
}

ee = energy('scf')
oeprop('DIPOLE', 'QUADRUPOLE', 'MULLIKEN_CHARGES')
f=open( 'psi4out.xyz', 'w' )
f.write( "18  " )
f.write( str(ee) + "\n" )
f.write( MOL.save_string_xyz() )
f.close()
--------------------------------------------------------------------------

    Molecular point group: c1

    Geometry (in Angstrom), charge = 0, multiplicity = 1:

       Center              X                  Y                   Z               Mass
    ------------   -----------------  -----------------  -----------------  -----------------
           H         -3.644725915314    -0.197124831395    -1.732727468799     1.007825032070
           C         -2.689361915314    -0.112720831395    -1.245962468799    12.000000000000
           C         -2.307211915314     1.093179168605    -0.677706468799    12.000000000000
           C         -1.844315915314    -1.209790831395    -1.188821468799    12.000000000000
           H         -2.963529915314     1.943230168605    -0.722723468799     1.007825032070
           C         -1.078652915314     1.200933168605    -0.051996468799    12.000000000000
           H         -2.142252915314    -2.143763831395    -1.629883468799     1.007825032070
           C         -0.614040915314    -1.104254831395    -0.562994468799    12.000000000000
           H         -0.766411915314     2.126144168605     0.393157531201     1.007825032070
           C         -0.228108915314     0.102954168605     0.007499531201    12.000000000000
           H          0.043057084686    -1.950644831395    -0.516436468799     1.007825032070
           C          1.084337084686     0.271330168605     0.692912531201    12.000000000000
           O          1.815490084686    -0.833213831395     0.692870531201    15.994914619560
           O          1.448436084686     1.289455168605     1.192626531201    15.994914619560
           C          3.222526084686    -0.669136831395     0.692787531201    12.000000000000
           H          3.540645084686    -0.131471831395    -0.188411468799     1.007825032070
           H          3.634507084686    -1.666194831395     0.693088531201     1.007825032070
           H          3.540724084686    -0.130806831395     1.573622531201     1.007825032070

  Charge       = 0
  Multiplicity = 1
  Basis Set: 6-31G*
  Basis Set:

    Orbital Energies (a.u.)
    -----------------------

    Doubly Occupied:

       1A    -20.602646     2A    -20.545807     3A    -11.377965
       4A    -11.284744     5A    -11.245937     6A    -11.245593
       7A    -11.244416     8A    -11.242088     9A    -11.237858
      10A    -11.237099    11A     -1.470971    12A     -1.364048
      13A     -1.165609    14A     -1.047556    15A     -1.025216
      16A     -0.978340    17A     -0.861812    18A     -0.834802
      19A     -0.777993    20A     -0.739650    21A     -0.683083
      22A     -0.676027    23A     -0.670944    24A     -0.632053
      25A     -0.624314    26A     -0.598675    27A     -0.589528
      28A     -0.560796    29A     -0.528094    30A     -0.517109
      31A     -0.502665    32A     -0.498997    33A     -0.458210
      34A     -0.442993    35A     -0.345402    36A     -0.341380

  @DF-RHF Final Energy:  -457.34567222810841

   => Energetics <=

    Nuclear Repulsion Energy =            493.3952708968382126
    One-Electron Energy =               -1601.0808939897870005
    Two-Electron Energy =                 650.3399508648396932
    DFT Exchange-Correlation Energy =       0.0000000000000000
    Empirical Dispersion Energy =           0.0000000000000000
    PCM Polarization Energy =               0.0000000000000000
    EFP Energy =                            0.0000000000000000
    Total Energy =                       -457.3456722281091515

  Mulliken Charges: (a.u.)
   Center  Symbol    Alpha    Beta     Spin     Total
       1     H     0.39523  0.39523  0.00000  0.20954
       2     C     3.08978  3.08978  0.00000 -0.17957
       3     C     3.10709  3.10709  0.00000 -0.21418
       4     C     3.10709  3.10709  0.00000 -0.21417
       5     H     0.39530  0.39530  0.00000  0.20941
       6     C     3.08634  3.08634  0.00000 -0.17267
       7     H     0.39622  0.39622  0.00000  0.20755
       8     C     3.08720  3.08720  0.00000 -0.17440
       9     H     0.37593  0.37593  0.00000  0.24814
      10     C     3.07880  3.07880  0.00000 -0.15759
      11     H     0.38097  0.38097  0.00000  0.23805
      12     C     2.58024  2.58024  0.00000  0.83952
      13     O     4.31574  4.31574  0.00000 -0.63149
      14     O     4.28686  4.28686  0.00000 -0.57372
      15     C     3.09506  3.09506  0.00000 -0.19011
      16     H     0.41300  0.41300  0.00000  0.17400
      17     H     0.40721  0.40721  0.00000  0.18557
      18     H     0.40194  0.40194  0.00000  0.19611

   Total alpha = 36.00000, Total beta = 36.00000, Total charge = -0.00000
