  ==> Input File <==

--------------------------------------------------------------------------
set {
	reference rhf
	basis 6-31G*
}

set_num_threads( 1 )
memory 2 gb

molecule MOL {
0 1

O	 0.749854	 1.307668	 -0.000040
C	 0.576249	 0.131685	 -0.000108
C	 -0.766779	 -0.556801	 -0.000461
O	 1.568443	 -0.749345	 -0.000005
C	 -1.945214	 0.412366	 0.000161
H	 -0.796911	 -1.211249	 -0.867467
H	 -0.796854	 -1.212390	 0.865687
C	 -1.562234	 1.781453	 -0.559746
H	 -2.321103	 0.518268	 1.012136
H	 -2.757256	 -0.011138	 -0.581050
H	 -0.770561	 2.241040	 0.025478
H	 -2.412762	 2.455184	 -0.550151
H	 -1.212639	 1.705926	 -1.585686
C	 2.886820	 -0.232538	 0.000322
H	 3.059106	 0.369571	 -0.880203
H	 3.540187	 -1.091012	 0.000050
H	 3.059019	 0.368956	 0.881266

	symmetry c1
}
set optking {
	frozen_dihedral = ("
		1 2 3 6,
		14 4 2 1
	")
}

ee = energy('scf')
oeprop('DIPOLE', 'QUADRUPOLE', 'MULLIKEN_CHARGES')
f=open( 'psi4out.xyz', 'w' )
f.write( "17  " )
f.write( str(ee) + "\n" )
f.write( MOL.save_string_xyz() )
f.close()
--------------------------------------------------------------------------

    Molecular point group: c1

    Geometry (in Angstrom), charge = 0, multiplicity = 1:

       Center              X                  Y                   Z               Mass
    ------------   -----------------  -----------------  -----------------  -----------------
           O          0.495844507876     0.998758427787     0.082373516467    15.994914619560
           C          0.322239507876    -0.177224572213     0.082305516467    12.000000000000
           C         -1.020788492124    -0.865710572213     0.081952516467    12.000000000000
           O          1.314433507876    -1.058254572213     0.082408516467    15.994914619560
           C         -2.199223492124     0.103456427787     0.082574516467    12.000000000000
           H         -1.050920492124    -1.520158572213    -0.785053483533     1.007825032070
           H         -1.050863492124    -1.521299572213     0.948100516467     1.007825032070
           C         -1.816243492124     1.472543427787    -0.477332483533    12.000000000000
           H         -2.575112492124     0.209358427787     1.094549516467     1.007825032070
           H         -3.011265492124    -0.320047572213    -0.498636483533     1.007825032070
           H         -1.024570492124     1.932130427787     0.107891516467     1.007825032070
           H         -2.666771492124     2.146274427787    -0.467737483533     1.007825032070
           H         -1.466648492124     1.397016427787    -1.503272483533     1.007825032070
           C          2.632810507876    -0.541447572213     0.082735516467    12.000000000000
           H          2.805096507876     0.060661427787    -0.797789483533     1.007825032070
           H          3.286177507876    -1.399921572213     0.082463516467     1.007825032070
           H          2.805009507876     0.060046427787     0.963679516467     1.007825032070

  Charge       = 0
  Multiplicity = 1
  Basis Set: 6-31G*
  Basis Set:

    Orbital Energies (a.u.)
    -----------------------

    Doubly Occupied:

       1A    -20.606613     2A    -20.544398     3A    -11.377179
       4A    -11.282992     5A    -11.236129     6A    -11.218474
       7A    -11.182021     8A     -1.473919     9A     -1.370206
      10A     -1.077454    11A     -0.998315    12A     -0.931415
      13A     -0.824866    14A     -0.774971    15A     -0.698926
      16A     -0.686222    17A     -0.672778    18A     -0.630945
      19A     -0.614650    20A     -0.559309    21A     -0.551869
      22A     -0.531256    23A     -0.520005    24A     -0.512230
      25A     -0.476010    26A     -0.468066    27A     -0.456857
      28A     -0.406548

  @DF-RHF Final Energy:  -344.87569289611770

   => Energetics <=

    Nuclear Repulsion Energy =            324.5272571943560251
    One-Electron Energy =               -1113.4367537613284185
    Two-Electron Energy =                 444.0338036708540130
    DFT Exchange-Correlation Energy =       0.0000000000000000
    Empirical Dispersion Energy =           0.0000000000000000
    PCM Polarization Energy =               0.0000000000000000
    EFP Energy =                            0.0000000000000000
    Total Energy =                       -344.8756928961183803

  Mulliken Charges: (a.u.)
   Center  Symbol    Alpha    Beta     Spin     Total
       1     O     4.28773  4.28773  0.00000 -0.57546
       2     C     2.60361  2.60361  0.00000  0.79277
       3     C     3.21059  3.21059  0.00000 -0.42119
       4     O     4.30657  4.30657  0.00000 -0.61313
       5     C     3.15551  3.15551  0.00000 -0.31101
       6     H     0.39802  0.39802  0.00000  0.20396
       7     H     0.39713  0.39713  0.00000  0.20575
       8     C     3.25011  3.25011  0.00000 -0.50023
       9     H     0.41775  0.41775  0.00000  0.16449
      10     H     0.41731  0.41731  0.00000  0.16539
      11     H     0.37911  0.37911  0.00000  0.24178
      12     H     0.42984  0.42984  0.00000  0.14032
      13     H     0.42824  0.42824  0.00000  0.14352
      14     C     3.09272  3.09272  0.00000 -0.18545
      15     H     0.40884  0.40884  0.00000  0.18231
      16     H     0.40787  0.40787  0.00000  0.18425
      17     H     0.40905  0.40905  0.00000  0.18191

   Total alpha = 28.00000, Total beta = 28.00000, Total charge = -0.00000
