  ==> Input File <==

--------------------------------------------------------------------------
set {
	reference rhf
	basis 6-31G*
}

set_num_threads( 1 )
memory 2 gb

molecule MOL {
0 1

H	 -2.224519	 -0.067785	 2.554439
C	 -1.953753	 -1.120146	 2.612425
O	 -0.772315	 -1.380270	 1.925492
H	 -1.793222	 -1.383682	 3.648726
H	 -2.781842	 -1.711363	 2.223634
C	 -0.829279	 -1.093231	 0.564017
C	 0.534113	 -1.309904	 -0.049515
H	 -1.552054	 -1.744040	 0.070317
H	 -1.137459	 -0.062923	 0.398203
O	 1.392611	 -0.295398	 0.366430
H	 0.912140	 -2.284710	 0.251908
H	 0.442800	 -1.306009	 -1.136410
C	 2.706965	 -0.449871	 -0.062409
H	 2.756559	 -0.644779	 -1.131878
H	 3.305899	 0.433456	 0.155466
H	 3.125548	 -1.294566	 0.467107

	symmetry c1
}
set optking {
	frozen_dihedral = ("
		3 6 7 11,
		2 3 6 7
	")
}

ee = energy('scf')
oeprop('DIPOLE', 'QUADRUPOLE', 'MULLIKEN_CHARGES')
f=open( 'psi4out.xyz', 'w' )
f.write( "16  " )
f.write( str(ee) + "\n" )
f.write( MOL.save_string_xyz() )
f.close()
--------------------------------------------------------------------------

    Molecular point group: c1

    Geometry (in Angstrom), charge = 0, multiplicity = 1:

       Center              X                  Y                   Z               Mass
    ------------   -----------------  -----------------  -----------------  -----------------
           H         -2.407494256600     0.871783845200     1.655191179102     1.007825032070
           C         -2.136728256600    -0.180577154800     1.713177179102    12.000000000000
           O         -0.955290256600    -0.440701154800     1.026244179102    15.994914619560
           H         -1.976197256600    -0.444113154800     2.749478179102     1.007825032070
           H         -2.964817256600    -0.771794154800     1.324386179102     1.007825032070
           C         -1.012254256600    -0.153662154800    -0.335230820898    12.000000000000
           C          0.351137743400    -0.370335154800    -0.948762820898    12.000000000000
           H         -1.735029256600    -0.804471154800    -0.828930820898     1.007825032070
           H         -1.320434256600     0.876645845200    -0.501044820898     1.007825032070
           O          1.209635743400     0.644170845200    -0.532817820898    15.994914619560
           H          0.729164743400    -1.345141154800    -0.647339820898     1.007825032070
           H          0.259824743400    -0.366440154800    -2.035657820898     1.007825032070
           C          2.523989743400     0.489697845200    -0.961656820898    12.000000000000
           H          2.573583743400     0.294789845200    -2.031125820898     1.007825032070
           H          3.122923743400     1.373024845200    -0.743781820898     1.007825032070
           H          2.942572743400    -0.354997154800    -0.432140820898     1.007825032070

  Charge       = 0
  Multiplicity = 1
  Basis Set: 6-31G*
  Basis Set:

    Orbital Energies (a.u.)
    -----------------------

    Doubly Occupied:

       1A    -20.553622     2A    -20.552150     3A    -11.269481
       4A    -11.268703     5A    -11.263745     6A    -11.263550
       7A     -1.388088     8A     -1.370445     9A     -1.030636
      10A     -0.935660    11A     -0.892175    12A     -0.824250
      13A     -0.684763    14A     -0.680263    15A     -0.656289
      16A     -0.636964    17A     -0.628741    18A     -0.597557
      19A     -0.551737    20A     -0.535255    21A     -0.509529
      22A     -0.476777    23A     -0.462111    24A     -0.419188
      25A     -0.409774

  @DF-RHF Final Energy:  -306.97632284734522

   => Energetics <=

    Nuclear Repulsion Energy =            258.8883590269711590
    One-Electron Energy =                -932.0063589366473025
    Two-Electron Energy =                 366.1416770623312686
    DFT Exchange-Correlation Energy =       0.0000000000000000
    Empirical Dispersion Energy =           0.0000000000000000
    PCM Polarization Energy =               0.0000000000000000
    EFP Energy =                            0.0000000000000000
    Total Energy =                       -306.9763228473449317

  Mulliken Charges: (a.u.)
   Center  Symbol    Alpha    Beta     Spin     Total
       1     H     0.42803  0.42803  0.00000  0.14394
       2     C     3.07954  3.07954  0.00000 -0.15909
       3     O     4.30087  4.30087  0.00000 -0.60175
       4     H     0.41127  0.41127  0.00000  0.17746
       5     H     0.43189  0.43189  0.00000  0.13622
       6     C     2.99319  2.99319  0.00000  0.01363
       7     C     2.99337  2.99337  0.00000  0.01327
       8     H     0.43225  0.43225  0.00000  0.13549
       9     H     0.42258  0.42258  0.00000  0.15485
      10     O     4.30186  4.30186  0.00000 -0.60371
      11     H     0.42317  0.42317  0.00000  0.15366
      12     H     0.43187  0.43187  0.00000  0.13627
      13     C     3.07947  3.07947  0.00000 -0.15894
      14     H     0.43251  0.43251  0.00000  0.13498
      15     H     0.41201  0.41201  0.00000  0.17599
      16     H     0.42613  0.42613  0.00000  0.14773

   Total alpha = 25.00000, Total beta = 25.00000, Total charge =  0.00000
