                              Psi4 1.0.54 Driver

  ==> Input File <==

--------------------------------------------------------------------------
set {
	reference rhf
	basis cc-pvtz
}

set_num_threads( 4 )
memory 2 gb

molecule MOL {
0 1

O	 -2.817697	 1.304178	 0.001046
C	 -2.664672	 0.129869	 0.003507
C	 -3.797908	 -0.860100	 -0.001145
O	 -1.481217	 -0.452708	 0.001092
H	 -4.408836	 -0.679689	 -0.875387
H	 -3.443486	 -1.878443	 -0.002770
H	 -4.412123	 -0.683688	 0.871605
C	 -0.332055	 0.384012	 -0.000250
C	 0.892252	 -0.506059	 -0.000295
H	 -0.360822	 1.020205	 -0.874146
H	 -0.359817	 1.021310	 0.872861
C	 1.478404	 -0.676932	 1.398129
H	 1.636940	 -0.080035	 -0.664835
H	 0.623502	 -1.474165	 -0.410429
C	 2.714512	 -1.571666	 1.422897
H	 1.735080	 0.297911	 1.805286
H	 0.722792	 -1.093590	 2.059507
C	 3.299864	 -1.743635	 2.820323
H	 3.470980	 -1.155395	 0.763707
H	 2.459201	 -2.546172	 1.016399
H	 3.596983	 -0.788642	 3.240506
H	 4.174517	 -2.383312	 2.802961
H	 2.577240	 -2.189901	 3.495241

	symmetry c1
}
set optking {
	frozen_dihedral = ("
		13 9 8 10
	")
}

ee,wfn = optimize('scf', return_wfn=True)
oeprop( wfn, 'DIPOLE', 'QUADRUPOLE', 'MULLIKEN_CHARGES')
f=open( 'psi4out.xyz', 'w' )
f.write( "23  " )
f.write( str(ee) + "\n" )
f.write( MOL.save_string_xyz() )
f.close()
--------------------------------------------------------------------------

    Molecular point group: c1
  Charge       = 0
  Multiplicity = 1
  Basis Set: CC-PVTZ
  Basis Set:
  @DF-RHF Final Energy:  -423.13057397143382
    Total Energy =                       -423.1305739714338188
    Molecular point group: c1
  Basis Set: CC-PVTZ
  Basis Set:
  Basis Set: CC-PVTZ
  Basis Set:
  @DF-RHF Final Energy:  -423.13093221572387
    Total Energy =                       -423.1309322157241013
  Basis Set: CC-PVTZ
  Basis Set:
  Basis Set: CC-PVTZ
  Basis Set:
  @DF-RHF Final Energy:  -423.12926579443933
    Total Energy =                       -423.1292657944391067
  Basis Set: CC-PVTZ
  Basis Set:
  Basis Set: CC-PVTZ
  Basis Set:
  @DF-RHF Final Energy:  -423.13112262132927
    Total Energy =                       -423.1311226213297232
  Basis Set: CC-PVTZ
  Basis Set:
  Basis Set: CC-PVTZ
  Basis Set:
  @DF-RHF Final Energy:  -423.13114332358390
    Total Energy =                       -423.1311433235847517
  Basis Set: CC-PVTZ
  Basis Set:
  Basis Set: CC-PVTZ
  Basis Set:
  @DF-RHF Final Energy:  -423.13114647442029
    Total Energy =                       -423.1311464744205750
  Basis Set: CC-PVTZ
  Basis Set:
  Charge       = 0
  Multiplicity = 1
  Basis Set: CC-PVTZ
  Basis Set:

    Orbital Energies (a.u.)
    -----------------------

    Doubly Occupied:

       1A    -20.596747     2A    -20.529958     3A    -11.366712
       4A    -11.279542     5A    -11.231121     6A    -11.222327
       7A    -11.218794     8A    -11.217924     9A    -11.210121
      10A     -1.471597    11A     -1.364497    12A     -1.092890
      13A     -1.042341    14A     -1.003585    15A     -0.931893
      16A     -0.843710    17A     -0.800028    18A     -0.783637
      19A     -0.691271    20A     -0.683900    21A     -0.670381
      22A     -0.644920    23A     -0.609375    24A     -0.584848
      25A     -0.578621    26A     -0.574726    27A     -0.559888
      28A     -0.535796    29A     -0.529834    30A     -0.503544
      31A     -0.498725    32A     -0.475046    33A     -0.470886
      34A     -0.465504    35A     -0.447300    36A     -0.440123

  @DF-RHF Final Energy:  -423.13114719016914

   => Energetics <=

    Nuclear Repulsion Energy =            455.2092546539283830
    One-Electron Energy =               -1478.3365836606399171
    Two-Electron Energy =                 599.9961818165423892
    DFT Exchange-Correlation Energy =       0.0000000000000000
    Empirical Dispersion Energy =           0.0000000000000000
    PCM Polarization Energy =               0.0000000000000000
    EFP Energy =                            0.0000000000000000
    Total Energy =                       -423.1311471901691448
    Molecular point group: c1
  Basis Set: CC-PVTZ
  Basis Set:

  -Total Gradient:
     Atom            X                  Y                   Z
    ------   -----------------  -----------------  -----------------
       1        0.000038688238    -0.000140511721     0.000002168006
       2        0.000015375624     0.000056294860    -0.000004980626
       3       -0.000030386737     0.000012994661    -0.000004388555
       4       -0.000116695138     0.000041561670    -0.000003499176
       5        0.000016868297    -0.000006826466     0.000035480204
       6       -0.000013050644     0.000017260095    -0.000000305626
       7        0.000018168536    -0.000011037236    -0.000030092553
       8       -0.003006738733    -0.004880560157    -0.003584653045
       9        0.002453520058     0.004069177076     0.004747917841
      10        0.002156833548     0.003411924298     0.002226742795
      11        0.000002285698    -0.000012668029    -0.000005870296
      12       -0.000011655022    -0.000011096101    -0.000013518932
      13       -0.001515427937    -0.002544833510    -0.003396489254
      14       -0.000004243037     0.000004471392     0.000011399975
      15       -0.000009752680    -0.000008434434     0.000006870299
      16        0.000000951004    -0.000016179639     0.000000093410
      17        0.000010884343    -0.000003004240     0.000003541177
      18        0.000013967857     0.000009895060     0.000004399186
      19       -0.000016701246    -0.000003518480     0.000003665572
      20       -0.000006945402     0.000013304625     0.000004577196
      21       -0.000001775528    -0.000007310483     0.000002735824
      22       -0.000001538662     0.000007904594     0.000004704959
      23        0.000007367561     0.000001192162    -0.000010498386

  **** Optimization is complete! (in 7 steps) ****
    Final optimized geometry and variables:
    Molecular point group: c1

    Geometry (in Angstrom), charge = 0, multiplicity = 1:

    O           -2.534853140084     1.683690864051    -0.684145708706
    C           -2.347892257651     0.515119989018    -0.643929335516
    C           -3.452293463496    -0.505827195472    -0.590733278211
    O           -1.148125618844    -0.033429675065    -0.642306560608
    H           -4.081942129499    -0.376897170396    -1.460775389466
    H           -3.069236130732    -1.513281242003    -0.559105419929
    H           -4.057269306527    -0.312576098885     0.284905183035
    C           -0.023985689046     0.835349465581    -0.688231878065
    C            1.244555731299    -0.005736499834    -0.625346644162
    H           -0.064075570507     1.441485111254    -1.581474698343
    H           -0.083129402946     1.519056681147     0.147920578447
    C            1.803493367914    -0.183803387798     0.782152967226
    H            1.988093600108     0.428452957375    -1.285843028231
    H            1.018100387412    -0.977261421318    -1.052188303489
    C            3.034321946850    -1.083439899177     0.831578211203
    H            2.053764537586     0.790204139433     1.195269236991
    H            1.028405453438    -0.597660330166     1.422093880468
    C            3.597574853459    -1.249868960070     2.238846423982
    H            3.803457581856    -0.674771800764     0.181676474301
    H            2.781026796168    -2.059307009690     0.426784138095
    H            3.892984812434    -0.293816949873     2.657961270486
    H            4.469183791536    -1.894030496827     2.238978368657
    H            2.862134868289    -1.688321858010     2.905046953680

  Mulliken Charges: (a.u.)
   Center  Symbol    Alpha    Beta     Spin     Total
       1     O     4.20223  4.20223  0.00000 -0.40445
       2     C     2.81266  2.81266  0.00000  0.37468
       3     C     3.13924  3.13924  0.00000 -0.27848
       4     O     4.14816  4.14816  0.00000 -0.29632
       5     H     0.44182  0.44182  0.00000  0.11636
       6     H     0.44229  0.44229  0.00000  0.11541
       7     H     0.44208  0.44208  0.00000  0.11584
       8     C     2.98481  2.98481  0.00000  0.03038
       9     C     3.09061  3.09061  0.00000 -0.18122
      10     H     0.44719  0.44719  0.00000  0.10563
      11     H     0.45533  0.45533  0.00000  0.08935
      12     C     3.08942  3.08942  0.00000 -0.17884
      13     H     0.44819  0.44819  0.00000  0.10362
      14     H     0.45007  0.45007  0.00000  0.09985
      15     C     3.08629  3.08629  0.00000 -0.17259
      16     H     0.45371  0.45371  0.00000  0.09257
      17     H     0.45129  0.45129  0.00000  0.09743
      18     C     3.14966  3.14966  0.00000 -0.29933
      19     H     0.45442  0.45442  0.00000  0.09117
      20     H     0.45324  0.45324  0.00000  0.09353
      21     H     0.45471  0.45471  0.00000  0.09058
      22     H     0.44788  0.44788  0.00000  0.10423
      23     H     0.45470  0.45470  0.00000  0.09061

   Total alpha = 36.00000, Total beta = 36.00000, Total charge =  0.00000

*** Psi4 exiting successfully. Buy a developer a beer!
