  ==> Input File <==

--------------------------------------------------------------------------
set {
	reference rhf
	basis cc-pvtz
}

set_num_threads( 4 )
memory 2 gb

molecule MOL {
0 1

H	 1.368954	 1.151303	 1.422151
C	 0.467328	 1.267998	 0.838915
O	 -0.000000	 0.000000	 0.518769
H	 -0.260164	 1.824299	 1.426402
H	 0.700167	 1.844187	 -0.054196
C	 -1.165153	 0.000000	 -0.236961
H	 -1.229451	 0.882440	 -0.870223
H	 -2.002557	 0.000000	 0.445289
H	 -1.229451	 -0.882440	 -0.870223

	symmetry c1
}
set optking {
	frozen_dihedral = ("
		2 3 6 7
	")
}

ee = optimize('scf')
oeprop('DIPOLE', 'QUADRUPOLE', 'MULLIKEN_CHARGES')
f=open( 'psi4out.xyz', 'w' )
f.write( "9  " )
f.write( str(ee) + "\n" )
f.write( MOL.save_string_xyz() )
f.close()
--------------------------------------------------------------------------

    Molecular point group: c1
  Charge       = 0
  Multiplicity = 1
  Basis Set: CC-PVTZ
  Basis Set:
  @DF-RHF Final Energy:  -154.12452192708491
    Total Energy =                       -154.1245219270847997
    Molecular point group: c1
  Basis Set: CC-PVTZ
  Basis Set:
  Basis Set: CC-PVTZ
  Basis Set:
  @DF-RHF Final Energy:  -154.12516353892667
    Total Energy =                       -154.1251635389266426
  Basis Set: CC-PVTZ
  Basis Set:
  Basis Set: CC-PVTZ
  Basis Set:
  @DF-RHF Final Energy:  -154.12529509067218
    Total Energy =                       -154.1252950906723527
  Basis Set: CC-PVTZ
  Basis Set:
  Charge       = 0
  Multiplicity = 1
  Basis Set: CC-PVTZ
  Basis Set:

    Orbital Energies (a.u.)
    -----------------------

    Doubly Occupied:

       1A    -20.548501     2A    -11.263486     3A    -11.262945
       4A     -1.380327     5A     -0.975841     6A     -0.872784
       7A     -0.661297     8A     -0.655565     9A     -0.646106
      10A     -0.554855    11A     -0.529123    12A     -0.476603
      13A     -0.417202

  @DF-RHF Final Energy:  -154.12529626602731

   => Energetics <=

    Nuclear Repulsion Energy =             84.7253437963605336
    One-Electron Energy =                -377.2120128048622973
    Two-Electron Energy =                 138.3613727424744866
    DFT Exchange-Correlation Energy =       0.0000000000000000
    Empirical Dispersion Energy =           0.0000000000000000
    PCM Polarization Energy =               0.0000000000000000
    EFP Energy =                            0.0000000000000000
    Total Energy =                       -154.1252962660272487
    Molecular point group: c1
  Basis Set: CC-PVTZ
  Basis Set:

  -Total Gradient:
     Atom            X                  Y                   Z
    ------   -----------------  -----------------  -----------------
       1       -0.000020472881    -0.000056249180    -0.000001042113
       2        0.001201688933     0.000123856898    -0.002058628653
       3       -0.002214472764     0.000289697544     0.003405838440
       4       -0.000000314017    -0.000045372510    -0.000007718356
       5        0.000002028468     0.000008071090    -0.000003253961
       6        0.002259476322    -0.001764606778    -0.003535266925
       7       -0.001315542091     0.001441361464     0.002156293924
       8        0.000009780711    -0.000003930459     0.000016795238
       9        0.000077827319     0.000007171931     0.000026982405

  **** Optimization is complete! (in 4 steps) ****
    Final optimized geometry and variables:
    Molecular point group: c1

    Geometry (in Angstrom), charge = 0, multiplicity = 1:

    H            1.622069063595     0.700667421705     1.047611786867
    C            0.718295799590     0.831188612068     0.470089626858
    O            0.238417314060    -0.431005648400     0.144424253203
    H            0.003176087259     1.393519758879     1.067452522313
    H            0.952121008896     1.409234686652    -0.420879129074
    C           -0.935977932545    -0.438427561333    -0.602506136846
    H           -1.014785577951     0.440481642612    -1.236543500949
    H           -1.808675380981    -0.454195216914     0.046359234909
    H           -0.945857125545    -1.325874424464    -1.219457919173

  Mulliken Charges: (a.u.)
   Center  Symbol    Alpha    Beta     Spin     Total
       1     H     0.44915  0.44915  0.00000  0.10170
       2     C     3.02152  3.02152  0.00000 -0.04304
       3     O     4.17013  4.17013  0.00000 -0.34025
       4     H     0.47371  0.47371  0.00000  0.05259
       5     H     0.47217  0.47217  0.00000  0.05566
       6     C     3.01905  3.01905  0.00000 -0.03811
       7     H     0.47554  0.47554  0.00000  0.04892
       8     H     0.46698  0.46698  0.00000  0.06603
       9     H     0.45175  0.45175  0.00000  0.09650

   Total alpha = 13.00000, Total beta = 13.00000, Total charge =  0.00000
