  ==> Input File <==

--------------------------------------------------------------------------
set {
	reference rhf
	basis 6-31G*
}

set_num_threads( 1 )
memory 2 gb

molecule MOL {
0 1

O	 0.074228	 1.262779	 -0.000085
C	 0.028650	 0.075053	 -0.000277
C	 -1.233602	 -0.752807	 0.000328
O	 1.109162	 -0.694619	 -0.000298
C	 -2.501530	 0.091881	 0.000126
H	 -1.193807	 -1.406641	 -0.865785
H	 -1.193516	 -1.405779	 0.867015
H	 -2.545121	 0.729328	 -0.874513
H	 -3.377167	 -0.548497	 0.000561
H	 -2.544818	 0.730135	 0.874258
C	 0.998629	 -1.957408	 0.631156
H	 0.749436	 -1.839074	 1.675815
H	 1.965569	 -2.424544	 0.527840
H	 0.239398	 -2.557387	 0.150463

	symmetry c1
}
set optking {
	frozen_dihedral = ("
		4 2 3 6
	")
}

ee = energy('scf')
oeprop('DIPOLE', 'QUADRUPOLE', 'MULLIKEN_CHARGES')
f=open( 'psi4out.xyz', 'w' )
f.write( "14  " )
f.write( str(ee) + "\n" )
f.write( MOL.save_string_xyz() )
f.close()
--------------------------------------------------------------------------

    Molecular point group: c1

    Geometry (in Angstrom), charge = 0, multiplicity = 1:

       Center              X                  Y                   Z               Mass
    ------------   -----------------  -----------------  -----------------  -----------------
           O          0.318717085292     1.606011026694    -0.113017227682    15.994914619560
           C          0.273139085292     0.418285026694    -0.113209227682    12.000000000000
           C         -0.989112914708    -0.409574973306    -0.112604227682    12.000000000000
           O          1.353651085292    -0.351386973306    -0.113230227682    15.994914619560
           C         -2.257040914708     0.435113026694    -0.112806227682    12.000000000000
           H         -0.949317914708    -1.063408973306    -0.978717227682     1.007825032070
           H         -0.949026914708    -1.062546973306     0.754082772318     1.007825032070
           H         -2.300631914708     1.072560026694    -0.987445227682     1.007825032070
           H         -3.132677914708    -0.205264973306    -0.112371227682     1.007825032070
           H         -2.300328914708     1.073367026694     0.761325772318     1.007825032070
           C          1.243118085292    -1.614175973306     0.518223772318    12.000000000000
           H          0.993925085292    -1.495841973306     1.562882772318     1.007825032070
           H          2.210058085292    -2.081311973306     0.414907772318     1.007825032070
           H          0.483887085292    -2.214154973306     0.037530772318     1.007825032070

  Charge       = 0
  Multiplicity = 1
  Basis Set: 6-31G*
  Basis Set:

    Orbital Energies (a.u.)
    -----------------------

    Doubly Occupied:

       1A    -20.603885     2A    -20.547929     3A    -11.375416
       4A    -11.298288     5A    -11.244778     6A    -11.220397
       7A     -1.468230     8A     -1.370492     9A     -1.065154
      10A     -0.988957    11A     -0.906447    12A     -0.766747
      13A     -0.707986    14A     -0.691982    15A     -0.677572
      16A     -0.626768    17A     -0.608735    18A     -0.564667
      19A     -0.552497    20A     -0.524131    21A     -0.516205
      22A     -0.499851    23A     -0.454674    24A     -0.432700

  @DF-RHF Final Energy:  -305.84636857719732

   => Energetics <=

    Nuclear Repulsion Energy =            250.0443248499871629
    One-Electron Energy =                -912.3523459683375449
    Two-Electron Energy =                 356.4616525411526595
    DFT Exchange-Correlation Energy =       0.0000000000000000
    Empirical Dispersion Energy =           0.0000000000000000
    PCM Polarization Energy =               0.0000000000000000
    EFP Energy =                            0.0000000000000000
    Total Energy =                       -305.8463685771976657

  Mulliken Charges: (a.u.)
   Center  Symbol    Alpha    Beta     Spin     Total
       1     O     4.26837  4.26837  0.00000 -0.53674
       2     C     2.59696  2.59696  0.00000  0.80607
       3     C     3.23933  3.23933  0.00000 -0.47865
       4     O     4.29939  4.29939  0.00000 -0.59878
       5     C     3.23497  3.23497  0.00000 -0.46993
       6     H     0.39835  0.39835  0.00000  0.20329
       7     H     0.40227  0.40227  0.00000  0.19547
       8     H     0.40758  0.40758  0.00000  0.18485
       9     H     0.41917  0.41917  0.00000  0.16167
      10     H     0.40890  0.40890  0.00000  0.18220
      11     C     3.10498  3.10498  0.00000 -0.20997
      12     H     0.41090  0.41090  0.00000  0.17820
      13     H     0.39664  0.39664  0.00000  0.20672
      14     H     0.41220  0.41220  0.00000  0.17560

   Total alpha = 24.00000, Total beta = 24.00000, Total charge = -0.00000
