                              Psi4 1.0.54 Driver

  ==> Input File <==

--------------------------------------------------------------------------
set {
	reference rhf
	basis cc-pvtz
}

set_num_threads( 4 )
memory 2 gb

molecule MOL {
0 1

H	 -2.498963	 -0.741158	 -0.729149
O	 -2.346257	 -0.289210	 0.080372
C	 -1.183935	 0.486039	 -0.009831
C	 0.062853	 -0.375310	 0.027457
H	 -1.178881	 1.094526	 -0.908634
H	 -1.184406	 1.155156	 0.838676
O	 1.171890	 0.462025	 0.046361
H	 0.090855	 -1.027582	 -0.846988
H	 0.038299	 -1.012365	 0.909008
C	 2.393906	 -0.196430	 0.112202
H	 2.542234	 -0.845909	 -0.747711
H	 3.172986	 0.551655	 0.121653
H	 2.473287	 -0.797281	 1.015085

	symmetry c1
}
set optking {
	frozen_dihedral = ("
		8 4 3 5
	")
}

ee,wfn = optimize('scf', return_wfn=True)
oeprop( wfn, 'DIPOLE', 'QUADRUPOLE', 'MULLIKEN_CHARGES')
f=open( 'psi4out.xyz', 'w' )
f.write( "13  " )
f.write( str(ee) + "\n" )
f.write( MOL.save_string_xyz() )
f.close()
--------------------------------------------------------------------------

    Molecular point group: c1
  Charge       = 0
  Multiplicity = 1
  Basis Set: CC-PVTZ
  Basis Set:
  @DF-RHF Final Energy:  -268.06222593545635
    Total Energy =                       -268.0622259354563539
    Molecular point group: c1
  Basis Set: CC-PVTZ
  Basis Set:
  Basis Set: CC-PVTZ
  Basis Set:
  @DF-RHF Final Energy:  -268.06223884685113
    Total Energy =                       -268.0622388468514714
  Basis Set: CC-PVTZ
  Basis Set:
  Charge       = 0
  Multiplicity = 1
  Basis Set: CC-PVTZ
  Basis Set:

    Orbital Energies (a.u.)
    -----------------------

    Doubly Occupied:

       1A    -20.555828     2A    -20.552773     3A    -11.269213
       4A    -11.267686     5A    -11.267568     6A     -1.391829
       7A     -1.369092     8A     -1.019720     9A     -0.913838
      10A     -0.842694    11A     -0.712191    12A     -0.675969
      13A     -0.663246    14A     -0.640203    15A     -0.595931
      16A     -0.571521    17A     -0.547553    18A     -0.491163
      19A     -0.483425    20A     -0.441727    21A     -0.424762

  @DF-RHF Final Energy:  -268.06224230933276

   => Energetics <=

    Nuclear Repulsion Energy =            190.4929746309471454
    One-Electron Energy =                -743.7145666901062668
    Two-Electron Energy =                 285.1593497498263332
    DFT Exchange-Correlation Energy =       0.0000000000000000
    Empirical Dispersion Energy =           0.0000000000000000
    PCM Polarization Energy =               0.0000000000000000
    EFP Energy =                            0.0000000000000000
    Total Energy =                       -268.0622423093327598
    Molecular point group: c1
  Basis Set: CC-PVTZ
  Basis Set:

  -Total Gradient:
     Atom            X                  Y                   Z
    ------   -----------------  -----------------  -----------------
       1        0.000015585878     0.000003501359     0.000000931992
       2        0.000070953384     0.000094961782     0.000018902231
       3        0.000607918093     0.000885778050     0.000457397401
       4       -0.000623656303    -0.000856751982     0.000513958939
       5       -0.000457550904    -0.000660690695    -0.000513091573
       6       -0.000013256702    -0.000030156009     0.000020032562
       7       -0.000098667743    -0.000092837948    -0.000006815390
       8        0.000468207484     0.000641519965    -0.000532761109
       9        0.000002148653     0.000004975730     0.000030777567
      10        0.000045698628     0.000002978918     0.000025884522
      11       -0.000013394611     0.000006943812    -0.000003224337
      12        0.000000918265    -0.000001960203    -0.000006308420
      13       -0.000004904125     0.000001737222    -0.000005684384

  **** Optimization is complete! (in 3 steps) ****
    Final optimized geometry and variables:
    Molecular point group: c1

    Geometry (in Angstrom), charge = 0, multiplicity = 1:

    H           -2.489538174071    -0.741934426548    -0.798612661750
    O           -2.345344522940    -0.299368903384     0.017597739638
    C           -1.184499659748     0.480991145359    -0.052741668427
    C            0.064237597203    -0.377098198045    -0.006081484973
    H           -1.175192513058     1.092173983695    -0.949712132031
    H           -1.196181996882     1.143437651644     0.800634163116
    O            1.170178695304     0.464817693411     0.015707857962
    H            0.103019632480    -1.028191898690    -0.881013372271
    H            0.036261349793    -1.010461078074     0.877800692607
    C            2.395018707651    -0.189120214948     0.072282443366
    H            2.543889689339    -0.829880325844    -0.794073033466
    H            3.171064493981     0.562014797074     0.086881096404
    H            2.479103013137    -0.798164589316     0.969253784376

  Mulliken Charges: (a.u.)
   Center  Symbol    Alpha    Beta     Spin     Total
       1     H     0.39420  0.39420  0.00000  0.21161
       2     O     4.20197  4.20197  0.00000 -0.40393
       3     C     2.97350  2.97350  0.00000  0.05300
       4     C     2.96580  2.96580  0.00000  0.06841
       5     H     0.46674  0.46674  0.00000  0.06652
       6     H     0.45233  0.45233  0.00000  0.09534
       7     O     4.17542  4.17542  0.00000 -0.35084
       8     H     0.48192  0.48192  0.00000  0.03616
       9     H     0.46920  0.46920  0.00000  0.06160
      10     C     3.03182  3.03182  0.00000 -0.06364
      11     H     0.47130  0.47130  0.00000  0.05741
      12     H     0.44592  0.44592  0.00000  0.10817
      13     H     0.46990  0.46990  0.00000  0.06020

   Total alpha = 21.00000, Total beta = 21.00000, Total charge =  0.00000

*** Psi4 exiting successfully. Buy a developer a beer!
