                              Psi4 1.0.54 Driver

  ==> Input File <==

--------------------------------------------------------------------------
set {
	reference rhf
	basis cc-pvtz
}

set_num_threads( 4 )
memory 2 gb

molecule MOL {
0 1

O	 1.013711	 1.625302	 -0.479688
C	 0.535483	 1.053351	 -1.399053
C	 -0.742180	 0.254695	 -1.364594
O	 1.076642	 1.042496	 -2.606284
C	 -1.413045	 0.229353	 0.001137
H	 -1.401557	 0.671833	 -2.118715
H	 -0.502942	 -0.747937	 -1.703648
C	 -2.702562	 -0.586401	 0.000228
H	 -1.621520	 1.245489	 0.316646
H	 -0.722416	 -0.176173	 0.731977
C	 -3.953810	 0.284959	 -0.000782
H	 -2.717793	 -1.238567	 -0.869075
H	 -2.719108	 -1.238472	 0.869576
H	 -3.983727	 0.924403	 -0.876454
H	 -4.852989	 -0.320147	 -0.001515
H	 -3.985140	 0.924399	 0.874841
C	 2.284190	 1.755295	 -2.782533
H	 2.144088	 2.803191	 -2.562274
H	 2.557925	 1.625854	 -3.817029
H	 3.057291	 1.360523	 -2.140121

	symmetry c1
}
set optking {
	frozen_dihedral = ("
		9 5 8 12
	")
}

ee,wfn = optimize('scf', return_wfn=True)
oeprop( wfn, 'DIPOLE', 'QUADRUPOLE', 'MULLIKEN_CHARGES')
f=open( 'psi4out.xyz', 'w' )
f.write( "20  " )
f.write( str(ee) + "\n" )
f.write( MOL.save_string_xyz() )
f.close()
--------------------------------------------------------------------------

    Molecular point group: c1
  Charge       = 0
  Multiplicity = 1
  Basis Set: CC-PVTZ
  Basis Set:
  @DF-RHF Final Energy:  -384.07801701245069
    Total Energy =                       -384.0780170124503456
    Molecular point group: c1
  Basis Set: CC-PVTZ
  Basis Set:
  Basis Set: CC-PVTZ
  Basis Set:
  @DF-RHF Final Energy:  -384.07831480381185
    Total Energy =                       -384.0783148038116224
  Basis Set: CC-PVTZ
  Basis Set:
  Basis Set: CC-PVTZ
  Basis Set:
  @DF-RHF Final Energy:  -384.07821807491791
    Total Energy =                       -384.0782180749182544
  Basis Set: CC-PVTZ
  Basis Set:
  Basis Set: CC-PVTZ
  Basis Set:
  @DF-RHF Final Energy:  -384.07840712144758
    Total Energy =                       -384.0784071214477535
  Basis Set: CC-PVTZ
  Basis Set:
  Charge       = 0
  Multiplicity = 1
  Basis Set: CC-PVTZ
  Basis Set:

    Orbital Energies (a.u.)
    -----------------------

    Doubly Occupied:

       1A    -20.596387     2A    -20.534303     3A    -11.364534
       4A    -11.278563     5A    -11.234269     6A    -11.218360
       7A    -11.217301     8A    -11.210184     9A     -1.472250
      10A     -1.365861    11A     -1.088664    12A     -1.024116
      13A     -0.969343    14A     -0.888729    15A     -0.803995
      16A     -0.768891    17A     -0.702600    18A     -0.685918
      19A     -0.676361    20A     -0.634302    21A     -0.610640
      22A     -0.597017    23A     -0.574315    24A     -0.546694
      25A     -0.526099    26A     -0.524256    27A     -0.514949
      28A     -0.475336    29A     -0.474134    30A     -0.467459
      31A     -0.458710    32A     -0.439709

  @DF-RHF Final Energy:  -384.07840800640582

   => Energetics <=

    Nuclear Repulsion Energy =            383.7107777414881298
    One-Electron Energy =               -1283.6898745404735109
    Two-Electron Energy =                 515.9006887925796718
    DFT Exchange-Correlation Energy =       0.0000000000000000
    Empirical Dispersion Energy =           0.0000000000000000
    PCM Polarization Energy =               0.0000000000000000
    EFP Energy =                            0.0000000000000000
    Total Energy =                       -384.0784080064057662
    Molecular point group: c1
  Basis Set: CC-PVTZ
  Basis Set:

  -Total Gradient:
     Atom            X                  Y                   Z
    ------   -----------------  -----------------  -----------------
       1        0.000013457816     0.000028362590     0.000019647051
       2        0.000039433719    -0.000058724738    -0.000006594819
       3       -0.000048272836     0.000024453632     0.000084945421
       4        0.000000163038     0.000018708992    -0.000028510735
       5        0.000198136258    -0.000432753289     0.003201508995
       6       -0.000011934362    -0.000008973853     0.000005183812
       7       -0.000004464790    -0.000014196763    -0.000010861009
       8        0.001555027024    -0.002561770434     0.001357021815
       9       -0.000466224697     0.000821273652    -0.002964942388
      10        0.000004863992    -0.000009585803     0.000018844346
      11        0.000049798618    -0.000045976948     0.000009613642
      12       -0.001330341655     0.002260363188    -0.001678865115
      13       -0.000017138897    -0.000036330213     0.000010366572
      14        0.000008640999     0.000000483258    -0.000014853570
      15       -0.000047661650    -0.000013579139     0.000014475806
      16        0.000023151301     0.000014991731    -0.000005216909
      17        0.000019194348     0.000002336454    -0.000003034352
      18        0.000004268490     0.000008154236    -0.000002850341
      19       -0.000000226602    -0.000000175444    -0.000003243437
      20        0.000010129890     0.000002938893    -0.000002634783

  **** Optimization is complete! (in 5 steps) ****
    Final optimized geometry and variables:
    Molecular point group: c1

    Geometry (in Angstrom), charge = 0, multiplicity = 1:

    O            1.470397024394     0.907748211088     0.610904216451
    C            0.994533074350     0.323059105642    -0.301749783361
    C           -0.270506882808    -0.495153681186    -0.253485535718
    O            1.527687221625     0.313068998851    -1.512670676667
    C           -0.929573354917    -0.529222222534     1.120810658778
    H           -0.943124394263    -0.089306439057    -1.002365928231
    H           -0.019336392255    -1.494436684918    -0.592899965319
    C           -2.253249321600    -1.315956905625     1.114751152356
    H           -1.109369622359     0.492818750628     1.430647269494
    H           -0.233586635760    -0.951402750580     1.833557125531
    C           -3.485033333731    -0.413644231837     1.071559516149
    H           -2.286606896938    -1.972166827393     0.250318667213
    H           -2.310774679618    -1.951050892896     1.990860792629
    H           -3.467916296471     0.233829572468     0.200532864569
    H           -4.398127550434    -0.996641406311     1.030029449892
    H           -3.534140617009     0.220054713439     1.950166434669
    C            2.723286434161     1.042576581799    -1.701509526662
    H            2.569212157546     2.089639562857    -1.486608842706
    H            2.991877752713     0.910898785961    -2.737082147778
    H            3.506578882573     0.663251222328    -1.062120419637

  Mulliken Charges: (a.u.)
   Center  Symbol    Alpha    Beta     Spin     Total
       1     O     4.19671  4.19671  0.00000 -0.39343
       2     C     2.80751  2.80751  0.00000  0.38499
       3     C     3.09941  3.09941  0.00000 -0.19883
       4     O     4.14710  4.14710  0.00000 -0.29421
       5     C     3.08958  3.08958  0.00000 -0.17915
       6     H     0.44004  0.44004  0.00000  0.11992
       7     H     0.43954  0.43954  0.00000  0.12091
       8     C     3.09278  3.09278  0.00000 -0.18556
       9     H     0.44719  0.44719  0.00000  0.10561
      10     H     0.44087  0.44087  0.00000  0.11826
      11     C     3.14694  3.14694  0.00000 -0.29387
      12     H     0.45683  0.45683  0.00000  0.08633
      13     H     0.44580  0.44580  0.00000  0.10841
      14     H     0.45630  0.45630  0.00000  0.08740
      15     H     0.44891  0.44891  0.00000  0.10218
      16     H     0.45286  0.45286  0.00000  0.09428
      17     C     3.03771  3.03771  0.00000 -0.07542
      18     H     0.45431  0.45431  0.00000  0.09138
      19     H     0.44528  0.44528  0.00000  0.10943
      20     H     0.45433  0.45433  0.00000  0.09135

   Total alpha = 32.00000, Total beta = 32.00000, Total charge = -0.00000

*** Psi4 exiting successfully. Buy a developer a beer!
