  ==> Input File <==

--------------------------------------------------------------------------
set {
	reference rhf
	basis 6-31G*
}

set_num_threads( 4 )
memory 2 gb

molecule MOL {
0 1

O	 3.225979	 0.970355	 -0.599647
C	 2.701189	 0.057885	 -0.047330
C	 1.245376	 -0.013843	 0.345420
O	 3.347903	 -1.046386	 0.304773
C	 0.600141	 1.360412	 0.510372
H	 0.741890	 -0.612008	 -0.406839
H	 1.187420	 -0.586437	 1.267631
C	 -0.847454	 1.306524	 1.010431
H	 0.643094	 1.892582	 -0.435181
H	 1.195336	 1.940361	 1.207383
C	 -1.844508	 0.676056	 0.033955
H	 -1.167561	 2.323388	 1.225469
H	 -0.883797	 0.772290	 1.958736
C	 -3.289642	 0.745407	 0.531726
H	 -1.771033	 1.181021	 -0.928038
H	 -1.585013	 -0.364618	 -0.146687
C	 -4.294204	 0.113700	 -0.433642
H	 -3.561830	 1.785612	 0.702374
H	 -3.361595	 0.249970	 1.498713
C	 -5.735407	 0.190522	 0.069084
H	 -4.222930	 0.606935	 -1.400741
H	 -4.026321	 -0.927287	 -0.602060
H	 -6.423341	 -0.265233	 -0.636354
H	 -6.045514	 1.221519	 0.214249
H	 -5.847145	 -0.324014	 1.019369
C	 4.728119	 -1.109107	 -0.004993
H	 4.882018	 -1.033965	 -1.071845
H	 5.068212	 -2.067527	 0.355250
H	 5.265056	 -0.311663	 0.488280

	symmetry c1
}
set optking {
	frozen_dihedral = ("
		6 3 2 1
	")
}

ee = optimize('scf')
oeprop('DIPOLE', 'QUADRUPOLE', 'MULLIKEN_CHARGES')
f=open( 'psi4out.xyz', 'w' )
f.write( "29  " )
f.write( str(ee) + "\n" )
f.write( MOL.save_string_xyz() )
f.close()
--------------------------------------------------------------------------

    Molecular point group: c1
  Charge       = 0
  Multiplicity = 1
  Basis Set: 6-31G*
  Basis Set:
  @DF-RHF Final Energy:  -501.04351163992465
    Total Energy =                       -501.0435116399244180
    Molecular point group: c1
  Basis Set: 6-31G*
  Basis Set:
  Basis Set: 6-31G*
  Basis Set:
  @DF-RHF Final Energy:  -501.04263591035101
    Total Energy =                       -501.0426359103510094
  Basis Set: 6-31G*
  Basis Set:
  Basis Set: 6-31G*
  Basis Set:
  @DF-RHF Final Energy:  -501.04365474572307
    Total Energy =                       -501.0436547457227334
  Basis Set: 6-31G*
  Basis Set:
  Basis Set: 6-31G*
  Basis Set:
  @DF-RHF Final Energy:  -501.04373993771060
    Total Energy =                       -501.0437399377104839
  Basis Set: 6-31G*
  Basis Set:
  Basis Set: 6-31G*
  Basis Set:
  @DF-RHF Final Energy:  -501.04371893791927
    Total Energy =                       -501.0437189379194933
  Basis Set: 6-31G*
  Basis Set:
  Basis Set: 6-31G*
  Basis Set:
  @DF-RHF Final Energy:  -501.04374158929784
    Total Energy =                       -501.0437415892977242
  Basis Set: 6-31G*
  Basis Set:
  Charge       = 0
  Multiplicity = 1
  Basis Set: 6-31G*
  Basis Set:

    Orbital Energies (a.u.)
    -----------------------

    Doubly Occupied:

       1A    -20.604046     2A    -20.544228     3A    -11.371859
       4A    -11.280634     5A    -11.234465     6A    -11.220093
       7A    -11.217955     8A    -11.216063     9A    -11.215820
      10A    -11.214499    11A    -11.209024    12A     -1.469168
      13A     -1.362104    14A     -1.098193    15A     -1.066765
      16A     -1.019344    17A     -0.977211    18A     -0.928835
      19A     -0.861783    20A     -0.799187    21A     -0.790548
      22A     -0.764444    23A     -0.700421    24A     -0.682065
      25A     -0.671993    26A     -0.651028    27A     -0.629067
      28A     -0.604280    29A     -0.594482    30A     -0.580358
      31A     -0.569613    32A     -0.545773    33A     -0.535320
      34A     -0.530255    35A     -0.516710    36A     -0.510660
      37A     -0.496634    38A     -0.477550    39A     -0.470054
      40A     -0.462240    41A     -0.458516    42A     -0.456287
      43A     -0.443152    44A     -0.432932

  @DF-RHF Final Energy:  -501.04374168205197

   => Energetics <=

    Nuclear Repulsion Energy =            610.1630993761926902
    One-Electron Energy =               -1891.4423686831873965
    Two-Electron Energy =                 780.2355276249433018
    DFT Exchange-Correlation Energy =       0.0000000000000000
    Empirical Dispersion Energy =           0.0000000000000000
    PCM Polarization Energy =               0.0000000000000000
    EFP Energy =                            0.0000000000000000
    Total Energy =                       -501.0437416820512908
    Molecular point group: c1
  Basis Set: 6-31G*
  Basis Set:

  -Total Gradient:
     Atom            X                  Y                   Z
    ------   -----------------  -----------------  -----------------
       1       -0.000212748770    -0.000386824813    -0.000771388575
       2        0.000256040612     0.000705423361     0.001026008256
       3        0.000104097008    -0.000983222879     0.000193480211
       4        0.000005609055    -0.000018850807    -0.000020899504
       5        0.000002138016    -0.000006466357    -0.000000443203
       6       -0.000162565479     0.000682550955    -0.000440735403
       7       -0.000001233996    -0.000005679111     0.000005056108
       8       -0.000000415831     0.000000370420    -0.000003604909
       9       -0.000004042846     0.000005945755    -0.000001774012
      10       -0.000001034359    -0.000005621957    -0.000000356081
      11        0.000000698590     0.000004130362    -0.000004441799
      12        0.000002780316     0.000001712093    -0.000002273314
      13        0.000003134820     0.000000957648    -0.000000531934
      14        0.000000486326     0.000000359817     0.000001805197
      15       -0.000001648753     0.000003145765    -0.000001037664
      16        0.000005042446    -0.000001431466    -0.000001832461
      17        0.000001599701    -0.000004808505     0.000001775424
      18       -0.000000371445    -0.000000307003    -0.000002318279
      19       -0.000000045372     0.000001736457     0.000001628320
      20        0.000000065955    -0.000000175151     0.000000449657
      21        0.000000171099     0.000000237430     0.000001221368
      22       -0.000000339232    -0.000000888172    -0.000000995483
      23        0.000000005055     0.000000308266    -0.000000175578
      24        0.000000193598     0.000000045914     0.000000320026
      25       -0.000000143370    -0.000000201936    -0.000000353106
      26        0.000001188164     0.000016048825     0.000040790051
      27       -0.000009467781     0.000000538900    -0.000005885671
      28        0.000001739979    -0.000003123026    -0.000006399991
      29        0.000009066481    -0.000005910786    -0.000007087647

  **** Optimization is complete! (in 7 steps) ****
    Final optimized geometry and variables:
    Molecular point group: c1

    Geometry (in Angstrom), charge = 0, multiplicity = 1:

    O            3.179036078226     0.699680205435    -0.719573835241
    C            2.673092513037    -0.215524857814    -0.153600528241
    C            1.225317471713    -0.287575729217     0.267801289175
    O            3.325773872623    -1.329226089517     0.152358190066
    C            0.573455530029     1.090157709994     0.387210534919
    H            0.722392990380    -0.892136278733    -0.482184535404
    H            1.164061738013    -0.839520779713     1.199319834845
    C           -0.881421984779     1.045318426314     0.866553645875
    H            0.633225153436     1.596908803709    -0.569928604004
    H            1.153948497094     1.689723587531     1.082159845919
    C           -1.861973547829     0.390815566303    -0.110833300103
    H           -1.205970291549     2.066574305128     1.052207426125
    H           -0.932375349566     0.533566789994     1.826411392353
    C           -3.315072111961     0.471478692603     0.361531779208
    H           -1.772608653976     0.872160382170    -1.083425192696
    H           -1.599737750865    -0.653933357870    -0.261542042387
    C           -4.303345896510    -0.185929251853    -0.603477490955
    H           -3.590632186067     1.515453830430     0.500793649202
    H           -3.402450487782     0.001051020779     1.339672729969
    C           -5.752577528904    -0.097806127183    -0.126327585449
    H           -4.216673707607     0.282362543684    -1.581631337810
    H           -4.032054555512    -1.230608106232    -0.740686279187
    H           -6.428608528441    -0.572389704509    -0.830852327264
    H           -6.065746988798     0.936237747148    -0.012891738111
    H           -5.879381355459    -0.587786456118     0.834985061114
    C            4.684261071752    -1.405762755655    -0.240052983381
    H            4.775211411944    -1.320868078679    -1.313417621065
    H            5.032586017274    -2.372178042803     0.089614939116
    H            5.259622843544    -0.620309352578     0.228304423413

  Mulliken Charges: (a.u.)
   Center  Symbol    Alpha    Beta     Spin     Total
       1     O     4.28643  4.28643  0.00000 -0.57286
       2     C     2.60418  2.60418  0.00000  0.79165
       3     C     3.20970  3.20970  0.00000 -0.41940
       4     O     4.30709  4.30709  0.00000 -0.61419
       5     C     3.15560  3.15560  0.00000 -0.31121
       6     H     0.39842  0.39842  0.00000  0.20317
       7     H     0.40148  0.40148  0.00000  0.19705
       8     C     3.15606  3.15606  0.00000 -0.31212
       9     H     0.40779  0.40779  0.00000  0.18442
      10     H     0.41384  0.41384  0.00000  0.17233
      11     C     3.15526  3.15526  0.00000 -0.31053
      12     H     0.41827  0.41827  0.00000  0.16345
      13     H     0.42374  0.42374  0.00000  0.15252
      14     C     3.15032  3.15032  0.00000 -0.30064
      15     H     0.42194  0.42194  0.00000  0.15613
      16     H     0.42383  0.42383  0.00000  0.15233
      17     C     3.15149  3.15149  0.00000 -0.30298
      18     H     0.42331  0.42331  0.00000  0.15339
      19     H     0.42400  0.42400  0.00000  0.15201
      20     C     3.23936  3.23936  0.00000 -0.47872
      21     H     0.42264  0.42264  0.00000  0.15473
      22     H     0.42345  0.42345  0.00000  0.15309
      23     H     0.41919  0.41919  0.00000  0.16161
      24     H     0.42154  0.42154  0.00000  0.15692
      25     H     0.42186  0.42186  0.00000  0.15627
      26     C     3.09281  3.09281  0.00000 -0.18562
      27     H     0.40922  0.40922  0.00000  0.18155
      28     H     0.40849  0.40849  0.00000  0.18302
      29     H     0.40868  0.40868  0.00000  0.18263

   Total alpha = 44.00000, Total beta = 44.00000, Total charge = -0.00000
