  ==> Input File <==

--------------------------------------------------------------------------
set {
	reference rhf
	basis cc-pvtz
}

set_num_threads( 4 )
memory 2 gb

molecule MOL {
0 1

H	 3.721907	 -0.933076	 -0.066039
O	 2.824271	 -1.154299	 0.131461
C	 2.076458	 -0.067370	 -0.038225
C	 0.626018	 -0.337582	 0.258241
O	 2.538288	 0.965419	 -0.381593
C	 -0.267326	 0.883135	 0.076490
H	 0.325620	 -1.161483	 -0.378003
H	 0.574537	 -0.713685	 1.275261
C	 -1.726822	 0.642622	 0.463839
H	 -0.210803	 1.217591	 -0.953497
H	 0.129920	 1.693110	 0.675679
C	 -2.480891	 -0.340606	 -0.429852
H	 -2.243098	 1.597649	 0.438609
H	 -1.776542	 0.301208	 1.495542
C	 -3.974404	 -0.388325	 -0.123882
H	 -2.335258	 -0.060734	 -1.469802
H	 -2.068109	 -1.338466	 -0.321032
H	 -4.485648	 -1.090599	 -0.772052
H	 -4.433243	 0.584796	 -0.262444
H	 -4.153855	 -0.693971	 0.901560

	symmetry c1
}
set optking {
	frozen_dihedral = ("
		16 12 9 6
	")
}

ee = optimize('scf')
oeprop('DIPOLE', 'QUADRUPOLE', 'MULLIKEN_CHARGES')
f=open( 'psi4out.xyz', 'w' )
f.write( "20  " )
f.write( str(ee) + "\n" )
f.write( MOL.save_string_xyz() )
f.close()
--------------------------------------------------------------------------

    Molecular point group: c1
  Charge       = 0
  Multiplicity = 1
  Basis Set: CC-PVTZ
  Basis Set:
  @DF-RHF Final Energy:  -384.09495616149570
    Total Energy =                       -384.0949561614955883
    Molecular point group: c1
  Basis Set: CC-PVTZ
  Basis Set:
  Basis Set: CC-PVTZ
  Basis Set:
  @DF-RHF Final Energy:  -384.09494700866026
    Total Energy =                       -384.0949470086599149
  Basis Set: CC-PVTZ
  Basis Set:
  Basis Set: CC-PVTZ
  Basis Set:
  @DF-RHF Final Energy:  -384.09496495146237
    Total Energy =                       -384.0949649514627708
  Basis Set: CC-PVTZ
  Basis Set:
  Basis Set: CC-PVTZ
  Basis Set:
  @DF-RHF Final Energy:  -384.09495140080531
    Total Energy =                       -384.0949514008052006
  Basis Set: CC-PVTZ
  Basis Set:
  Basis Set: CC-PVTZ
  Basis Set:
  @DF-RHF Final Energy:  -384.09497040860697
    Total Energy =                       -384.0949704086071392
  Basis Set: CC-PVTZ
  Basis Set:
  Charge       = 0
  Multiplicity = 1
  Basis Set: CC-PVTZ
  Basis Set:

    Orbital Energies (a.u.)
    -----------------------

    Doubly Occupied:

       1A    -20.603828     2A    -20.540451     3A    -11.373374
       4A    -11.238613     5A    -11.221013     6A    -11.218791
       7A    -11.218172     8A    -11.210616     9A     -1.477409
      10A     -1.368919    11A     -1.097586    12A     -1.042160
      13A     -0.962577    14A     -0.870387    15A     -0.818063
      16A     -0.777778    17A     -0.703646    18A     -0.692814
      19A     -0.666872    20A     -0.637277    21A     -0.604416
      22A     -0.596853    23A     -0.576649    24A     -0.557812
      25A     -0.540653    26A     -0.513979    27A     -0.495870
      28A     -0.484471    29A     -0.471918    30A     -0.467958
      31A     -0.458304    32A     -0.446378

  @DF-RHF Final Energy:  -384.09497050798808

   => Energetics <=

    Nuclear Repulsion Energy =            376.6083286366830976
    One-Electron Energy =               -1269.4953800443847740
    Two-Electron Energy =                 508.7920808997138806
    DFT Exchange-Correlation Energy =       0.0000000000000000
    Empirical Dispersion Energy =           0.0000000000000000
    PCM Polarization Energy =               0.0000000000000000
    EFP Energy =                            0.0000000000000000
    Total Energy =                       -384.0949705079877390
    Molecular point group: c1
  Basis Set: CC-PVTZ
  Basis Set:

  -Total Gradient:
     Atom            X                  Y                   Z
    ------   -----------------  -----------------  -----------------
       1       -0.000000884683     0.000001053566     0.000000752004
       2       -0.000001445348    -0.000003728576    -0.000004549115
       3        0.000002106316     0.000005545127     0.000007466729
       4       -0.000000762198    -0.000005506379    -0.000010880364
       5       -0.000001123395    -0.000000895322     0.000000678200
       6       -0.000160751065     0.000433228172    -0.000341380037
       7       -0.000000717870     0.000000466390     0.000004163672
       8        0.000002606522     0.000002253185     0.000003624639
       9        0.000376211770    -0.000724116346     0.000484381278
      10       -0.000000613521     0.000000874424    -0.000002199716
      11       -0.000001054585    -0.000001971657    -0.000000905560
      12       -0.000843737796     0.000746977987    -0.000114582505
      13       -0.000001150949    -0.000001449895    -0.000000933960
      14        0.000001610880     0.000000579899     0.000001058725
      15       -0.000003166021    -0.000000745272     0.000002925555
      16        0.000629754351    -0.000452164182    -0.000029486989
      17       -0.000002245923     0.000000236025     0.000001431479
      18        0.000001906477    -0.000000674088    -0.000000061478
      19        0.000002320426    -0.000000771395    -0.000001266352
      20        0.000001136605     0.000000808342    -0.000000236208

  **** Optimization is complete! (in 6 steps) ****
    Final optimized geometry and variables:
    Molecular point group: c1

    Geometry (in Angstrom), charge = 0, multiplicity = 1:

    H            3.718378826630    -0.951545683206    -0.063551668064
    O            2.819583582542    -1.170384030053     0.131371466551
    C            2.076526730028    -0.079003517225    -0.030778526304
    C            0.624586240509    -0.345609702896     0.261609549957
    O            2.542755835572     0.954553332427    -0.365980245383
    C           -0.263486169684     0.880430447729     0.090202224965
    H            0.320706644364    -1.161849243615    -0.383015727501
    H            0.569905621780    -0.731472689732     1.274823654037
    C           -1.724407046197     0.641448562643     0.472540561663
    H           -0.204928633401     1.223505159654    -0.936752164954
    H            0.135720098056     1.683729745703     0.697083352085
    C           -2.473615653831    -0.347214124345    -0.420016025294
    H           -2.238714231588     1.597317910734     0.436854925804
    H           -1.781551816846     0.307966924906     1.506329773274
    C           -3.966956380012    -0.403525573250    -0.115848080249
    H           -2.324170542318    -0.073855394059    -1.461241040859
    H           -2.054722324097    -1.342247890474    -0.306020861388
    H           -4.470857661877    -1.120453756917    -0.753632394481
    H           -4.434190741302     0.563180307477    -0.269979609259
    H           -4.145190759268    -0.694912414350     0.914008028334

  Mulliken Charges: (a.u.)
   Center  Symbol    Alpha    Beta     Spin     Total
       1     H     0.38236  0.38236  0.00000  0.23528
       2     O     4.16025  4.16025  0.00000 -0.32051
       3     C     2.80360  2.80360  0.00000  0.39280
       4     C     3.11182  3.11182  0.00000 -0.22364
       5     O     4.19126  4.19126  0.00000 -0.38252
       6     C     3.09304  3.09304  0.00000 -0.18608
       7     H     0.43690  0.43690  0.00000  0.12620
       8     H     0.43779  0.43779  0.00000  0.12443
       9     C     3.09904  3.09904  0.00000 -0.19808
      10     H     0.44548  0.44548  0.00000  0.10905
      11     H     0.43931  0.43931  0.00000  0.12137
      12     C     3.08791  3.08791  0.00000 -0.17582
      13     H     0.44600  0.44600  0.00000  0.10801
      14     H     0.45344  0.45344  0.00000  0.09312
      15     C     3.14933  3.14933  0.00000 -0.29867
      16     H     0.45236  0.45236  0.00000  0.09528
      17     H     0.45404  0.45404  0.00000  0.09193
      18     H     0.44777  0.44777  0.00000  0.10447
      19     H     0.45355  0.45355  0.00000  0.09290
      20     H     0.45476  0.45476  0.00000  0.09047

   Total alpha = 32.00000, Total beta = 32.00000, Total charge = -0.00000
