                              Psi4 1.0.54 Driver

  ==> Input File <==

--------------------------------------------------------------------------
set {
	reference rhf
	basis cc-pvtz
}

set_num_threads( 4 )
memory 2 gb

molecule MOL {
0 1

H	 -2.485175	 -0.564361	 0.968006
O	 -2.346257	 -0.289210	 0.080372
C	 -1.183935	 0.486039	 -0.009831
C	 0.062853	 -0.375310	 0.027457
H	 -1.178881	 1.094526	 -0.908634
H	 -1.184406	 1.155156	 0.838676
O	 1.172093	 0.457955	 -0.054438
H	 0.052476	 -1.081302	 -0.804627
H	 0.076323	 -0.955658	 0.947560
C	 2.395478	 -0.199028	 -0.000366
H	 2.505946	 -0.901710	 -0.823354
H	 3.174616	 0.545641	 -0.071768
H	 2.513730	 -0.742241	 0.934223

	symmetry c1
}
set optking {
	frozen_dihedral = ("
		1 2 3 5
	")
}

ee,wfn = optimize('scf', return_wfn=True)
oeprop( wfn, 'DIPOLE', 'QUADRUPOLE', 'MULLIKEN_CHARGES')
f=open( 'psi4out.xyz', 'w' )
f.write( "13  " )
f.write( str(ee) + "\n" )
f.write( MOL.save_string_xyz() )
f.close()
--------------------------------------------------------------------------

    Molecular point group: c1
  Charge       = 0
  Multiplicity = 1
  Basis Set: CC-PVTZ
  Basis Set:
  @DF-RHF Final Energy:  -268.06066097327744
    Total Energy =                       -268.0606609732774359
    Molecular point group: c1
  Basis Set: CC-PVTZ
  Basis Set:
  Basis Set: CC-PVTZ
  Basis Set:
  @DF-RHF Final Energy:  -268.05036596559358
    Total Energy =                       -268.0503659655935280
  Basis Set: CC-PVTZ
  Basis Set:
  Basis Set: CC-PVTZ
  Basis Set:
  @DF-RHF Final Energy:  -268.06203248695942
    Total Energy =                       -268.0620324869594810
  Basis Set: CC-PVTZ
  Basis Set:
  Basis Set: CC-PVTZ
  Basis Set:
  @DF-RHF Final Energy:  -268.06225813678083
    Total Energy =                       -268.0622581367807697
  Basis Set: CC-PVTZ
  Basis Set:
  Basis Set: CC-PVTZ
  Basis Set:
  @DF-RHF Final Energy:  -268.06226317448528
    Total Energy =                       -268.0622631744851674
  Basis Set: CC-PVTZ
  Basis Set:
  Charge       = 0
  Multiplicity = 1
  Basis Set: CC-PVTZ
  Basis Set:

    Orbital Energies (a.u.)
    -----------------------

    Doubly Occupied:

       1A    -20.555526     2A    -20.552789     3A    -11.268475
       4A    -11.267533     5A    -11.267393     6A     -1.391495
       7A     -1.369090     8A     -1.019578     9A     -0.913760
      10A     -0.841616    11A     -0.713063    12A     -0.676466
      13A     -0.661418    14A     -0.640202    15A     -0.598310
      16A     -0.568405    17A     -0.547350    18A     -0.489755
      19A     -0.484796    20A     -0.441539    21A     -0.424218

  @DF-RHF Final Energy:  -268.06226363175068

   => Energetics <=

    Nuclear Repulsion Energy =            190.4654744231513632
    One-Electron Energy =                -743.6699208209092831
    Two-Electron Energy =                 285.1421827660072950
    DFT Exchange-Correlation Energy =       0.0000000000000000
    Empirical Dispersion Energy =           0.0000000000000000
    PCM Polarization Energy =               0.0000000000000000
    EFP Energy =                            0.0000000000000000
    Total Energy =                       -268.0622636317506249
    Molecular point group: c1
  Basis Set: CC-PVTZ
  Basis Set:

  -Total Gradient:
     Atom            X                  Y                   Z
    ------   -----------------  -----------------  -----------------
       1       -0.000276455956     0.000341681653     0.000168847318
       2        0.000285672064    -0.000377126939    -0.000139536648
       3        0.000201263140    -0.000203125046    -0.000274697339
       4       -0.000025759287     0.000005072843     0.000003922529
       5       -0.000181001923     0.000224367938     0.000251091906
       6       -0.000011867667    -0.000011761967     0.000003393692
       7        0.000017216068     0.000015339374    -0.000006368788
       8       -0.000002857943     0.000001072543    -0.000007987847
       9       -0.000000832316     0.000015268353    -0.000005790041
      10       -0.000004365181    -0.000015217798     0.000010104225
      11       -0.000000866849     0.000002894202    -0.000004778028
      12       -0.000005841314     0.000005583422    -0.000002011995
      13        0.000005697166    -0.000004048579     0.000003811016

  **** Optimization is complete! (in 6 steps) ****
    Final optimized geometry and variables:
    Molecular point group: c1

    Geometry (in Angstrom), charge = 0, multiplicity = 1:

    H           -2.446022133358    -0.954981127141     0.795093399212
    O           -2.318250211962    -0.461096630271     0.006427212121
    C           -1.211348559007     0.386720758533     0.139045637159
    C            0.087412536663    -0.363289541469    -0.079197422504
    H           -1.311343150634     1.161744978462    -0.607598208202
    H           -1.193367317737     0.869914269146     1.110663198275
    O            1.138558268973     0.536943862537     0.050286299467
    H            0.081953568259    -0.818919198039    -1.067088347935
    H            0.179449342916    -1.167775322422     0.651809767000
    C            2.398802145690    -0.010761166591    -0.156603800838
    H            2.494181484313    -0.420369044314    -1.159438705578
    H            3.126937621557     0.777155266513    -0.031198589116
    H            2.611165275942    -0.801380559641     0.559725090340

  Mulliken Charges: (a.u.)
   Center  Symbol    Alpha    Beta     Spin     Total
       1     H     0.39352  0.39352  0.00000  0.21295
       2     O     4.20279  4.20279  0.00000 -0.40559
       3     C     2.97464  2.97464  0.00000  0.05072
       4     C     2.96329  2.96329  0.00000  0.07342
       5     H     0.45291  0.45291  0.00000  0.09417
       6     H     0.46683  0.46683  0.00000  0.06634
       7     O     4.17570  4.17570  0.00000 -0.35139
       8     H     0.46986  0.46986  0.00000  0.06028
       9     H     0.48163  0.48163  0.00000  0.03673
      10     C     3.03167  3.03167  0.00000 -0.06334
      11     H     0.46985  0.46985  0.00000  0.06030
      12     H     0.44605  0.44605  0.00000  0.10790
      13     H     0.47125  0.47125  0.00000  0.05750

   Total alpha = 21.00000, Total beta = 21.00000, Total charge = -0.00000

*** Psi4 exiting successfully. Buy a developer a beer!
