                              Psi4 1.0.54 Driver

  ==> Input File <==

--------------------------------------------------------------------------
set {
	reference rhf
	basis cc-pvtz
}

set_num_threads( 4 )
memory 2 gb

molecule MOL {
0 1

H	 -1.676773	 -1.146858	 0.494797
O	 -1.432053	 -0.565244	 -0.200812
C	 -0.727158	 0.534527	 0.310686
C	 0.680222	 0.664433	 -0.252229
H	 -1.306802	 1.408001	 0.044211
H	 -0.690821	 0.490158	 1.397609
C	 1.605391	 -0.489360	 0.123098
H	 0.615089	 0.745647	 -1.332226
H	 1.101414	 1.597893	 0.110950
H	 1.247627	 -1.432485	 -0.275204
H	 2.601435	 -0.332816	 -0.273062
H	 1.691776	 -0.589902	 1.200774

	symmetry c1
}
set optking {
	frozen_dihedral = ("
		1 2 3 4
	")
}

ee,wfn = optimize('scf', return_wfn=True)
oeprop( wfn, 'DIPOLE', 'QUADRUPOLE', 'MULLIKEN_CHARGES')
f=open( 'psi4out.xyz', 'w' )
f.write( "12  " )
f.write( str(ee) + "\n" )
f.write( MOL.save_string_xyz() )
f.close()
--------------------------------------------------------------------------

    Molecular point group: c1
  Charge       = 0
  Multiplicity = 1
  Basis Set: CC-PVTZ
  Basis Set:
  @DF-RHF Final Energy:  -193.18923549083419
    Total Energy =                       -193.1892354908343350
    Molecular point group: c1
  Basis Set: CC-PVTZ
  Basis Set:
  Basis Set: CC-PVTZ
  Basis Set:
  @DF-RHF Final Energy:  -193.18969687352322
    Total Energy =                       -193.1896968735231326
  Basis Set: CC-PVTZ
  Basis Set:
  Basis Set: CC-PVTZ
  Basis Set:
  @DF-RHF Final Energy:  -193.18978213824815
    Total Energy =                       -193.1897821382482050
  Basis Set: CC-PVTZ
  Basis Set:
  Basis Set: CC-PVTZ
  Basis Set:
  @DF-RHF Final Energy:  -193.18978661391631
    Total Energy =                       -193.1897866139164535
  Basis Set: CC-PVTZ
  Basis Set:
  Basis Set: CC-PVTZ
  Basis Set:
  @DF-RHF Final Energy:  -193.18978801566828
    Total Energy =                       -193.1897880156682845
  Basis Set: CC-PVTZ
  Basis Set:
  Charge       = 0
  Multiplicity = 1
  Basis Set: CC-PVTZ
  Basis Set:

    Orbital Energies (a.u.)
    -----------------------

    Doubly Occupied:

       1A    -20.545612     2A    -11.266659     3A    -11.213094
       4A    -11.205970     5A     -1.363134     6A     -1.049051
       7A     -0.923016     8A     -0.802195     9A     -0.707967
      10A     -0.638598    11A     -0.594716    12A     -0.585912
      13A     -0.523832    14A     -0.514238    15A     -0.488109
      16A     -0.468061    17A     -0.432069

  @DF-RHF Final Energy:  -193.18978810388361

   => Energetics <=

    Nuclear Repulsion Energy =            133.1981987081576619
    One-Electron Energy =                -526.1315045242340602
    Two-Electron Energy =                 199.7435177121927836
    DFT Exchange-Correlation Energy =       0.0000000000000000
    Empirical Dispersion Energy =           0.0000000000000000
    PCM Polarization Energy =               0.0000000000000000
    EFP Energy =                            0.0000000000000000
    Total Energy =                       -193.1897881038836431
    Molecular point group: c1
  Basis Set: CC-PVTZ
  Basis Set:

  -Total Gradient:
     Atom            X                  Y                   Z
    ------   -----------------  -----------------  -----------------
       1        0.000123270527    -0.000070711194    -0.000021048372
       2       -0.000143492821     0.000067173873     0.000048360478
       3       -0.000006635370     0.000060772497    -0.000092966573
       4        0.000026455389    -0.000038080693     0.000075737334
       5        0.000008112281    -0.000013033534    -0.000002859081
       6        0.000000917362     0.000003410200    -0.000002642821
       7       -0.000005521917    -0.000000524552    -0.000003384828
       8        0.000001082640    -0.000000438759    -0.000000269716
       9       -0.000005075225    -0.000006100642     0.000000842087
      10        0.000001666471    -0.000003439607     0.000003140806
      11       -0.000001000115    -0.000001868407    -0.000001106264
      12        0.000000220777     0.000002840816    -0.000003803052

  **** Optimization is complete! (in 6 steps) ****
    Final optimized geometry and variables:
    Molecular point group: c1

    Geometry (in Angstrom), charge = 0, multiplicity = 1:

    H           -1.640467946201    -1.154562808507     0.491496848720
    O           -1.410837671314    -0.544856858761    -0.182308200689
    C           -0.699979158989     0.545453120762     0.352485700630
    C            0.681630563546     0.654726902347    -0.268913222260
    H           -1.263514055793     1.449925968976     0.151570181927
    H           -0.613954379715     0.452049560108     1.431793933624
    C            1.591559042290    -0.524175751145     0.056456038218
    H            0.566030966996     0.743615209550    -1.344264732563
    H            1.136072568079     1.579491173575     0.076393942606
    H            1.161227377835    -1.453214179760    -0.295350850366
    H            2.561545843529    -0.408058767870    -0.412547890524
    H            1.752130014704    -0.611039470369     1.126976451475

  Mulliken Charges: (a.u.)
   Center  Symbol    Alpha    Beta     Spin     Total
       1     H     0.39020  0.39020  0.00000  0.21961
       2     O     4.20820  4.20820  0.00000 -0.41640
       3     C     2.97624  2.97624  0.00000  0.04752
       4     C     3.07502  3.07502  0.00000 -0.15005
       5     H     0.45685  0.45685  0.00000  0.08629
       6     H     0.47182  0.47182  0.00000  0.05635
       7     C     3.15616  3.15616  0.00000 -0.31232
       8     H     0.45282  0.45282  0.00000  0.09436
       9     H     0.45655  0.45655  0.00000  0.08691
      10     H     0.44891  0.44891  0.00000  0.10218
      11     H     0.44832  0.44832  0.00000  0.10335
      12     H     0.45890  0.45890  0.00000  0.08220

   Total alpha = 17.00000, Total beta = 17.00000, Total charge = -0.00000

*** Psi4 exiting successfully. Buy a developer a beer!
