                              Psi4 1.0.54 Driver

  ==> Input File <==

--------------------------------------------------------------------------
set {
	reference rhf
	basis cc-pvtz
}

set_num_threads( 4 )
memory 2 gb

molecule MOL {
0 1

H	 2.100503	 -0.596456	 -0.891662
O	 2.063695	 -0.083403	 -0.105237
C	 0.742924	 0.005675	 0.350750
H	 0.731380	 0.039219	 1.440080
C	 -0.064076	 -1.193495	 -0.124425
C	 -0.047832	 1.190568	 -0.194462
H	 0.194729	 -1.376165	 -1.161308
H	 0.163013	 -2.094508	 0.429933
C	 -1.533112	 -0.752002	 0.006102
H	 0.148003	 1.266545	 -1.259275
H	 0.226235	 2.136493	 0.259722
C	 -1.506634	 0.799189	 0.067162
H	 -2.124360	 -1.110499	 -0.826089
H	 -1.983103	 -1.158030	 0.903403
H	 -2.183808	 1.252169	 -0.644677
H	 -1.813926	 1.138698	 1.049457

	symmetry c1
}
set optking {
	frozen_dihedral = ("
		1 2 3 6
	")
}

ee,wfn = optimize('scf', return_wfn=True)
oeprop( wfn, 'DIPOLE', 'QUADRUPOLE', 'MULLIKEN_CHARGES')
f=open( 'psi4out.xyz', 'w' )
f.write( "16  " )
f.write( str(ee) + "\n" )
f.write( MOL.save_string_xyz() )
f.close()
--------------------------------------------------------------------------

    Molecular point group: c1
  Charge       = 0
  Multiplicity = 1
  Basis Set: CC-PVTZ
  Basis Set:
  @DF-RHF Final Energy:  -270.11371593341732
    Total Energy =                       -270.1137159334174385
    Molecular point group: c1
  Basis Set: CC-PVTZ
  Basis Set:
  Basis Set: CC-PVTZ
  Basis Set:
  @DF-RHF Final Energy:  -270.11539900291211
    Total Energy =                       -270.1153990029121701
  Basis Set: CC-PVTZ
  Basis Set:
  Basis Set: CC-PVTZ
  Basis Set:
  @DF-RHF Final Energy:  -270.11563651897643
    Total Energy =                       -270.1156365189766007
  Basis Set: CC-PVTZ
  Basis Set:
  Basis Set: CC-PVTZ
  Basis Set:
  @DF-RHF Final Energy:  -270.11564180523430
    Total Energy =                       -270.1156418052341905
  Basis Set: CC-PVTZ
  Basis Set:
  Charge       = 0
  Multiplicity = 1
  Basis Set: CC-PVTZ
  Basis Set:

    Orbital Energies (a.u.)
    -----------------------

    Doubly Occupied:

       1A    -20.544489     2A    -11.267460     3A    -11.218230
       4A    -11.216966     5A    -11.215632     6A    -11.208374
       7A     -1.365179     8A     -1.116927     9A     -0.970003
      10A     -0.949962    11A     -0.804111    12A     -0.783821
      13A     -0.682963    14A     -0.664710    15A     -0.608805
      16A     -0.595119    17A     -0.579058    18A     -0.543453
      19A     -0.505577    20A     -0.485024    21A     -0.473796
      22A     -0.459544    23A     -0.453943    24A     -0.416414

  @DF-RHF Final Energy:  -270.11564216460124

   => Energetics <=

    Nuclear Repulsion Energy =            255.4760355192291001
    One-Electron Energy =                -872.9242359715594830
    Two-Electron Energy =                 347.3325582877290572
    DFT Exchange-Correlation Energy =       0.0000000000000000
    Empirical Dispersion Energy =           0.0000000000000000
    PCM Polarization Energy =               0.0000000000000000
    EFP Energy =                            0.0000000000000000
    Total Energy =                       -270.1156421646013541
    Molecular point group: c1
  Basis Set: CC-PVTZ
  Basis Set:

  -Total Gradient:
     Atom            X                  Y                   Z
    ------   -----------------  -----------------  -----------------
       1        0.000189785888    -0.001455915605     0.000847547962
       2       -0.000145630141     0.002049926892    -0.000624840411
       3       -0.000330336699    -0.001119570560    -0.001076130100
       4        0.000006782693    -0.000002838856     0.000010226744
       5        0.000015402914     0.000033523017    -0.000029138921
       6        0.000294330459     0.000518519850     0.000839097796
       7       -0.000001903244    -0.000004643828     0.000003270325
       8        0.000005947465     0.000018951319     0.000000182630
       9       -0.000013804371     0.000007398118    -0.000019730151
      10        0.000016197629     0.000001769451    -0.000003986801
      11        0.000008661691    -0.000012281038    -0.000000052822
      12       -0.000012445833    -0.000015984074     0.000043417090
      13       -0.000021285169    -0.000004011379     0.000002199803
      14       -0.000000737190     0.000002365668     0.000002279945
      15        0.000007951583    -0.000010311998     0.000002625847
      16       -0.000018917674    -0.000006896977     0.000003031063

  **** Optimization is complete! (in 5 steps) ****
    Final optimized geometry and variables:
    Molecular point group: c1

    Geometry (in Angstrom), charge = 0, multiplicity = 1:

    H            2.190792056283    -0.483641600156    -0.874366720908
    O            2.094046691391    -0.027399909364    -0.058636786525
    C            0.748767754836    -0.006295174286     0.326833390311
    H            0.753580645207     0.017320823799     1.412055259860
    C           -0.082950051447    -1.195360222438    -0.144532214841
    C           -0.040787799144     1.193340313190    -0.184683286659
    H            0.133504404645    -1.375056578369    -1.195747759001
    H            0.145866685960    -2.107249099912     0.391703764485
    C           -1.543237178356    -0.738297593916     0.025007406294
    H            0.126675312373     1.290127208438    -1.254214782433
    H            0.263109287785     2.123313936695     0.277730498153
    C           -1.496467233981     0.812318631482     0.105473857987
    H           -2.158468237586    -1.079847593254    -0.796895995756
    H           -1.974135626813    -1.152594610258     0.927544697730
    H           -2.188279896345     1.279929589303    -0.582317720353
    H           -1.775569541379     1.140204830803     1.099862441638

  Mulliken Charges: (a.u.)
   Center  Symbol    Alpha    Beta     Spin     Total
       1     H     0.39351  0.39351  0.00000  0.21299
       2     O     4.20784  4.20784  0.00000 -0.41568
       3     C     2.92933  2.92933  0.00000  0.14134
       4     H     0.44855  0.44855  0.00000  0.10290
       5     C     3.11234  3.11234  0.00000 -0.22468
       6     C     3.09311  3.09311  0.00000 -0.18621
       7     H     0.46124  0.46124  0.00000  0.07752
       8     H     0.44090  0.44090  0.00000  0.11819
       9     C     3.10928  3.10928  0.00000 -0.21856
      10     H     0.46119  0.46119  0.00000  0.07762
      11     H     0.44433  0.44433  0.00000  0.11134
      12     C     3.11436  3.11436  0.00000 -0.22873
      13     H     0.44515  0.44515  0.00000  0.10970
      14     H     0.44634  0.44634  0.00000  0.10732
      15     H     0.44346  0.44346  0.00000  0.11308
      16     H     0.44907  0.44907  0.00000  0.10186

   Total alpha = 24.00000, Total beta = 24.00000, Total charge =  0.00000

*** Psi4 exiting successfully. Buy a developer a beer!
