  ==> Input File <==

--------------------------------------------------------------------------
set {
	reference rhf
	basis 6-31G*
}

set_num_threads( 4 )
memory 2 gb

molecule MOL {
0 1

H	 -3.405098	 -0.155568	 0.822633
C	 -3.304508	 -0.013952	 -0.260625
C	 -2.523864	 1.207712	 -0.673837
O	 -3.793412	 -0.793092	 -1.012731
C	 -1.151407	 1.287971	 0.008932
H	 -2.432298	 1.206057	 -1.753801
H	 -3.116247	 2.076819	 -0.390305
C	 -0.186377	 0.183260	 -0.428824
H	 -0.713952	 2.257224	 -0.211216
H	 -1.282848	 1.253752	 1.089353
C	 1.180775	 0.282413	 0.250794
H	 -0.059455	 0.228815	 -1.508483
H	 -0.621556	 -0.791807	 -0.218107
C	 2.148627	 -0.814315	 -0.201312
H	 1.605767	 1.261695	 0.045562
H	 1.051566	 0.224511	 1.330764
C	 3.580890	 -0.659131	 0.322722
H	 2.166869	 -0.852443	 -1.289387
H	 1.762857	 -1.776509	 0.128956
C	 4.324889	 0.564933	 -0.213704
H	 4.142010	 -1.551473	 0.056605
H	 3.564836	 -0.624694	 1.410140
H	 4.342616	 0.565491	 -1.300421
H	 3.866655	 1.493402	 0.110242
H	 5.353900	 0.572371	 0.132816

	symmetry c1
}
set optking {
	frozen_dihedral = ("
		8 11 14 18
	")
}

ee = optimize('scf')
oeprop('DIPOLE', 'QUADRUPOLE', 'MULLIKEN_CHARGES')
f=open( 'psi4out.xyz', 'w' )
f.write( "25  " )
f.write( str(ee) + "\n" )
f.write( MOL.save_string_xyz() )
f.close()
--------------------------------------------------------------------------

    Molecular point group: c1
  Charge       = 0
  Multiplicity = 1
  Basis Set: 6-31G*
  Basis Set:
  @DF-RHF Final Energy:  -387.12163771586972
    Total Energy =                       -387.1216377158693831
    Molecular point group: c1
  Basis Set: 6-31G*
  Basis Set:
  Basis Set: 6-31G*
  Basis Set:
  @DF-RHF Final Energy:  -387.12121044345480
    Total Energy =                       -387.1212104434541743
  Basis Set: 6-31G*
  Basis Set:
  Basis Set: 6-31G*
  Basis Set:
  @DF-RHF Final Energy:  -387.12089779486638
    Total Energy =                       -387.1208977948660959
  Basis Set: 6-31G*
  Basis Set:
  Basis Set: 6-31G*
  Basis Set:
  @DF-RHF Final Energy:  -387.12160541821891
    Total Energy =                       -387.1216054182185644
  Basis Set: 6-31G*
  Basis Set:
  @DF-RHF Final Energy:  -387.12170665479806
    Total Energy =                       -387.1217066547982313
  Basis Set: 6-31G*
  Basis Set:
  @DF-RHF Final Energy:  -387.12171087375214
    Total Energy =                       -387.1217108737516810
  Basis Set: 6-31G*
  Basis Set:
  Basis Set: 6-31G*
  Basis Set:
  @DF-RHF Final Energy:  -387.12168434879709
    Total Energy =                       -387.1216843487968617
  Basis Set: 6-31G*
  Basis Set:
  Basis Set: 6-31G*
  Basis Set:
  @DF-RHF Final Energy:  -387.12172667540466
    Total Energy =                       -387.1217266754044886
  Basis Set: 6-31G*
  Basis Set:
  Charge       = 0
  Multiplicity = 1
  Basis Set: 6-31G*
  Basis Set:

    Orbital Energies (a.u.)
    -----------------------

    Doubly Occupied:

       1A    -20.562003     2A    -11.326165     3A    -11.235371
       4A    -11.234688     5A    -11.224029     6A    -11.219843
       7A    -11.218297     8A    -11.217034     9A    -11.210732
      10A     -1.401945    11A     -1.103910    12A     -1.069555
      13A     -1.013527    14A     -0.942718    15A     -0.875066
      16A     -0.820236    17A     -0.788240    18A     -0.782174
      19A     -0.664158    20A     -0.662291    21A     -0.631672
      22A     -0.626423    23A     -0.602538    24A     -0.593886
      25A     -0.575730    26A     -0.549052    27A     -0.536560
      28A     -0.524425    29A     -0.508037    30A     -0.495637
      31A     -0.491402    32A     -0.479815    33A     -0.465348
      34A     -0.458096    35A     -0.441382    36A     -0.409548

  @DF-RHF Final Energy:  -387.12172634610374

   => Energetics <=

    Nuclear Repulsion Energy =            439.0495088275556554
    One-Electron Energy =               -1394.4194071979347882
    Two-Electron Energy =                 568.2481720242757319
    DFT Exchange-Correlation Energy =       0.0000000000000000
    Empirical Dispersion Energy =           0.0000000000000000
    PCM Polarization Energy =               0.0000000000000000
    EFP Energy =                            0.0000000000000000
    Total Energy =                       -387.1217263461034008
    Molecular point group: c1
  Basis Set: 6-31G*
  Basis Set:

  -Total Gradient:
     Atom            X                  Y                   Z
    ------   -----------------  -----------------  -----------------
       1       -0.000053980567     0.000048298230     0.000005183993
       2        0.000166668798    -0.000101224248     0.000021003181
       3       -0.000097635370     0.000041087189     0.000017639338
       4       -0.000054817119     0.000040219909    -0.000017887479
       5       -0.000018573859    -0.000026964091     0.000001572695
       6        0.000006157586    -0.000014981605     0.000003770000
       7        0.000006383459     0.000016340655    -0.000015595704
       8        0.000436057566     0.000839173002    -0.000994863932
       9       -0.000016513484     0.000020729101    -0.000001622265
      10        0.000006926655    -0.000012790124    -0.000019231011
      11       -0.000989873082    -0.001470992380     0.001458748475
      12       -0.000003010441     0.000008353839     0.000004578828
      13        0.000028765124    -0.000009038583    -0.000001074994
      14        0.001875049228     0.001853232055    -0.000564270013
      15       -0.000022139464    -0.000056708655    -0.000028104066
      16        0.000018150221     0.000051879492     0.000014922029
      17        0.000057108645    -0.000055190646     0.000092615017
      18       -0.001395546591    -0.001282104961     0.000009493584
      19       -0.000027436155     0.000095832932    -0.000029750927
      20       -0.000004551944    -0.000004360455    -0.000000339185
      21        0.000021461034     0.000020812471     0.000002799355
      22        0.000065770957    -0.000016163108     0.000039280406
      23        0.000017323675    -0.000003730235     0.000008995597
      24       -0.000001592892     0.000010078901    -0.000010181970
      25       -0.000020151975     0.000008211317     0.000002319050

  **** Optimization is complete! (in 9 steps) ****
    Final optimized geometry and variables:
    Molecular point group: c1

    Geometry (in Angstrom), charge = 0, multiplicity = 1:

    H           -3.451589983824    -0.337437495992     1.053228983037
    C           -3.343367730649    -0.169689176143    -0.025644555038
    C           -2.572444637317     1.069492871202    -0.403637822068
    O           -3.824153684932    -0.932371447382    -0.799597638812
    C           -1.204287154003     1.145798311829     0.288386527905
    H           -2.475074056729     1.095554984590    -1.482833899378
    H           -3.174847460246     1.925442863275    -0.102036034904
    C           -0.223066495956     0.067008759316    -0.177281333379
    H           -0.777821000337     2.126992118592     0.100736696978
    H           -1.340710856935     1.076572307381     1.366279541225
    C            1.144103029718     0.171038994385     0.501550466107
    H           -0.096510088726     0.142645635594    -1.255058629542
    H           -0.644086801817    -0.919779402846     0.007863827486
    C            2.114294462998    -0.926895183917     0.055478445725
    H            1.563420028743     1.150547279574     0.285790726269
    H            1.021707419159     0.123082582831     1.582290628316
    C            3.542025834798    -0.782729685653     0.594820079645
    H            2.135471339565    -0.973668009788    -1.032069522054
    H            1.716807603127    -1.885917374557     0.381641764636
    C            4.324276544866     0.398190104359     0.016782996116
    H            4.085998716813    -1.698275204485     0.376840584695
    H            3.510750560031    -0.700970309219     1.679554939896
    H            4.375854530008     0.337735811914    -1.066922378892
    H            3.874716163557     1.351544235449     0.273859708293
    H            5.341932220838     0.407344059264     0.394808179073

  Mulliken Charges: (a.u.)
   Center  Symbol    Alpha    Beta     Spin     Total
       1     H     0.43260  0.43260  0.00000  0.13479
       2     C     2.83079  2.83079  0.00000  0.33842
       3     C     3.20820  3.20820  0.00000 -0.41639
       4     O     4.23776  4.23776  0.00000 -0.47552
       5     C     3.16659  3.16659  0.00000 -0.33317
       6     H     0.39971  0.39971  0.00000  0.20058
       7     H     0.40658  0.40658  0.00000  0.18685
       8     C     3.15492  3.15492  0.00000 -0.30983
       9     H     0.41292  0.41292  0.00000  0.17415
      10     H     0.41958  0.41958  0.00000  0.16085
      11     C     3.15400  3.15400  0.00000 -0.30800
      12     H     0.41785  0.41785  0.00000  0.16430
      13     H     0.41857  0.41857  0.00000  0.16285
      14     C     3.15355  3.15355  0.00000 -0.30710
      15     H     0.42134  0.42134  0.00000  0.15732
      16     H     0.42320  0.42320  0.00000  0.15361
      17     C     3.15301  3.15301  0.00000 -0.30602
      18     H     0.42283  0.42283  0.00000  0.15435
      19     H     0.42076  0.42076  0.00000  0.15849
      20     C     3.24094  3.24094  0.00000 -0.48189
      21     H     0.41978  0.41978  0.00000  0.16044
      22     H     0.42324  0.42324  0.00000  0.15352
      23     H     0.42162  0.42162  0.00000  0.15675
      24     H     0.42099  0.42099  0.00000  0.15801
      25     H     0.41867  0.41867  0.00000  0.16266

   Total alpha = 36.00000, Total beta = 36.00000, Total charge = -0.00000
