                              Psi4 1.0.54 Driver

  ==> Input File <==

--------------------------------------------------------------------------
set {
	reference rhf
	basis cc-pvtz
}

set_num_threads( 4 )
memory 2 gb

molecule MOL {
0 1

H	 4.292345	 -0.269081	 -1.592297
C	 3.560273	 -0.670293	 -0.901494
C	 2.273261	 0.146659	 -0.930474
H	 3.375265	 -1.702350	 -1.180188
H	 4.005829	 -0.670675	 0.087696
C	 1.215950	 -0.382441	 0.027187
H	 1.859987	 0.155966	 -1.932912
H	 2.497648	 1.180584	 -0.679027
N	 0.000002	 0.398953	 -0.040851
H	 0.972751	 -1.406964	 -0.238098
H	 1.628733	 -0.416160	 1.039885
C	 -1.215959	 -0.382435	 0.027143
H	 -0.000012	 1.086078	 0.683841
C	 -2.451944	 0.502410	 -0.038737
H	 -1.221867	 -1.069392	 -0.813828
H	 -1.259993	 -0.999709	 0.929424
C	 -3.752217	 -0.292550	 0.005776
H	 -2.407325	 1.093801	 -0.946480
H	 -2.431979	 1.206234	 0.790023
H	 -3.817783	 -0.982946	 -0.828547
H	 -4.612613	 0.364348	 -0.042306
H	 -3.830160	 -0.871666	 0.919868

	symmetry c1
}
set optking {
	frozen_dihedral = ("
		10 6 9 12
	")
}

ee,wfn = optimize('scf', return_wfn=True)
oeprop( wfn, 'DIPOLE', 'QUADRUPOLE', 'MULLIKEN_CHARGES')
f=open( 'psi4out.xyz', 'w' )
f.write( "22  " )
f.write( str(ee) + "\n" )
f.write( MOL.save_string_xyz() )
f.close()
--------------------------------------------------------------------------

    Molecular point group: c1
  Charge       = 0
  Multiplicity = 1
  Basis Set: CC-PVTZ
  Basis Set:
  @DF-RHF Final Energy:  -290.48646759047244
    Total Energy =                       -290.4864675904722731
    Molecular point group: c1
  Basis Set: CC-PVTZ
  Basis Set:
  Basis Set: CC-PVTZ
  Basis Set:
  @DF-RHF Final Energy:  -290.48679806325475
    Total Energy =                       -290.4867980632546391
  Basis Set: CC-PVTZ
  Basis Set:
  Basis Set: CC-PVTZ
  Basis Set:
  @DF-RHF Final Energy:  -290.48687727711751
    Total Energy =                       -290.4868772771174577
  Basis Set: CC-PVTZ
  Basis Set:
  Basis Set: CC-PVTZ
  Basis Set:
  @DF-RHF Final Energy:  -290.48688126805308
    Total Energy =                       -290.4868812680530255
  Basis Set: CC-PVTZ
  Basis Set:
  Charge       = 0
  Multiplicity = 1
  Basis Set: CC-PVTZ
  Basis Set:

    Orbital Energies (a.u.)
    -----------------------

    Doubly Occupied:

       1A    -15.525867     2A    -11.237098     3A    -11.236467
       4A    -11.211790     5A    -11.207641     6A    -11.206490
       7A    -11.204892     8A     -1.203692     9A     -1.058688
      10A     -1.026027    11A     -0.928425    12A     -0.870364
      13A     -0.807682    14A     -0.794454    15A     -0.670058
      16A     -0.630482    17A     -0.616108    18A     -0.603426
      19A     -0.578520    20A     -0.560401    21A     -0.535872
      22A     -0.519151    23A     -0.515515    24A     -0.486901
      25A     -0.484063    26A     -0.472159    27A     -0.465755
      28A     -0.453186    29A     -0.354919

  @DF-RHF Final Energy:  -290.48688173955298

   => Energetics <=

    Nuclear Repulsion Energy =            313.6591756835900355
    One-Electron Energy =               -1013.3599338129727130
    Two-Electron Energy =                 409.2138763898297498
    DFT Exchange-Correlation Energy =       0.0000000000000000
    Empirical Dispersion Energy =           0.0000000000000000
    PCM Polarization Energy =               0.0000000000000000
    EFP Energy =                            0.0000000000000000
    Total Energy =                       -290.4868817395528708
    Molecular point group: c1
  Basis Set: CC-PVTZ
  Basis Set:

  -Total Gradient:
     Atom            X                  Y                   Z
    ------   -----------------  -----------------  -----------------
       1        0.000019188808    -0.000014966905    -0.000001573203
       2        0.000010611271     0.000007123564    -0.000033716194
       3       -0.000031970855    -0.000018747886     0.000058941918
       4       -0.000000506493     0.000002126362     0.000003290593
       5       -0.000009435732     0.000006731473    -0.000007340811
       6        0.000641135777     0.000654685448    -0.004393558324
       7        0.000006593708     0.000000317342     0.000007571704
       8       -0.000011908505    -0.000002213026     0.000007871707
       9       -0.000120893387     0.000147369158     0.003861753291
      10       -0.000503673855    -0.000606649317     0.002733685671
      11        0.000011059326     0.000006133622     0.000010035776
      12        0.000006334160    -0.000190363149    -0.002257656928
      13        0.000005175580     0.000011414183     0.000005517825
      14       -0.000012824811    -0.000003064580     0.000000512959
      15       -0.000003956086     0.000001184675     0.000003993618
      16       -0.000002755667     0.000016178924    -0.000009558216
      17       -0.000013865523     0.000004189690     0.000004156634
      18        0.000009956490    -0.000014607403     0.000002104742
      19        0.000003895401    -0.000005859497     0.000001625367
      20        0.000001022317     0.000001985146    -0.000001356179
      21       -0.000002648118    -0.000001182947     0.000002082586
      22       -0.000000533808    -0.000001784877     0.000001615464

  **** Optimization is complete! (in 5 steps) ****
    Final optimized geometry and variables:
    Molecular point group: c1

    Geometry (in Angstrom), charge = 0, multiplicity = 1:

    H            4.386312732244    -0.133669954672    -1.282944155461
    C            3.646022551559    -0.548272171203    -0.608880622701
    C            2.344317708746     0.243555961778    -0.666516449778
    H            3.488578593396    -1.584594868339    -0.890401261076
    H            4.069596100613    -0.540221410980     0.390249125401
    C            1.272560424088    -0.307991222181     0.263490706024
    H            1.953772476243     0.249970914328    -1.678312048186
    H            2.534297152665     1.281005298827    -0.406601977595
    N            0.045501952636     0.467567986858     0.209141508465
    H            1.045837099119    -1.335754552909    -0.000195014435
    H            1.669425938813    -0.354960885284     1.279035655292
    C           -1.185531781882    -0.288284844583     0.284545447528
    H            0.054220280940     1.192616162288     0.892353225719
    C           -2.400190572770     0.625361569145     0.215963146882
    H           -1.209344429439    -0.976850708272    -0.554106403605
    H           -1.248555544640    -0.899988903580     1.189661398673
    C           -3.718895975988    -0.138690043321     0.259069380495
    H           -2.339729589628     1.214615750652    -0.692343121624
    H           -2.365127181856     1.329020820820     1.044393316130
    H           -3.799220886722    -0.828336486425    -0.574577342403
    H           -4.563413114503     0.538341468302     0.208546025760
    H           -3.812144828107    -0.714499833739     1.173788133345

  Mulliken Charges: (a.u.)
   Center  Symbol    Alpha    Beta     Spin     Total
       1     H     0.44778  0.44778  0.00000  0.10443
       2     C     3.15551  3.15551  0.00000 -0.31102
       3     C     3.06909  3.06909  0.00000 -0.13818
       4     H     0.45600  0.45600  0.00000  0.08799
       5     H     0.45692  0.45692  0.00000  0.08616
       6     C     3.03824  3.03824  0.00000 -0.07648
       7     H     0.45397  0.45397  0.00000  0.09206
       8     H     0.45781  0.45781  0.00000  0.08438
       9     N     3.64416  3.64416  0.00000 -0.28832
      10     H     0.45633  0.45633  0.00000  0.08734
      11     H     0.46187  0.46187  0.00000  0.07625
      12     C     3.02144  3.02144  0.00000 -0.04288
      13     H     0.44210  0.44210  0.00000  0.11580
      14     C     3.08250  3.08250  0.00000 -0.16499
      15     H     0.46012  0.46012  0.00000  0.07975
      16     H     0.47510  0.47510  0.00000  0.04979
      17     C     3.15352  3.15352  0.00000 -0.30704
      18     H     0.44939  0.44939  0.00000  0.10122
      19     H     0.45948  0.45948  0.00000  0.08104
      20     H     0.45486  0.45486  0.00000  0.09029
      21     H     0.44769  0.44769  0.00000  0.10462
      22     H     0.45610  0.45610  0.00000  0.08779

   Total alpha = 29.00000, Total beta = 29.00000, Total charge = -0.00000

*** Psi4 exiting successfully. Buy a developer a beer!
