  ==> Input File <==

--------------------------------------------------------------------------
set {
	reference rhf
	basis cc-pvtz
}

set_num_threads( 4 )
memory 2 gb

molecule MOL {
0 1

H	 -1.847826	 -0.155778	 0.622566
N	 -1.173824	 -0.310545	 -0.096857
C	 -0.022588	 0.563366	 0.065815
H	 -0.902282	 -1.270344	 -0.045238
C	 1.270420	 -0.230572	 -0.014245
H	 -0.045354	 1.293678	 -0.735129
H	 -0.043155	 1.123061	 1.001180
H	 1.336273	 -0.754933	 -0.959364
H	 2.130728	 0.422015	 0.082222
H	 1.323344	 -0.967006	 0.781773

	symmetry c1
}
set optking {
	frozen_dihedral = ("
		1 2 3 6
	")
}

ee = optimize('scf')
oeprop('DIPOLE', 'QUADRUPOLE', 'MULLIKEN_CHARGES')
f=open( 'psi4out.xyz', 'w' )
f.write( "10  " )
f.write( str(ee) + "\n" )
f.write( MOL.save_string_xyz() )
f.close()
--------------------------------------------------------------------------

    Molecular point group: c1
  Charge       = 0
  Multiplicity = 1
  Basis Set: CC-PVTZ
  Basis Set:
  @DF-RHF Final Energy:  -134.30061883538968
    Total Energy =                       -134.3006188353896277
    Molecular point group: c1
  Basis Set: CC-PVTZ
  Basis Set:
  Basis Set: CC-PVTZ
  Basis Set:
  @DF-RHF Final Energy:  -134.30099632487816
    Total Energy =                       -134.3009963248781560
  Basis Set: CC-PVTZ
  Basis Set:
  Basis Set: CC-PVTZ
  Basis Set:
  @DF-RHF Final Energy:  -134.30106516072419
    Total Energy =                       -134.3010651607241357
  Basis Set: CC-PVTZ
  Basis Set:
  Basis Set: CC-PVTZ
  Basis Set:
  @DF-RHF Final Energy:  -134.30106686605717
    Total Energy =                       -134.3010668660571127
  Basis Set: CC-PVTZ
  Basis Set:
  Charge       = 0
  Multiplicity = 1
  Basis Set: CC-PVTZ
  Basis Set:

    Orbital Energies (a.u.)
    -----------------------

    Doubly Occupied:

       1A    -15.524525     2A    -11.240950     3A    -11.211158
       4A     -1.175508     5A     -0.990608     6A     -0.830313
       7A     -0.662723     8A     -0.618131     9A     -0.594633
      10A     -0.528953    11A     -0.504828    12A     -0.492114
      13A     -0.381059

  @DF-RHF Final Energy:  -134.30106699584292

   => Energetics <=

    Nuclear Repulsion Energy =             83.4319428676028565
    One-Electron Energy =                -345.9550113445308739
    Two-Electron Energy =                 128.2220014810850728
    DFT Exchange-Correlation Energy =       0.0000000000000000
    Empirical Dispersion Energy =           0.0000000000000000
    PCM Polarization Energy =               0.0000000000000000
    EFP Energy =                            0.0000000000000000
    Total Energy =                       -134.3010669958429446
    Molecular point group: c1
  Basis Set: CC-PVTZ
  Basis Set:

  -Total Gradient:
     Atom            X                  Y                   Z
    ------   -----------------  -----------------  -----------------
       1        0.000684199740    -0.001107453552     0.000893840430
       2       -0.000710078096     0.001182270940    -0.001346976474
       3       -0.000743744823     0.000818045886     0.001290911989
       4        0.000010023274    -0.000008918396     0.000007707654
       5        0.000003122083    -0.000005006162    -0.000005948828
       6        0.000753724293    -0.000895479325    -0.000829153793
       7        0.000003460296     0.000003772201    -0.000000521201
       8       -0.000000227872    -0.000002699341    -0.000000507571
       9        0.000006241639     0.000005531054     0.000000827105
      10       -0.000006720535     0.000009936696    -0.000010179310

  **** Optimization is complete! (in 5 steps) ****
    Final optimized geometry and variables:
    Molecular point group: c1

    Geometry (in Angstrom), charge = 0, multiplicity = 1:

    H           -1.872615263787    -0.140016626358     0.621579364489
    N           -1.200308902183    -0.290410537290    -0.097953441767
    C           -0.029957403483     0.569599052255     0.064575462220
    H           -0.948027891605    -1.254352299587    -0.062077224783
    C            1.271900408511    -0.213209376759    -0.012464934226
    H           -0.028115428821     1.316481579887    -0.722565126316
    H           -0.069103091602     1.105295766170     1.008227837376
    H            1.333893926775    -0.759424346597    -0.947892594027
    H            2.126488644221     0.450933280494     0.042051425468
    H            1.347388826184    -0.927322438052     0.801204618253

  Mulliken Charges: (a.u.)
   Center  Symbol    Alpha    Beta     Spin     Total
       1     H     0.42859  0.42859  0.00000  0.14281
       2     N     3.69113  3.69113  0.00000 -0.38226
       3     C     3.01239  3.01239  0.00000 -0.02479
       4     H     0.43023  0.43023  0.00000  0.13954
       5     C     3.14699  3.14699  0.00000 -0.29398
       6     H     0.46416  0.46416  0.00000  0.07168
       7     H     0.46493  0.46493  0.00000  0.07014
       8     H     0.45164  0.45164  0.00000  0.09673
       9     H     0.45189  0.45189  0.00000  0.09622
      10     H     0.45805  0.45805  0.00000  0.08390

   Total alpha = 13.00000, Total beta = 13.00000, Total charge = -0.00000
