  ==> Input File <==

--------------------------------------------------------------------------
set {
	reference rhf
	basis cc-pvtz
}

set_num_threads( 4 )
memory 2 gb

molecule MOL {
0 1

H	 3.293994	 -0.427963	 0.034615
C	 2.236031	 -0.247373	 0.026401
C	 1.463525	 -0.726038	 -1.021190
C	 1.652406	 0.459763	 1.058320
H	 1.924359	 -1.274744	 -1.819530
C	 0.105977	 -0.496562	 -1.035571
H	 2.252422	 0.828745	 1.867214
C	 0.288891	 0.689429	 1.042478
H	 -0.507753	 -0.858335	 -1.836266
C	 -0.486398	 0.214248	 0.000000
H	 -0.171892	 1.239024	 1.842352
C	 -1.946525	 0.470130	 0.000000
O	 -2.779618	 -0.371226	 0.000000
H	 -2.227127	 1.528393	 0.000000

	symmetry c1
}
set optking {
	frozen_dihedral = ("
		8 10 12 14
	")
}

ee = optimize('scf')
oeprop('DIPOLE', 'QUADRUPOLE', 'MULLIKEN_CHARGES')
f=open( 'psi4out.xyz', 'w' )
f.write( "14  " )
f.write( str(ee) + "\n" )
f.write( MOL.save_string_xyz() )
f.close()
--------------------------------------------------------------------------

    Molecular point group: c1
  Charge       = 0
  Multiplicity = 1
  Basis Set: CC-PVTZ
  Basis Set:
  @DF-RHF Final Energy:  -343.54022940633632
    Total Energy =                       -343.5402294063362092
    Molecular point group: c1
  Basis Set: CC-PVTZ
  Basis Set:
  Basis Set: CC-PVTZ
  Basis Set:
  @DF-RHF Final Energy:  -343.53816380148538
    Total Energy =                       -343.5381638014854957
  Basis Set: CC-PVTZ
  Basis Set:
  Basis Set: CC-PVTZ
  Basis Set:
  @DF-RHF Final Energy:  -343.54093875795422
    Total Energy =                       -343.5409387579543363
  Basis Set: CC-PVTZ
  Basis Set:
  Basis Set: CC-PVTZ
  Basis Set:
  @DF-RHF Final Energy:  -343.54101300230246
    Total Energy =                       -343.5410130023024067
  Basis Set: CC-PVTZ
  Basis Set:
  Basis Set: CC-PVTZ
  Basis Set:
  @DF-RHF Final Energy:  -343.54101417729896
    Total Energy =                       -343.5410141772989050
  Basis Set: CC-PVTZ
  Basis Set:
  Charge       = 0
  Multiplicity = 1
  Basis Set: CC-PVTZ
  Basis Set:

    Orbital Energies (a.u.)
    -----------------------

    Doubly Occupied:

       1A    -20.560387     2A    -11.330900     3A    -11.249453
       4A    -11.247918     5A    -11.245081     6A    -11.244192
       7A    -11.242474     8A    -11.241282     9A     -1.415164
      10A     -1.175145    11A     -1.049482    12A     -1.033952
      13A     -0.890771    14A     -0.845758    15A     -0.797227
      16A     -0.725522    17A     -0.681022    18A     -0.657256
      19A     -0.639087    20A     -0.621087    21A     -0.604705
      22A     -0.545947    23A     -0.530988    24A     -0.514393
      25A     -0.506935    26A     -0.426416    27A     -0.352711
      28A     -0.351556

  @DF-RHF Final Energy:  -343.54101443066583

   => Energetics <=

    Nuclear Repulsion Energy =            323.6694504028815231
    One-Electron Energy =               -1106.9673051009779101
    Two-Electron Energy =                 439.7568402674303343
    DFT Exchange-Correlation Energy =       0.0000000000000000
    Empirical Dispersion Energy =           0.0000000000000000
    PCM Polarization Energy =               0.0000000000000000
    EFP Energy =                            0.0000000000000000
    Total Energy =                       -343.5410144306661095
    Molecular point group: c1
  Basis Set: CC-PVTZ
  Basis Set:

  -Total Gradient:
     Atom            X                  Y                   Z
    ------   -----------------  -----------------  -----------------
       1        0.000000608520    -0.000007799661    -0.000004376674
       2        0.000004364800     0.000040616220     0.000062277436
       3       -0.000058937961     0.000005241848    -0.000033173869
       4        0.000071079469    -0.000041954673    -0.000028415838
       5        0.000007584267    -0.000000554306     0.000006328032
       6        0.000062155934    -0.000022937453    -0.000024426924
       7       -0.000002442855     0.000001318701    -0.000000924744
       8       -0.000731538347    -0.004940329743     0.002625017957
       9       -0.000000591716     0.000018059677    -0.000002961338
      10        0.000943988256     0.007300212223    -0.006040043075
      11        0.000002606304     0.000010156042    -0.000005766058
      12       -0.000217771924    -0.002618587814     0.010337039537
      13       -0.000000911977     0.000028243175     0.000002341021
      14       -0.000080192771     0.000228315763    -0.006892915464

  **** Optimization is complete! (in 6 steps) ****
    Final optimized geometry and variables:
    Molecular point group: c1

    Geometry (in Angstrom), charge = 0, multiplicity = 1:

    H            3.288028256799    -0.450882557130     0.038811635588
    C            2.233130801231    -0.254205617234     0.028306605005
    C            1.454004252929    -0.720432400209    -1.015209931343
    C            1.653903913111     0.459223756040     1.060283178384
    H            1.903292079616    -1.280063347182    -1.812784704979
    C            0.094500183386    -0.480666904372    -1.024098326707
    H            2.254664769570     0.809275738047     1.877341971619
    C            0.297466225613     0.721431575759     1.039479992668
    H           -0.520373343542    -0.865405189451    -1.814242498923
    C           -0.482927454552     0.261090998664    -0.006823608664
    H           -0.151207316653     1.282832794768     1.838309302799
    C           -1.961598777087     0.469763794914     0.015999826353
    O           -2.749283442117    -0.405736363766    -0.085010651059
    H           -2.296638918585     1.511615886137     0.055617176308

  Mulliken Charges: (a.u.)
   Center  Symbol    Alpha    Beta     Spin     Total
       1     H     0.42050  0.42050  0.00000  0.15899
       2     C     3.07896  3.07896  0.00000 -0.15793
       3     C     3.06469  3.06469  0.00000 -0.12937
       4     C     3.06787  3.06787  0.00000 -0.13573
       5     H     0.42081  0.42081  0.00000  0.15838
       6     C     3.09063  3.09063  0.00000 -0.18126
       7     H     0.42085  0.42085  0.00000  0.15831
       8     C     3.09382  3.09382  0.00000 -0.18764
       9     H     0.41635  0.41635  0.00000  0.16730
      10     C     2.95540  2.95540  0.00000  0.08920
      11     H     0.42421  0.42421  0.00000  0.15159
      12     C     2.93002  2.93002  0.00000  0.13997
      13     O     4.16019  4.16019  0.00000 -0.32037
      14     H     0.45572  0.45572  0.00000  0.08856

   Total alpha = 28.00000, Total beta = 28.00000, Total charge = -0.00000
