  ==> Input File <==

--------------------------------------------------------------------------
set {
	reference rhf
	basis 6-31G*
}

set_num_threads( 1 )
memory 2 gb

molecule MOL {
0 1

O	 0.576545	 -0.215998	 -0.169404
C	 1.705091	 0.115954	 0.001797
C	 2.177311	 1.527659	 0.250725
O	 2.721346	 -0.737485	 -0.000216
C	 1.046335	 2.551535	 0.265371
H	 2.720230	 1.527170	 1.191977
H	 2.912295	 1.763737	 -0.513987
C	 1.552639	 3.972004	 0.520293
H	 0.323689	 2.275210	 1.026696
H	 0.516648	 2.512877	 -0.681331
C	 0.431050	 5.011977	 0.539142
H	 2.085946	 4.003386	 1.469290
H	 2.278642	 4.242306	 -0.245042
C	 0.937681	 6.431236	 0.792681
H	 -0.293742	 4.744790	 1.304928
H	 -0.102072	 4.982454	 -0.408511
H	 1.446033	 6.501203	 1.750228
H	 0.119790	 7.144994	 0.799965
H	 1.639635	 6.740596	 0.023351
C	 4.024888	 -0.184556	 -0.001949
H	 4.179030	 0.422472	 -0.882452
H	 4.701782	 -1.024608	 -0.003642
H	 4.181981	 0.421185	 0.878906

	symmetry c1
}
set optking {
	frozen_dihedral = ("
		15 11 8 12,
		9 5 8 12,
		1 2 3 6,
		9 5 3 6
	")
}

ee = energy('scf')
oeprop('DIPOLE', 'QUADRUPOLE', 'MULLIKEN_CHARGES')
f=open( 'psi4out.xyz', 'w' )
f.write( "23  " )
f.write( str(ee) + "\n" )
f.write( MOL.save_string_xyz() )
f.close()
--------------------------------------------------------------------------

    Molecular point group: c1

    Geometry (in Angstrom), charge = 0, multiplicity = 1:

       Center              X                  Y                   Z               Mass
    ------------   -----------------  -----------------  -----------------  -----------------
           O         -1.131136606358    -2.248894467356    -0.411209322462    15.994914619560
           C         -0.002590606358    -1.916942467356    -0.240008322462    12.000000000000
           C          0.469629393642    -0.505237467356     0.008919677538    12.000000000000
           O          1.013664393642    -2.770381467356    -0.242021322462    15.994914619560
           C         -0.661346606358     0.518638532644     0.023565677538    12.000000000000
           H          1.012548393642    -0.505726467356     0.950171677538     1.007825032070
           H          1.204613393642    -0.269159467356    -0.755792322462     1.007825032070
           C         -0.155042606358     1.939107532644     0.278487677538    12.000000000000
           H         -1.383992606358     0.242313532644     0.784890677538     1.007825032070
           H         -1.191033606358     0.479980532644    -0.923136322462     1.007825032070
           C         -1.276631606358     2.979080532644     0.297336677538    12.000000000000
           H          0.378264393642     1.970489532644     1.227484677538     1.007825032070
           H          0.570960393642     2.209409532644    -0.486847322462     1.007825032070
           C         -0.770000606358     4.398339532644     0.550875677538    12.000000000000
           H         -2.001423606358     2.711893532644     1.063122677538     1.007825032070
           H         -1.809753606358     2.949557532644    -0.650316322462     1.007825032070
           H         -0.261648606358     4.468306532644     1.508422677538     1.007825032070
           H         -1.587891606358     5.112097532644     0.558159677538     1.007825032070
           H         -0.068046606358     4.707699532644    -0.218454322462     1.007825032070
           C          2.317206393642    -2.217452467356    -0.243754322462    12.000000000000
           H          2.471348393642    -1.610424467356    -1.124257322462     1.007825032070
           H          2.994100393642    -3.057504467356    -0.245447322462     1.007825032070
           H          2.474299393642    -1.611711467356     0.637100677538     1.007825032070

  Charge       = 0
  Multiplicity = 1
  Basis Set: 6-31G*
  Basis Set:

    Orbital Energies (a.u.)
    -----------------------

    Doubly Occupied:

       1A    -20.608175     2A    -20.543072     3A    -11.374700
       4A    -11.297496     5A    -11.242464     6A    -11.223192
       7A    -11.222178     8A    -11.219664     9A    -11.212575
      10A     -1.468687    11A     -1.368870    12A     -1.097474
      13A     -1.043941    14A     -0.989295    15A     -0.958398
      16A     -0.859289    17A     -0.800472    18A     -0.762454
      19A     -0.704389    20A     -0.701956    21A     -0.676427
      22A     -0.654257    23A     -0.609489    24A     -0.604627
      25A     -0.583406    26A     -0.564391    27A     -0.561743
      28A     -0.543490    29A     -0.532239    30A     -0.509231
      31A     -0.491186    32A     -0.473068    33A     -0.469450
      34A     -0.465085    35A     -0.449375    36A     -0.427473

  @DF-RHF Final Energy:  -422.94884857184400

   => Energetics <=

    Nuclear Repulsion Energy =            458.9753794439362764
    One-Electron Energy =               -1485.2209781071062480
    Two-Electron Energy =                 603.2967500913281356
    DFT Exchange-Correlation Energy =       0.0000000000000000
    Empirical Dispersion Energy =           0.0000000000000000
    PCM Polarization Energy =               0.0000000000000000
    EFP Energy =                            0.0000000000000000
    Total Energy =                       -422.9488485718417223

  Mulliken Charges: (a.u.)
   Center  Symbol    Alpha    Beta     Spin     Total
       1     O     4.27353  4.27353  0.00000 -0.54706
       2     C     2.58691  2.58691  0.00000  0.82618
       3     C     3.24845  3.24845  0.00000 -0.49691
       4     O     4.30115  4.30115  0.00000 -0.60230
       5     C     3.14649  3.14649  0.00000 -0.29298
       6     H     0.40049  0.40049  0.00000  0.19902
       7     H     0.40355  0.40355  0.00000  0.19291
       8     C     3.15322  3.15322  0.00000 -0.30643
       9     H     0.40955  0.40955  0.00000  0.18090
      10     H     0.41010  0.41010  0.00000  0.17979
      11     C     3.15190  3.15190  0.00000 -0.30380
      12     H     0.42516  0.42516  0.00000  0.14969
      13     H     0.42548  0.42548  0.00000  0.14903
      14     C     3.23967  3.23967  0.00000 -0.47935
      15     H     0.42044  0.42044  0.00000  0.15911
      16     H     0.42062  0.42062  0.00000  0.15876
      17     H     0.42194  0.42194  0.00000  0.15613
      18     H     0.41770  0.41770  0.00000  0.16460
      19     H     0.42207  0.42207  0.00000  0.15587
      20     C     3.10074  3.10074  0.00000 -0.20148
      21     H     0.41209  0.41209  0.00000  0.17582
      22     H     0.39452  0.39452  0.00000  0.21096
      23     H     0.41423  0.41423  0.00000  0.17154

   Total alpha = 36.00000, Total beta = 36.00000, Total charge = -0.00000
