  ==> Input File <==

--------------------------------------------------------------------------
set {
	reference rhf
	basis 6-31G*
}

set_num_threads( 1 )
memory 2 gb

molecule MOL {
0 1

H	 -0.000158	 1.970498	 0.756846
O	 -0.000074	 1.880206	 -0.189275
C	 -0.000015	 0.544847	 -0.545111
C	 -1.278788	 -0.123820	 -0.051541
C	 1.278802	 -0.123718	 -0.051505
H	 -0.000001	 0.490777	 -1.623619
F	 -1.638760	 -1.066949	 -0.895621
F	 -1.128169	 -0.674312	 1.134474
F	 -2.268857	 0.751334	 0.022394
F	 2.323327	 0.466644	 -0.591854
F	 1.326242	 -1.401483	 -0.363667
F	 1.388946	 -0.015632	 1.262939

	symmetry c1
}
set optking {
	frozen_dihedral = ("
		6 3 2 1
	")
}

ee = energy('scf')
oeprop('DIPOLE', 'QUADRUPOLE', 'MULLIKEN_CHARGES')
f=open( 'psi4out.xyz', 'w' )
f.write( "12  " )
f.write( str(ee) + "\n" )
f.write( MOL.save_string_xyz() )
f.close()
--------------------------------------------------------------------------

    Molecular point group: c1

    Geometry (in Angstrom), charge = 0, multiplicity = 1:

       Center              X                  Y                   Z               Mass
    ------------   -----------------  -----------------  -----------------  -----------------
           H         -0.000458538564     1.974917537364     0.762055195808     1.007825032070
           O         -0.000374538564     1.884625537364    -0.184065804192    15.994914619560
           C         -0.000315538564     0.549266537364    -0.539901804192    12.000000000000
           C         -1.279088538564    -0.119400462636    -0.046331804192    12.000000000000
           C          1.278501461436    -0.119298462636    -0.046295804192    12.000000000000
           H         -0.000301538564     0.495196537364    -1.618409804192     1.007825032070
           F         -1.639060538564    -1.062529462636    -0.890411804192    18.998403224000
           F         -1.128469538564    -0.669892462636     1.139683195808    18.998403224000
           F         -2.269157538564     0.755753537364     0.027603195808    18.998403224000
           F          2.323026461436     0.471063537364    -0.586644804192    18.998403224000
           F          1.325941461436    -1.397063462636    -0.358457804192    18.998403224000
           F          1.388645461436    -0.011212462636     1.268148195808    18.998403224000

  Charge       = 0
  Multiplicity = 1
  Basis Set: 6-31G*
  Basis Set:

    Orbital Energies (a.u.)
    -----------------------

    Doubly Occupied:

       1A    -26.363744     2A    -26.363505     3A    -26.361771
       4A    -26.358678     5A    -26.358447     6A    -26.357064
       7A    -20.615106     8A    -11.526481     9A    -11.525013
      10A    -11.348113    11A     -1.764845    12A     -1.758449
      13A     -1.661885    14A     -1.659425    15A     -1.655846
      16A     -1.653848    17A     -1.434462    18A     -1.101569
      19A     -0.996980    20A     -0.937771    21A     -0.865088
      22A     -0.862192    23A     -0.850900    24A     -0.845154
      25A     -0.833086    26A     -0.812617    27A     -0.739902
      28A     -0.727873    29A     -0.726748    30A     -0.720130
      31A     -0.688567    32A     -0.685416    33A     -0.682994
      34A     -0.675784    35A     -0.669493    36A     -0.659407
      37A     -0.658942    38A     -0.651920    39A     -0.616732
      40A     -0.549334    41A     -0.506247

  @DF-RHF Final Energy:  -786.27335176826932

   => Energetics <=

    Nuclear Repulsion Energy =            670.6920537460371179
    One-Electron Energy =               -2428.2680600895328098
    Two-Electron Energy =                 971.3026545752270522
    DFT Exchange-Correlation Energy =       0.0000000000000000
    Empirical Dispersion Energy =           0.0000000000000000
    PCM Polarization Energy =               0.0000000000000000
    EFP Energy =                            0.0000000000000000
    Total Energy =                       -786.2733517682686397

  Mulliken Charges: (a.u.)
   Center  Symbol    Alpha    Beta     Spin     Total
       1     H     0.26797  0.26797  0.00000  0.46406
       2     O     4.35995  4.35995  0.00000 -0.71990
       3     C     3.05668  3.05668  0.00000 -0.11337
       4     C     2.44290  2.44290  0.00000  1.11419
       5     C     2.44234  2.44234  0.00000  1.11531
       6     H     0.37313  0.37313  0.00000  0.25375
       7     F     4.67598  4.67598  0.00000 -0.35197
       8     F     4.67481  4.67481  0.00000 -0.34963
       9     F     4.67636  4.67636  0.00000 -0.35273
      10     F     4.67472  4.67472  0.00000 -0.34944
      11     F     4.67401  4.67401  0.00000 -0.34803
      12     F     4.68113  4.68113  0.00000 -0.36225

   Total alpha = 41.00000, Total beta = 41.00000, Total charge =  0.00000
