  ==> Input File <==

--------------------------------------------------------------------------
set {
	reference rhf
	basis cc-pvtz
}

set_num_threads( 4 )
memory 2 gb

molecule MOL {
0 1

H	 1.051776	 -2.550251	 -0.424099
C	 0.481849	 -2.543611	 0.514407
C	 -0.796107	 -1.752149	 0.479559
O	 0.888687	 -3.129150	 1.457413
C	 -0.554654	 -0.292621	 0.086567
H	 -1.271759	 -1.825927	 1.448656
H	 -1.448917	 -2.220241	 -0.254340
C	 -1.846385	 0.513195	 -0.016346
H	 0.101998	 0.169946	 0.817852
H	 -0.031101	 -0.254551	 -0.865334
C	 -3.089953	 -0.365049	 -0.098564
H	 -1.798267	 1.154820	 -0.891143
H	 -1.925398	 1.173265	 0.842889
H	 -3.055079	 -1.012299	 -0.968245
H	 -3.988403	 0.236438	 -0.170014
H	 -3.183055	 -0.995885	 0.779079

	symmetry c1
}
set optking {
	frozen_dihedral = ("
		9 5 8 12
	")
}

ee = optimize('scf')
oeprop('DIPOLE', 'QUADRUPOLE', 'MULLIKEN_CHARGES')
f=open( 'psi4out.xyz', 'w' )
f.write( "16  " )
f.write( str(ee) + "\n" )
f.write( MOL.save_string_xyz() )
f.close()
--------------------------------------------------------------------------

    Molecular point group: c1
  Charge       = 0
  Multiplicity = 1
  Basis Set: CC-PVTZ
  Basis Set:
  @DF-RHF Final Energy:  -270.10709546865394
    Total Energy =                       -270.1070954686538812
    Molecular point group: c1
  Basis Set: CC-PVTZ
  Basis Set:
  Basis Set: CC-PVTZ
  Basis Set:
  @DF-RHF Final Energy:  -270.10765105494005
    Total Energy =                       -270.1076510549397653
  Basis Set: CC-PVTZ
  Basis Set:
  Basis Set: CC-PVTZ
  Basis Set:
  @DF-RHF Final Energy:  -270.11038304729800
    Total Energy =                       -270.1103830472980576
  Basis Set: CC-PVTZ
  Basis Set:
  Basis Set: CC-PVTZ
  Basis Set:
  @DF-RHF Final Energy:  -270.11056035450270
    Total Energy =                       -270.1105603545028089
  Basis Set: CC-PVTZ
  Basis Set:
  @DF-RHF Final Energy:  -270.11056975983456
    Total Energy =                       -270.1105697598347888
  Basis Set: CC-PVTZ
  Basis Set:
  @DF-RHF Final Energy:  -270.11069466210756
    Total Energy =                       -270.1106946621076759
  Basis Set: CC-PVTZ
  Basis Set:
  Basis Set: CC-PVTZ
  Basis Set:
  @DF-RHF Final Energy:  -270.11072132289553
    Total Energy =                       -270.1107213228958130
  Basis Set: CC-PVTZ
  Basis Set:
  Basis Set: CC-PVTZ
  Basis Set:
  @DF-RHF Final Energy:  -270.11072333948891
    Total Energy =                       -270.1107233394887999
  Basis Set: CC-PVTZ
  Basis Set:
  Charge       = 0
  Multiplicity = 1
  Basis Set: CC-PVTZ
  Basis Set:

    Orbital Energies (a.u.)
    -----------------------

    Doubly Occupied:

       1A    -20.551578     2A    -11.320691     3A    -11.235288
       4A    -11.233068     5A    -11.228163     6A    -11.217397
       7A     -1.406335     8A     -1.094424     9A     -1.015678
      10A     -0.916193    11A     -0.810690    12A     -0.785898
      13A     -0.679674    14A     -0.651659    15A     -0.640705
      16A     -0.587536    17A     -0.577709    18A     -0.568741
      19A     -0.532984    20A     -0.520669    21A     -0.486903
      22A     -0.473057    23A     -0.470245    24A     -0.411722

  @DF-RHF Final Energy:  -270.11072399646957

   => Energetics <=

    Nuclear Repulsion Energy =            232.7228792548791034
    One-Electron Energy =                -826.8332009273227641
    Two-Electron Energy =                 323.9995976759742007
    DFT Exchange-Correlation Energy =       0.0000000000000000
    Empirical Dispersion Energy =           0.0000000000000000
    PCM Polarization Energy =               0.0000000000000000
    EFP Energy =                            0.0000000000000000
    Total Energy =                       -270.1107239964694600
    Molecular point group: c1
  Basis Set: CC-PVTZ
  Basis Set:

  -Total Gradient:
     Atom            X                  Y                   Z
    ------   -----------------  -----------------  -----------------
       1       -0.000000325618    -0.000001010095     0.000002169671
       2        0.000024452302     0.000034735214     0.000008316488
       3        0.000026238777     0.000060752253     0.000006514145
       4       -0.000023209646    -0.000040548093    -0.000007490137
       5        0.002131245052     0.002772481654    -0.005238539775
       6        0.000013917725    -0.000010564408    -0.000004453196
       7       -0.000020079206    -0.000028479236     0.000010349290
       8        0.002237113566     0.003865584492     0.004402638684
       9       -0.002141997514    -0.002944975071     0.003758991688
      10       -0.000006803710     0.000002294573     0.000007925088
      11       -0.000005021676    -0.000010222573    -0.000004201047
      12       -0.002234810311    -0.003701497089    -0.002937715370
      13        0.000003482785    -0.000007537177    -0.000003880665
      14       -0.000004139427     0.000009159966     0.000000689954
      15        0.000001596575     0.000003881899     0.000002898761
      16       -0.000001659671    -0.000004056306    -0.000004213578

  **** Optimization is complete! (in 9 steps) ****
    Final optimized geometry and variables:
    Molecular point group: c1

    Geometry (in Angstrom), charge = 0, multiplicity = 1:

    H            1.908552592346    -1.281063194783    -0.846628305828
    C            1.371147130342    -1.265088577508     0.110871772607
    C            0.047674642055    -0.551743714012     0.088307843186
    O            1.844202675622    -1.782697147405     1.062840114572
    C            0.225862834779     0.913354537974    -0.334952202683
    H           -0.396751144092    -0.633154762109     1.070956625647
    H           -0.588125842685    -1.077211798517    -0.617988458050
    C           -1.070378651121     1.755728132621    -0.409342502910
    H            0.886473764156     1.363595065720     0.397813117209
    H            0.736730915763     0.941005941072    -1.291191568905
    C           -2.380663443759     0.979493574154    -0.547255707715
    H           -1.001903792133     2.402109618683    -1.277055782726
    H           -1.134840053437     2.394814923698     0.462780861662
    H           -2.389656720145     0.362729289671    -1.439331903144
    H           -3.210457032204     1.672176690919    -0.624552464489
    H           -2.570868306997     0.337434182923     0.303825921381

  Mulliken Charges: (a.u.)
   Center  Symbol    Alpha    Beta     Spin     Total
       1     H     0.46599  0.46599  0.00000  0.06802
       2     C     2.91146  2.91146  0.00000  0.17707
       3     C     3.07816  3.07816  0.00000 -0.15632
       4     O     4.16411  4.16411  0.00000 -0.32823
       5     C     3.11080  3.11080  0.00000 -0.22160
       6     H     0.44199  0.44199  0.00000  0.11602
       7     H     0.44788  0.44788  0.00000  0.10424
       8     C     3.08629  3.08629  0.00000 -0.17258
       9     H     0.44280  0.44280  0.00000  0.11439
      10     H     0.44842  0.44842  0.00000  0.10315
      11     C     3.15891  3.15891  0.00000 -0.31782
      12     H     0.44935  0.44935  0.00000  0.10131
      13     H     0.44761  0.44761  0.00000  0.10478
      14     H     0.45338  0.45338  0.00000  0.09324
      15     H     0.44262  0.44262  0.00000  0.11475
      16     H     0.45021  0.45021  0.00000  0.09957

   Total alpha = 24.00000, Total beta = 24.00000, Total charge = -0.00000
