                              Psi4 1.0.54 Driver

  ==> Input File <==

--------------------------------------------------------------------------
set {
	reference rhf
	basis cc-pvtz
}

set_num_threads( 4 )
memory 2 gb

molecule MOL {
0 1

H	 -3.436473	 1.252944	 -1.023892
O	 -3.458596	 0.315260	 -0.960865
C	 -3.176635	 -0.080824	 0.355601
C	 -1.763371	 0.265266	 0.799691
H	 -3.321825	 -1.153438	 0.379502
H	 -3.895468	 0.357385	 1.043382
C	 -1.104424	 1.360041	 -0.034322
H	 -1.785157	 0.563824	 1.846712
H	 -1.164354	 -0.641171	 0.755650
C	 0.299859	 1.717830	 0.445208
H	 -1.730329	 2.245459	 -0.020520
H	 -1.059138	 1.035437	 -1.071186
C	 0.955670	 2.810530	 -0.396793
H	 0.248304	 2.030639	 1.483660
H	 0.925891	 0.828141	 0.425319
C	 2.395409	 3.147922	 -0.005426
H	 0.350800	 3.713017	 -0.346810
H	 0.946481	 2.498559	 -1.437567
C	 2.549346	 3.786236	 1.372979
H	 2.802961	 3.825784	 -0.749188
H	 3.000781	 2.246508	 -0.054393
H	 1.949928	 4.687509	 1.453492
H	 3.582037	 4.060293	 1.556508
H	 2.245501	 3.115186	 2.167319

	symmetry c1
}
set optking {
	frozen_dihedral = ("
		7 4 3 2
	")
}

ee,wfn = optimize('scf', return_wfn=True)
oeprop( wfn, 'DIPOLE', 'QUADRUPOLE', 'MULLIKEN_CHARGES')
f=open( 'psi4out.xyz', 'w' )
f.write( "24  " )
f.write( str(ee) + "\n" )
f.write( MOL.save_string_xyz() )
f.close()
--------------------------------------------------------------------------

    Molecular point group: c1
  Charge       = 0
  Multiplicity = 1
  Basis Set: CC-PVTZ
  Basis Set:
  @DF-RHF Final Energy:  -349.37238586553099
    Total Energy =                       -349.3723858655316690
    Molecular point group: c1
  Basis Set: CC-PVTZ
  Basis Set:
  Basis Set: CC-PVTZ
  Basis Set:
  @DF-RHF Final Energy:  -349.37294178738915
    Total Energy =                       -349.3729417873890952
  Basis Set: CC-PVTZ
  Basis Set:
  Basis Set: CC-PVTZ
  Basis Set:
  @DF-RHF Final Energy:  -349.37352818173770
    Total Energy =                       -349.3735281817381519
  Basis Set: CC-PVTZ
  Basis Set:
  Basis Set: CC-PVTZ
  Basis Set:
  @DF-RHF Final Energy:  -349.37353870219482
    Total Energy =                       -349.3735387021950487
  Basis Set: CC-PVTZ
  Basis Set:
  Basis Set: CC-PVTZ
  Basis Set:
  @DF-RHF Final Energy:  -349.37354078406344
    Total Energy =                       -349.3735407840631524
  Basis Set: CC-PVTZ
  Basis Set:
  Charge       = 0
  Multiplicity = 1
  Basis Set: CC-PVTZ
  Basis Set:

    Orbital Energies (a.u.)
    -----------------------

    Doubly Occupied:

       1A    -20.545122     2A    -11.265806     3A    -11.215070
       4A    -11.214042     5A    -11.213726     6A    -11.212529
       7A    -11.211760     8A    -11.206684     9A     -1.363448
      10A     -1.091487    11A     -1.048324    12A     -0.986156
      13A     -0.920056    14A     -0.854528    15A     -0.794315
      16A     -0.779132    17A     -0.694526    18A     -0.649909
      19A     -0.626488    20A     -0.610667    21A     -0.606898
      22A     -0.588885    23A     -0.560715    24A     -0.542578
      25A     -0.519917    26A     -0.513041    27A     -0.494298
      28A     -0.483938    29A     -0.466260    30A     -0.461057
      31A     -0.455172    32A     -0.445873    33A     -0.423493

  @DF-RHF Final Energy:  -349.37354151277827

   => Energetics <=

    Nuclear Repulsion Energy =            385.7195729288094981
    One-Electron Energy =               -1238.0544194154790603
    Two-Electron Energy =                 502.9613049738910604
    DFT Exchange-Correlation Energy =       0.0000000000000000
    Empirical Dispersion Energy =           0.0000000000000000
    PCM Polarization Energy =               0.0000000000000000
    EFP Energy =                            0.0000000000000000
    Total Energy =                       -349.3735415127785018
    Molecular point group: c1
  Basis Set: CC-PVTZ
  Basis Set:

  -Total Gradient:
     Atom            X                  Y                   Z
    ------   -----------------  -----------------  -----------------
       1       -0.000002430979     0.000017809355    -0.000028197427
       2       -0.001331262612     0.003662299098     0.001357155306
       3        0.002449659185    -0.006161171288    -0.002913641882
       4       -0.002484593147     0.005088441760     0.003912811698
       5        0.000013174724    -0.000010870658     0.000032842997
       6        0.000018832685     0.000000482533     0.000012763890
       7        0.001345215829    -0.002579133543    -0.002357116269
       8        0.000000490630     0.000001306217     0.000001348041
       9       -0.000016543733    -0.000015346798     0.000003726282
      10        0.000015693306    -0.000003934012    -0.000004177623
      11        0.000005301849     0.000005896682    -0.000009012914
      12        0.000002764730     0.000000885330    -0.000002433383
      13        0.000000477758     0.000002495100    -0.000009572101
      14        0.000000628451     0.000002759330     0.000005896460
      15       -0.000000841928    -0.000003784678    -0.000002314296
      16       -0.000004678294     0.000003909283     0.000002378493
      17       -0.000000438103    -0.000000422608    -0.000003735931
      18        0.000002080877    -0.000003690456    -0.000000081273
      19       -0.000002572869    -0.000002894148    -0.000000120115
      20       -0.000005493938     0.000001584990     0.000000240805
      21        0.000000311028    -0.000000088448    -0.000002514546
      22        0.000000879541    -0.000000191162    -0.000000762664
      23        0.000001524046    -0.000001064766     0.000001620149
      24       -0.000008179045    -0.000005277117     0.000002896305

  **** Optimization is complete! (in 6 steps) ****
    Final optimized geometry and variables:
    Molecular point group: c1

    Geometry (in Angstrom), charge = 0, multiplicity = 1:

    H           -3.141664635219    -0.399934747502    -1.214730132063
    O           -3.086882497657    -1.334996742830    -1.151958756790
    C           -2.746891757399    -1.711811142022     0.155640171695
    C           -1.311220960478    -1.347704764653     0.587250532495
    H           -2.886287561209    -2.781958364589     0.202793719474
    H           -3.455951786142    -1.269850177910     0.851127818936
    C           -0.639363678810    -0.249259942249    -0.234432255809
    H           -1.325536021256    -1.066707834801     1.635567430259
    H           -0.687775737060    -2.234384033233     0.521343753598
    C            0.771346518559     0.069501765197     0.254917273095
    H           -1.234293492348     0.662679947852    -0.198139413536
    H           -0.602797611193    -0.551859102945    -1.273849286885
    C            1.454049438529     1.160161196776    -0.568247904940
    H            0.727017125316     0.364158424599     1.298649139647
    H            1.373902178223    -0.835194581545     0.217935626175
    C            2.902525219329     1.452389845369    -0.172664278572
    H            0.873999636785     2.077999156168    -0.500512686726
    H            1.435551613551     0.867449812063    -1.614399054354
    C            3.074776744563     2.057235071789     1.218604384886
    H            3.326112339887     2.135015050135    -0.902934228519
    H            3.484219294756     0.536959203394    -0.242017804389
    H            2.498067490998     2.971193906429     1.319881712043
    H            4.114236788943     2.301812907055     1.405213923325
    H            2.756193521065     1.377125853174     1.999307766932

  Mulliken Charges: (a.u.)
   Center  Symbol    Alpha    Beta     Spin     Total
       1     H     0.39042  0.39042  0.00000  0.21917
       2     O     4.20336  4.20336  0.00000 -0.40672
       3     C     2.97475  2.97475  0.00000  0.05050
       4     C     3.10327  3.10327  0.00000 -0.20654
       5     H     0.45270  0.45270  0.00000  0.09460
       6     H     0.46834  0.46834  0.00000  0.06331
       7     C     3.09567  3.09567  0.00000 -0.19135
       8     H     0.45348  0.45348  0.00000  0.09304
       9     H     0.45382  0.45382  0.00000  0.09235
      10     C     3.09433  3.09433  0.00000 -0.18867
      11     H     0.46240  0.46240  0.00000  0.07520
      12     H     0.44034  0.44034  0.00000  0.11931
      13     C     3.09450  3.09450  0.00000 -0.18900
      14     H     0.45338  0.45338  0.00000  0.09325
      15     H     0.45366  0.45366  0.00000  0.09268
      16     C     3.09061  3.09061  0.00000 -0.18122
      17     H     0.45501  0.45501  0.00000  0.08997
      18     H     0.44919  0.44919  0.00000  0.10162
      19     C     3.15255  3.15255  0.00000 -0.30510
      20     H     0.44843  0.44843  0.00000  0.10315
      21     H     0.45449  0.45449  0.00000  0.09102
      22     H     0.45521  0.45521  0.00000  0.08957
      23     H     0.44627  0.44627  0.00000  0.10747
      24     H     0.45380  0.45380  0.00000  0.09239

   Total alpha = 33.00000, Total beta = 33.00000, Total charge =  0.00000

*** Psi4 exiting successfully. Buy a developer a beer!
