  ==> Input File <==

--------------------------------------------------------------------------
set {
	reference rhf
	basis cc-pvtz
}

set_num_threads( 4 )
memory 2 gb

molecule MOL {
0 1

O	 1.515005	 0.805872	 0.884887
C	 1.121787	 0.124983	 0.000110
C	 -0.170912	 -0.649867	 -0.000147
O	 1.785271	 -0.046722	 -1.131563
C	 -1.413045	 0.229353	 0.001137
H	 -0.152877	 -1.303435	 -0.866175
H	 -0.152278	 -1.305116	 0.864586
C	 -2.702562	 -0.586401	 0.000228
H	 -1.390744	 0.882001	 -0.864365
H	 -1.390549	 0.879837	 0.868264
C	 -3.953810	 0.284959	 -0.000782
H	 -2.717793	 -1.238567	 -0.869075
H	 -2.719108	 -1.238472	 0.869576
H	 -3.983727	 0.924403	 -0.876454
H	 -4.852989	 -0.320147	 -0.001515
H	 -3.985140	 0.924399	 0.874841
C	 3.020999	 0.625414	 -1.267675
H	 2.883363	 1.694293	 -1.198534
H	 3.397822	 0.361029	 -2.242341
H	 3.713548	 0.309075	 -0.501823

	symmetry c1
}
set optking {
	frozen_dihedral = ("
		1 2 3 6
	")
}

ee = optimize('scf')
oeprop('DIPOLE', 'QUADRUPOLE', 'MULLIKEN_CHARGES')
f=open( 'psi4out.xyz', 'w' )
f.write( "20  " )
f.write( str(ee) + "\n" )
f.write( MOL.save_string_xyz() )
f.close()
--------------------------------------------------------------------------

    Molecular point group: c1
  Charge       = 0
  Multiplicity = 1
  Basis Set: CC-PVTZ
  Basis Set:
  @DF-RHF Final Energy:  -384.08114745764328
    Total Energy =                       -384.0811474576432829
    Molecular point group: c1
  Basis Set: CC-PVTZ
  Basis Set:
  Basis Set: CC-PVTZ
  Basis Set:
  @DF-RHF Final Energy:  -384.08183678258854
    Total Energy =                       -384.0818367825880841
  Basis Set: CC-PVTZ
  Basis Set:
  Basis Set: CC-PVTZ
  Basis Set:
  @DF-RHF Final Energy:  -384.08188882613683
    Total Energy =                       -384.0818888261366055
  Basis Set: CC-PVTZ
  Basis Set:
  Basis Set: CC-PVTZ
  Basis Set:
  @DF-RHF Final Energy:  -384.08186540498195
    Total Energy =                       -384.0818654049818406
  Basis Set: CC-PVTZ
  Basis Set:
  Basis Set: CC-PVTZ
  Basis Set:
  @DF-RHF Final Energy:  -384.08189612199800
    Total Energy =                       -384.0818961219983976
  Basis Set: CC-PVTZ
  Basis Set:
  Charge       = 0
  Multiplicity = 1
  Basis Set: CC-PVTZ
  Basis Set:

    Orbital Energies (a.u.)
    -----------------------

    Doubly Occupied:

       1A    -20.598655     2A    -20.531091     3A    -11.363791
       4A    -11.278539     5A    -11.232106     6A    -11.225420
       7A    -11.221058     8A    -11.211284     9A     -1.472400
      10A     -1.364401    11A     -1.092379    12A     -1.025431
      13A     -0.970027    14A     -0.888782    15A     -0.806335
      16A     -0.774671    17A     -0.697259    18A     -0.683559
      19A     -0.676169    20A     -0.648470    21A     -0.599763
      22A     -0.593308    23A     -0.575222    24A     -0.553716
      25A     -0.535398    26A     -0.523749    27A     -0.506957
      28A     -0.481425    29A     -0.478612    30A     -0.475002
      31A     -0.457490    32A     -0.434941

  @DF-RHF Final Energy:  -384.08189705247855

   => Energetics <=

    Nuclear Repulsion Energy =            382.7735184022646990
    One-Electron Energy =               -1281.7560080945199843
    Two-Electron Energy =                 514.9005926397769599
    DFT Exchange-Correlation Energy =       0.0000000000000000
    Empirical Dispersion Energy =           0.0000000000000000
    PCM Polarization Energy =               0.0000000000000000
    EFP Energy =                            0.0000000000000000
    Total Energy =                       -384.0818970524783253
    Molecular point group: c1
  Basis Set: CC-PVTZ
  Basis Set:

  -Total Gradient:
     Atom            X                  Y                   Z
    ------   -----------------  -----------------  -----------------
       1       -0.000050728270     0.000108779504    -0.000005200900
       2        0.000068685957    -0.000102160964     0.000053527795
       3        0.000034043671    -0.000062898648     0.000029177943
       4       -0.000010697828     0.000001430774    -0.000012908448
       5       -0.000003470743     0.000015832242     0.000007364032
       6       -0.000049907933     0.000046425405    -0.000071886121
       7       -0.000003091397     0.000014400363    -0.000016827902
       8        0.000004977785    -0.000010960206     0.000011387488
       9        0.000009503358    -0.000016819717     0.000006260218
      10       -0.000012921834     0.000004806720    -0.000000022585
      11        0.000008863038     0.000010949586    -0.000000883539
      12        0.000010289527     0.000003368631     0.000000219557
      13        0.000003662333    -0.000003164200     0.000000072357
      14       -0.000002146515     0.000003098866     0.000000433959
      15        0.000001249139    -0.000001462995    -0.000001503842
      16       -0.000003264721     0.000000785746     0.000000076837
      17       -0.000000280394    -0.000015828509     0.000011138843
      18       -0.000000951170     0.000001757277    -0.000001756249
      19       -0.000006195814    -0.000002577576    -0.000003240075
      20        0.000002381807     0.000004237701    -0.000005429366

  **** Optimization is complete! (in 6 steps) ****
    Final optimized geometry and variables:
    Molecular point group: c1

    Geometry (in Angstrom), charge = 0, multiplicity = 1:

    O            1.540574250050     0.650432293958     1.090716264934
    C            1.182933285688    -0.025653783251     0.185920190203
    C           -0.096778652320    -0.822525633996     0.181102225471
    O            1.863835223925    -0.146587268014    -0.940175091755
    C           -1.322359658381     0.095564008471     0.172215343802
    H           -0.109655316569    -1.485136114759    -0.672724220732
    H           -0.098907865329    -1.423450688423     1.082543683322
    C           -2.633669274980    -0.682327923631     0.219383042710
    H           -1.301377969229     0.713073379049    -0.721631863508
    H           -1.262522338202     0.769044807898     1.019178655592
    C           -3.859859749096     0.223962909844     0.207839746578
    H           -2.680280684439    -1.363555370020    -0.625669411262
    H           -2.650310539432    -1.300902859311     1.112331880043
    H           -3.888953324279     0.831629579805    -0.690342128417
    H           -4.774788206874    -0.355689096066     0.244585076211
    H           -3.857948869353     0.894810725415     1.060114805513
    C            3.073290219312     0.577937162837    -1.045774121274
    H            2.891208598814     1.638270979186    -0.953221190176
    H            3.471311003809     0.351536388976    -2.021567293838
    H            3.768426912729     0.271519718118    -0.278422535969

  Mulliken Charges: (a.u.)
   Center  Symbol    Alpha    Beta     Spin     Total
       1     O     4.20549  4.20549  0.00000 -0.41099
       2     C     2.81069  2.81069  0.00000  0.37861
       3     C     3.07892  3.07892  0.00000 -0.15784
       4     O     4.14569  4.14569  0.00000 -0.29137
       5     C     3.09432  3.09432  0.00000 -0.18864
       6     H     0.44114  0.44114  0.00000  0.11772
       7     H     0.44321  0.44321  0.00000  0.11357
       8     C     3.08863  3.08863  0.00000 -0.17725
       9     H     0.45134  0.45134  0.00000  0.09733
      10     H     0.44035  0.44035  0.00000  0.11930
      11     C     3.14928  3.14928  0.00000 -0.29856
      12     H     0.45399  0.45399  0.00000  0.09201
      13     H     0.45284  0.45284  0.00000  0.09432
      14     H     0.45458  0.45458  0.00000  0.09085
      15     H     0.44774  0.44774  0.00000  0.10453
      16     H     0.45312  0.45312  0.00000  0.09377
      17     C     3.03540  3.03540  0.00000 -0.07079
      18     H     0.45410  0.45410  0.00000  0.09179
      19     H     0.44529  0.44529  0.00000  0.10942
      20     H     0.45389  0.45389  0.00000  0.09222

   Total alpha = 32.00000, Total beta = 32.00000, Total charge = -0.00000
