  ==> Input File <==

--------------------------------------------------------------------------
set {
	reference rhf
	basis 6-31G*
}

set_num_threads( 4 )
memory 2 gb

molecule MOL {
0 1

H	 -2.172150	 0.880146	 0.502514
C	 -2.018062	 -0.000025	 -0.114509
O	 -0.774054	 0.001095	 -0.743181
H	 -2.760490	 0.003458	 -0.901350
H	 -2.173624	 -0.884374	 0.496163
C	 -0.067697	 -1.216374	 -0.902433
C	 1.212513	 -0.799471	 -1.623035
C	 0.275688	 -1.837646	 0.455247
C	 -0.856560	 -2.204078	 -1.768026
H	 1.760141	 -0.079949	 -1.024851
H	 0.971964	 -0.334281	 -2.572302
H	 1.853138	 -1.655508	 -1.808671
H	 0.770526	 -1.108050	 1.087588
H	 0.942618	 -2.683530	 0.323773
H	 -0.605550	 -2.197819	 0.975102
H	 -1.156757	 -1.732111	 -2.697639
H	 -0.244107	 -3.067661	 -2.006059
H	 -1.747237	 -2.567039	 -1.266443

	symmetry c1
}
set optking {
	frozen_dihedral = ("
		6 3 2 5
	")
}

ee = optimize('scf')
oeprop('DIPOLE', 'QUADRUPOLE', 'MULLIKEN_CHARGES')
f=open( 'psi4out.xyz', 'w' )
f.write( "18  " )
f.write( str(ee) + "\n" )
f.write( MOL.save_string_xyz() )
f.close()
--------------------------------------------------------------------------

    Molecular point group: c1
  Charge       = 0
  Multiplicity = 1
  Basis Set: 6-31G*
  Basis Set:
  @DF-RHF Final Energy:  -271.17216518233255
    Total Energy =                       -271.1721651823325487
    Molecular point group: c1
  Basis Set: 6-31G*
  Basis Set:
  Basis Set: 6-31G*
  Basis Set:
  @DF-RHF Final Energy:  -271.17290450744480
    Total Energy =                       -271.1729045074446276
  Basis Set: 6-31G*
  Basis Set:
  Basis Set: 6-31G*
  Basis Set:
  @DF-RHF Final Energy:  -271.17344313326174
    Total Energy =                       -271.1734431332618556
  Basis Set: 6-31G*
  Basis Set:
  Basis Set: 6-31G*
  Basis Set:
  @DF-RHF Final Energy:  -271.17380156955056
    Total Energy =                       -271.1738015695503350
  Basis Set: 6-31G*
  Basis Set:
  Basis Set: 6-31G*
  Basis Set:
  @DF-RHF Final Energy:  -271.17371876766305
    Total Energy =                       -271.1737187676629333
  Basis Set: 6-31G*
  Basis Set:
  Basis Set: 6-31G*
  Basis Set:
  @DF-RHF Final Energy:  -271.17382796705988
    Total Energy =                       -271.1738279670598786
  Basis Set: 6-31G*
  Basis Set:
  Charge       = 0
  Multiplicity = 1
  Basis Set: 6-31G*
  Basis Set:

    Orbital Energies (a.u.)
    -----------------------

    Doubly Occupied:

       1A    -20.544861     2A    -11.281843     3A    -11.260986
       4A    -11.209227     5A    -11.208128     6A    -11.203227
       7A     -1.368257     8A     -1.072610     9A     -0.945781
      10A     -0.939826    11A     -0.912742    12A     -0.752668
      13A     -0.655133    14A     -0.643404    15A     -0.638432
      16A     -0.590206    17A     -0.571473    18A     -0.552430
      19A     -0.537849    20A     -0.523847    21A     -0.514926
      22A     -0.489806    23A     -0.487043    24A     -0.438064
      25A     -0.401433

  @DF-RHF Final Energy:  -271.17382809496121

   => Energetics <=

    Nuclear Repulsion Energy =            272.1997346531350104
    One-Electron Energy =                -907.2587226276299361
    Two-Electron Energy =                 363.8851598795336599
    DFT Exchange-Correlation Energy =       0.0000000000000000
    Empirical Dispersion Energy =           0.0000000000000000
    PCM Polarization Energy =               0.0000000000000000
    EFP Energy =                            0.0000000000000000
    Total Energy =                       -271.1738280949612658
    Molecular point group: c1
  Basis Set: 6-31G*
  Basis Set:

  -Total Gradient:
     Atom            X                  Y                   Z
    ------   -----------------  -----------------  -----------------
       1        0.000029074041    -0.000006341832    -0.000013293525
       2        0.001171353101     0.001103591568     0.002701698547
       3       -0.001086014204    -0.000361258674    -0.002461970159
       4       -0.000037599034     0.000001659677     0.000021797666
       5       -0.000699382395    -0.000752285726    -0.001543124213
       6        0.000539437384     0.000170674079     0.001384162158
       7       -0.000014512656    -0.000060205781     0.000006129373
       8        0.000051127091     0.000019551782    -0.000041784266
       9        0.000028447728    -0.000077714175    -0.000022472540
      10       -0.000024848128    -0.000009940615     0.000003179518
      11       -0.000007134965    -0.000009987219    -0.000002505490
      12        0.000018693164    -0.000009440516     0.000001555913
      13       -0.000040061973    -0.000005486020     0.000041065341
      14        0.000040113324     0.000010644309     0.000003051203
      15        0.000013035576     0.000003709653    -0.000040051069
      16        0.000007017824     0.000002051694    -0.000000143526
      17       -0.000016049198    -0.000006923573    -0.000018735212
      18        0.000027303321    -0.000012298631    -0.000018559717

  **** Optimization is complete! (in 7 steps) ****
    Final optimized geometry and variables:
    Molecular point group: c1

    Geometry (in Angstrom), charge = 0, multiplicity = 1:

    H           -1.744980296128     1.833367962059     1.285911882373
    C           -1.658474564579     0.986176735843     0.616840341194
    O           -0.376876436880     0.999809761936     0.061258311526
    H           -2.412094621177     1.081816414262    -0.160032213627
    H           -1.871978446929     0.082496139111     1.174801570736
    C            0.329896517910    -0.213873226754    -0.119533734481
    C            1.600169930627     0.208314946463    -0.853999630245
    C            0.694609290359    -0.836698916402     1.231853985548
    C           -0.471025627455    -1.194512340109    -0.981833653060
    H            2.151470856185     0.929542981321    -0.261416845647
    H            1.348096441750     0.672593362658    -1.800643840568
    H            2.242058681677    -0.645498096654    -1.046067638485
    H            1.217744375077    -0.111807202492     1.846033778520
    H            1.341475143122    -1.696737455008     1.090887851770
    H           -0.179561221577    -1.174888662429     1.777547069113
    H           -0.751156747240    -0.726320314208    -1.919575197140
    H            0.120814619813    -2.076425265845    -1.204640778900
    H           -1.376556643628    -1.526617831434    -0.484886038647

  Mulliken Charges: (a.u.)
   Center  Symbol    Alpha    Beta     Spin     Total
       1     H     0.41645  0.41645  0.00000  0.16710
       2     C     3.07714  3.07714  0.00000 -0.15427
       3     O     4.32126  4.32126  0.00000 -0.64252
       4     H     0.42492  0.42492  0.00000  0.15016
       5     H     0.43012  0.43012  0.00000  0.13976
       6     C     2.84409  2.84409  0.00000  0.31181
       7     C     3.23304  3.23304  0.00000 -0.46608
       8     C     3.24398  3.24398  0.00000 -0.48796
       9     C     3.24670  3.24670  0.00000 -0.49340
      10     H     0.41383  0.41383  0.00000  0.17233
      11     H     0.41441  0.41441  0.00000  0.17118
      12     H     0.42509  0.42509  0.00000  0.14982
      13     H     0.41333  0.41333  0.00000  0.17334
      14     H     0.42082  0.42082  0.00000  0.15837
      15     H     0.42095  0.42095  0.00000  0.15811
      16     H     0.41364  0.41364  0.00000  0.17273
      17     H     0.41948  0.41948  0.00000  0.16103
      18     H     0.42075  0.42075  0.00000  0.15849

   Total alpha = 25.00000, Total beta = 25.00000, Total charge = -0.00000
