  ==> Input File <==

--------------------------------------------------------------------------
set {
	reference rhf
	basis 6-31G*
}

set_num_threads( 4 )
memory 2 gb

molecule MOL {
0 1

H	 2.888902	 -1.224928	 -0.132649
N	 3.092854	 -0.246221	 -0.068770
C	 1.865559	 0.531981	 0.018834
H	 3.604685	 -0.002715	 -0.895549
C	 0.645745	 -0.382037	 -0.029944
H	 1.841966	 1.207024	 -0.831236
H	 1.815756	 1.155410	 0.915079
C	 -0.679275	 0.379305	 0.025956
H	 0.698998	 -0.976915	 -0.937203
H	 0.693479	 -1.083846	 0.802235
C	 -1.903357	 -0.536963	 -0.023547
H	 -0.726309	 1.082987	 -0.803784
H	 -0.717680	 0.977832	 0.934877
C	 -3.225172	 0.228290	 0.028445
H	 -1.867824	 -1.134999	 -0.931459
H	 -1.860449	 -1.239604	 0.805977
H	 -3.313397	 0.915643	 -0.808262
H	 -4.073500	 -0.448134	 -0.008893
H	 -3.306061	 0.809945	 0.942516

	symmetry c1
}
set optking {
	frozen_dihedral = ("
		1 2 3 6
	")
}

ee = optimize('scf')
oeprop('DIPOLE', 'QUADRUPOLE', 'MULLIKEN_CHARGES')
f=open( 'psi4out.xyz', 'w' )
f.write( "19  " )
f.write( str(ee) + "\n" )
f.write( MOL.save_string_xyz() )
f.close()
--------------------------------------------------------------------------

    Molecular point group: c1
  Charge       = 0
  Multiplicity = 1
  Basis Set: 6-31G*
  Basis Set:
  @DF-RHF Final Energy:  -251.34598173156408
    Total Energy =                       -251.3459817315639953
    Molecular point group: c1
  Basis Set: 6-31G*
  Basis Set:
  Basis Set: 6-31G*
  Basis Set:
  @DF-RHF Final Energy:  -251.34716044370367
    Total Energy =                       -251.3471604437037854
  Basis Set: 6-31G*
  Basis Set:
  Basis Set: 6-31G*
  Basis Set:
  @DF-RHF Final Energy:  -251.34735480362625
    Total Energy =                       -251.3473548036263310
  Basis Set: 6-31G*
  Basis Set:
  Basis Set: 6-31G*
  Basis Set:
  @DF-RHF Final Energy:  -251.34735744165997
    Total Energy =                       -251.3473574416598240
  Basis Set: 6-31G*
  Basis Set:
  Basis Set: 6-31G*
  Basis Set:
  @DF-RHF Final Energy:  -251.34735844215982
    Total Energy =                       -251.3473584421598730
  Basis Set: 6-31G*
  Basis Set:
  Charge       = 0
  Multiplicity = 1
  Basis Set: 6-31G*
  Basis Set:

    Orbital Energies (a.u.)
    -----------------------

    Doubly Occupied:

       1A    -15.528511     2A    -11.239271     3A    -11.217069
       4A    -11.216623     5A    -11.216004     6A    -11.209637
       7A     -1.172908     8A     -1.075998     9A     -1.000725
      10A     -0.901716    11A     -0.818478    12A     -0.793968
      13A     -0.665049    14A     -0.642937    15A     -0.604720
      16A     -0.598756    17A     -0.566045    18A     -0.550336
      19A     -0.534099    20A     -0.498338    21A     -0.488280
      22A     -0.468628    23A     -0.465439    24A     -0.455371
      25A     -0.373084

  @DF-RHF Final Energy:  -251.34735869515939

   => Energetics <=

    Nuclear Repulsion Energy =            245.5790649188055852
    One-Electron Energy =                -825.2488660422021667
    Two-Electron Energy =                 328.3224424282369114
    DFT Exchange-Correlation Energy =       0.0000000000000000
    Empirical Dispersion Energy =           0.0000000000000000
    PCM Polarization Energy =               0.0000000000000000
    EFP Energy =                            0.0000000000000000
    Total Energy =                       -251.3473586951596985
    Molecular point group: c1
  Basis Set: 6-31G*
  Basis Set:

  -Total Gradient:
     Atom            X                  Y                   Z
    ------   -----------------  -----------------  -----------------
       1       -0.000010259837     0.000002589244     0.000050100712
       2        0.000007330805     0.000005875185    -0.000053346047
       3       -0.000040607079    -0.000037898699    -0.000030001613
       4       -0.000009976243     0.000004488670    -0.000005454412
       5        0.000049960258     0.000000182751    -0.000002738444
       6        0.000034031057     0.000027521565     0.000014457673
       7       -0.000003553452    -0.000003186038     0.000010251899
       8       -0.000016218871    -0.000000772762     0.000009957113
       9        0.000000133564     0.000003584597     0.000011046430
      10       -0.000006412366     0.000000844634    -0.000005311859
      11       -0.000014835697     0.000002698243    -0.000004479170
      12        0.000006343728    -0.000004932427     0.000003896093
      13       -0.000001151632    -0.000003636161     0.000005384376
      14        0.000000905085    -0.000000663874    -0.000002693772
      15        0.000003458826    -0.000002615802    -0.000001094096
      16       -0.000000426172     0.000004387031     0.000001317327
      17       -0.000001760413     0.000001030817    -0.000002472543
      18        0.000002773689    -0.000000368227    -0.000000016110
      19        0.000000264746     0.000000871253     0.000001196444

  **** Optimization is complete! (in 6 steps) ****
    Final optimized geometry and variables:
    Molecular point group: c1

    Geometry (in Angstrom), charge = 0, multiplicity = 1:

    H            2.970476050019    -1.205648690898    -0.062328745341
    N            3.127580497047    -0.219747121901    -0.000001392163
    C            1.868916281435     0.524875055783    -0.003094304623
    H            3.711750404579     0.036491224707    -0.769093750302
    C            0.642059938790    -0.383793440718    -0.044507466019
    H            1.835487232078     1.205594261061    -0.850818680335
    H            1.820101121406     1.144016698442     0.888851389855
    C           -0.678702086817     0.382878592584     0.032771304351
    H            0.668527172275    -0.975930547852    -0.958105611934
    H            0.699981326526    -1.088051078530     0.784137994691
    C           -1.908124313308    -0.526838942931    -0.004545098255
    H           -0.733243045813     1.092312394569    -0.791453219652
    H           -0.698436797610     0.974611214481     0.946066457806
    C           -3.224523290279     0.245560068895     0.072524478828
    H           -1.890342452012    -1.119106451260    -0.916965194957
    H           -1.856477061931    -1.234818624553     0.819770880256
    H           -3.321906626104     0.938472250221    -0.758525789410
    H           -4.076959571858    -0.426081942608     0.044397341375
    H           -3.287675168310     0.821817710298     0.991251254071

  Mulliken Charges: (a.u.)
   Center  Symbol    Alpha    Beta     Spin     Total
       1     H     0.33142  0.33142  0.00000  0.33716
       2     N     3.93272  3.93272  0.00000 -0.86544
       3     C     3.04469  3.04469  0.00000 -0.08938
       4     H     0.33163  0.33163  0.00000  0.33673
       5     C     3.16854  3.16854  0.00000 -0.33708
       6     H     0.42856  0.42856  0.00000  0.14288
       7     H     0.42064  0.42064  0.00000  0.15873
       8     C     3.15395  3.15395  0.00000 -0.30789
       9     H     0.42491  0.42491  0.00000  0.15019
      10     H     0.41994  0.41994  0.00000  0.16011
      11     C     3.15123  3.15123  0.00000 -0.30247
      12     H     0.42358  0.42358  0.00000  0.15284
      13     H     0.42129  0.42129  0.00000  0.15743
      14     C     3.23946  3.23946  0.00000 -0.47892
      15     H     0.42316  0.42316  0.00000  0.15368
      16     H     0.42228  0.42228  0.00000  0.15543
      17     H     0.42175  0.42175  0.00000  0.15649
      18     H     0.41903  0.41903  0.00000  0.16195
      19     H     0.42121  0.42121  0.00000  0.15758

   Total alpha = 25.00000, Total beta = 25.00000, Total charge =  0.00000
