  ==> Input File <==

--------------------------------------------------------------------------
set {
	reference rhf
	basis cc-pvtz
}

set_num_threads( 4 )
memory 2 gb

molecule MOL {
0 1

H	 -3.034039	 -0.667848	 0.004703
O	 -2.240597	 -1.171748	 0.000934
C	 -1.159675	 -0.364500	 0.000370
C	 -1.253401	 0.997884	 -0.198473
C	 0.075801	 -0.957862	 0.209115
H	 -2.209921	 1.459660	 -0.362455
C	 -0.097503	 1.759466	 -0.187467
H	 0.114266	 -2.019570	 0.358221
C	 1.227175	 -0.196583	 0.222135
H	 -0.166085	 2.819332	 -0.344797
C	 1.132339	 1.176620	 0.018897
C	 2.568356	 -0.838491	 0.472799
H	 2.019267	 1.781444	 0.021761
H	 3.318948	 -0.447126	 -0.202676
H	 2.522417	 -1.911202	 0.342694
H	 2.903642	 -0.639891	 1.485116

	symmetry c1
}
set optking {
	frozen_dihedral = ("
		5 3 2 1
	")
}

ee = optimize('scf')
oeprop('DIPOLE', 'QUADRUPOLE', 'MULLIKEN_CHARGES')
f=open( 'psi4out.xyz', 'w' )
f.write( "16  " )
f.write( str(ee) + "\n" )
f.write( MOL.save_string_xyz() )
f.close()
--------------------------------------------------------------------------

    Molecular point group: c1
  Charge       = 0
  Multiplicity = 1
  Basis Set: CC-PVTZ
  Basis Set:
  @DF-RHF Final Energy:  -344.72066189144681
    Total Energy =                       -344.7206618914468663
    Molecular point group: c1
  Basis Set: CC-PVTZ
  Basis Set:
  Basis Set: CC-PVTZ
  Basis Set:
  @DF-RHF Final Energy:  -344.72066503028685
    Total Energy =                       -344.7206650302871935
  Basis Set: CC-PVTZ
  Basis Set:
  Basis Set: CC-PVTZ
  Basis Set:
  @DF-RHF Final Energy:  -344.72066603469591
    Total Energy =                       -344.7206660346957960
  Basis Set: CC-PVTZ
  Basis Set:
  Charge       = 0
  Multiplicity = 1
  Basis Set: CC-PVTZ
  Basis Set:

    Orbital Energies (a.u.)
    -----------------------

    Doubly Occupied:

       1A    -20.582662     2A    -11.295003     3A    -11.240572
       4A    -11.232778     5A    -11.219735     6A    -11.218910
       7A    -11.213928     8A    -11.212887     9A     -1.413298
      10A     -1.154094    11A     -1.046243    12A     -1.008597
      13A     -0.938663    14A     -0.828432    15A     -0.826395
      16A     -0.717541    17A     -0.684515    18A     -0.657489
      19A     -0.611231    20A     -0.595864    21A     -0.574829
      22A     -0.570938    23A     -0.569024    24A     -0.534105
      25A     -0.507170    26A     -0.484512    27A     -0.472723
      28A     -0.333468    29A     -0.310522

  @DF-RHF Final Energy:  -344.72066611317297

   => Energetics <=

    Nuclear Repulsion Energy =            346.4039738467616303
    One-Electron Energy =               -1154.1370281315630564
    Two-Electron Energy =                 463.0123881716284586
    DFT Exchange-Correlation Energy =       0.0000000000000000
    Empirical Dispersion Energy =           0.0000000000000000
    PCM Polarization Energy =               0.0000000000000000
    EFP Energy =                            0.0000000000000000
    Total Energy =                       -344.7206661131730243
    Molecular point group: c1
  Basis Set: CC-PVTZ
  Basis Set:

  -Total Gradient:
     Atom            X                  Y                   Z
    ------   -----------------  -----------------  -----------------
       1        0.000002867177    -0.000002679980     0.001090801473
       2       -0.000034852907     0.000053094681    -0.001001003418
       3        0.000108673476    -0.000152870313    -0.000850250117
       4        0.000000510609    -0.000003964867     0.000003911190
       5       -0.000071328667     0.000111384071     0.000767680147
       6        0.000000909841    -0.000000031004    -0.000003129627
       7        0.000008748639    -0.000000263318    -0.000010367027
       8       -0.000001592986    -0.000002383731     0.000006245993
       9       -0.000000412437    -0.000009544039    -0.000021385211
      10       -0.000002486657     0.000001253177     0.000006078826
      11       -0.000007572904     0.000008400698     0.000004829627
      12        0.000000130131     0.000002133425     0.000001292510
      13       -0.000000287623    -0.000001191188    -0.000002030378
      14       -0.000003751608     0.000003364557     0.000005907089
      15        0.000000635049    -0.000000792894    -0.000004391816
      16       -0.000000189132    -0.000005909274     0.000005810738

  **** Optimization is complete! (in 4 steps) ****
    Final optimized geometry and variables:
    Molecular point group: c1

    Geometry (in Angstrom), charge = 0, multiplicity = 1:

    H           -3.030554490672    -0.672802361314    -0.071679399608
    O           -2.237273377055    -1.177040789642    -0.074378943772
    C           -1.155712252592    -0.369659775197    -0.071231523421
    C           -1.249631812174     0.992794381387    -0.269209375414
    C            0.079452926467    -0.962680220768     0.139374013854
    H           -2.205865097042     1.453577966061    -0.437256579508
    C           -0.093979669148     1.754637929402    -0.256651541345
    H            0.117516570224    -2.023945421394     0.291742684291
    C            1.231313392707    -0.201925586127     0.149103155213
    H           -0.162651383346     2.814673689613    -0.412785640400
    C            1.136127193214     1.171363313724    -0.052663206669
    C            2.572621509740    -0.843697072400     0.399570886252
    H            2.023079007549     1.776186789254    -0.050141106566
    H            3.321777830209    -0.455641442914    -0.279432023649
    H            2.525684375301    -1.916892145560     0.273883502737
    H            2.910679312019    -0.641099788906     1.410175228280

  Mulliken Charges: (a.u.)
   Center  Symbol    Alpha    Beta     Spin     Total
       1     H     0.38717  0.38717  0.00000  0.22566
       2     O     4.17580  4.17580  0.00000 -0.35161
       3     C     2.83674  2.83674  0.00000  0.32652
       4     C     3.14855  3.14855  0.00000 -0.29709
       5     C     3.14103  3.14103  0.00000 -0.28207
       6     H     0.43486  0.43486  0.00000  0.13028
       7     C     3.05702  3.05702  0.00000 -0.11404
       8     H     0.42211  0.42211  0.00000  0.15578
       9     C     2.93511  2.93511  0.00000  0.12978
      10     H     0.42293  0.42293  0.00000  0.15413
      11     C     3.11882  3.11882  0.00000 -0.23763
      12     C     3.14662  3.14662  0.00000 -0.29325
      13     H     0.42789  0.42789  0.00000  0.14422
      14     H     0.44822  0.44822  0.00000  0.10357
      15     H     0.45015  0.45015  0.00000  0.09969
      16     H     0.44697  0.44697  0.00000  0.10605

   Total alpha = 29.00000, Total beta = 29.00000, Total charge =  0.00000
