  ==> Input File <==

--------------------------------------------------------------------------
set {
	reference rhf
	basis cc-pvtz
}

set_num_threads( 4 )
memory 2 gb

molecule MOL {
0 1

H	 -2.816458	 -0.841657	 -0.064679
N	 -1.878861	 -0.711874	 0.250184
C	 -1.341419	 0.551458	 -0.220231
H	 -1.333674	 -1.468530	 -0.105118
C	 0.082190	 0.731516	 0.254705
H	 -1.357065	 0.652078	 -1.304747
H	 -1.939897	 1.357530	 0.189797
O	 0.564685	 -0.497461	 0.706946
H	 0.700999	 1.098281	 -0.563055
H	 0.109539	 1.464197	 1.058048
C	 1.847806	 -0.452922	 1.236886
H	 2.113784	 -1.452776	 1.548230
H	 2.571317	 -0.113032	 0.498847
H	 1.899542	 0.208076	 2.098842

	symmetry c1
}
set optking {
	frozen_dihedral = ("
		8 5 3 6
	")
}

ee = optimize('scf')
oeprop('DIPOLE', 'QUADRUPOLE', 'MULLIKEN_CHARGES')
f=open( 'psi4out.xyz', 'w' )
f.write( "14  " )
f.write( str(ee) + "\n" )
f.write( MOL.save_string_xyz() )
f.close()
--------------------------------------------------------------------------

    Molecular point group: c1
  Charge       = 0
  Multiplicity = 1
  Basis Set: CC-PVTZ
  Basis Set:
  @DF-RHF Final Energy:  -248.21273693309425
    Total Energy =                       -248.2127369330942770
    Molecular point group: c1
  Basis Set: CC-PVTZ
  Basis Set:
  Basis Set: CC-PVTZ
  Basis Set:
  @DF-RHF Final Energy:  -248.21364061147602
    Total Energy =                       -248.2136406114759097
  Basis Set: CC-PVTZ
  Basis Set:
  Basis Set: CC-PVTZ
  Basis Set:
  @DF-RHF Final Energy:  -248.21526490826790
    Total Energy =                       -248.2152649082678408
  Basis Set: CC-PVTZ
  Basis Set:
  Basis Set: CC-PVTZ
  Basis Set:
  @DF-RHF Final Energy:  -248.21540690743154
    Total Energy =                       -248.2154069074315430
  Basis Set: CC-PVTZ
  Basis Set:
  Basis Set: CC-PVTZ
  Basis Set:
  @DF-RHF Final Energy:  -248.21543141814385
    Total Energy =                       -248.2154314181437940
  Basis Set: CC-PVTZ
  Basis Set:
  Basis Set: CC-PVTZ
  Basis Set:
  @DF-RHF Final Energy:  -248.21543406480788
    Total Energy =                       -248.2154340648080506
  Basis Set: CC-PVTZ
  Basis Set:
  Charge       = 0
  Multiplicity = 1
  Basis Set: CC-PVTZ
  Basis Set:

    Orbital Energies (a.u.)
    -----------------------

    Doubly Occupied:

       1A    -20.550470     2A    -15.519710     3A    -11.267690
       4A    -11.263911     5A    -11.241068     6A     -1.385650
       7A     -1.171929     8A     -0.996389     9A     -0.910446
      10A     -0.814436    11A     -0.683309    12A     -0.678654
      13A     -0.648493    14A     -0.608830    15A     -0.601221
      16A     -0.557422    17A     -0.521325    18A     -0.494057
      19A     -0.472896    20A     -0.423717    21A     -0.371964

  @DF-RHF Final Energy:  -248.21543420524586

   => Energetics <=

    Nuclear Repulsion Energy =            194.9387823167404008
    One-Electron Energy =                -723.9412546383957761
    Two-Electron Energy =                 280.7870381164094624
    DFT Exchange-Correlation Energy =       0.0000000000000000
    Empirical Dispersion Energy =           0.0000000000000000
    PCM Polarization Energy =               0.0000000000000000
    EFP Energy =                            0.0000000000000000
    Total Energy =                       -248.2154342052459697
    Molecular point group: c1
  Basis Set: CC-PVTZ
  Basis Set:

  -Total Gradient:
     Atom            X                  Y                   Z
    ------   -----------------  -----------------  -----------------
       1        0.000011060771     0.000004969274     0.000014276763
       2        0.000002886796     0.000018204029    -0.000028981852
       3        0.000767254471    -0.008872205680     0.000669152783
       4       -0.000004675944     0.000002875282     0.000010891214
       5        0.002548006591     0.000299597364    -0.007111492538
       6       -0.001200564310     0.007464676244     0.000915246010
       7        0.000008602284     0.000004803024    -0.000003721550
       8       -0.002134943083     0.001078337989     0.005536062476
       9       -0.000001850977     0.000006843049     0.000000173846
      10        0.000000779135    -0.000000368332     0.000002690678
      11       -0.000006081339    -0.000012182417    -0.000010898920
      12        0.000006938401     0.000001171107     0.000004517322
      13        0.000004887546     0.000002560491     0.000004036496
      14       -0.000002300344     0.000000718576    -0.000001952729

  **** Optimization is complete! (in 7 steps) ****
    Final optimized geometry and variables:
    Molecular point group: c1

    Geometry (in Angstrom), charge = 0, multiplicity = 1:

    H           -2.715084934245    -0.727485108322    -0.672350059384
    N           -1.840534252762    -0.586394461001    -0.215081202618
    C           -1.211915266960     0.630328102693    -0.680977364721
    H           -1.261450643606    -1.378660940263    -0.385644776645
    C            0.225957573347     0.798361295108    -0.158637881517
    H           -1.213626984816     0.764145980017    -1.762729681820
    H           -1.790803926453     1.467198553974    -0.304185468309
    O            0.743473080084    -0.419037018365     0.276981280567
    H            0.855141250833     1.217836944250    -0.940502498853
    H            0.233435866553     1.499587811358     0.673204445237
    C            2.036409473836    -0.341095198901     0.775945564464
    H            2.329777219828    -1.331489080826     1.092442717993
    H            2.737251542280     0.007226429782     0.020038973611
    H            2.091381504726     0.329833212023     1.630349983746

  Mulliken Charges: (a.u.)
   Center  Symbol    Alpha    Beta     Spin     Total
       1     H     0.43079  0.43079  0.00000  0.13843
       2     N     3.68605  3.68605  0.00000 -0.37211
       3     C     3.03096  3.03096  0.00000 -0.06192
       4     H     0.42157  0.42157  0.00000  0.15685
       5     C     2.95605  2.95605  0.00000  0.08790
       6     H     0.46984  0.46984  0.00000  0.06032
       7     H     0.46186  0.46186  0.00000  0.07628
       8     O     4.17397  4.17397  0.00000 -0.34794
       9     H     0.47397  0.47397  0.00000  0.05207
      10     H     0.47457  0.47457  0.00000  0.05087
      11     C     3.03065  3.03065  0.00000 -0.06130
      12     H     0.44709  0.44709  0.00000  0.10582
      13     H     0.47195  0.47195  0.00000  0.05609
      14     H     0.47068  0.47068  0.00000  0.05864

   Total alpha = 21.00000, Total beta = 21.00000, Total charge = -0.00000
