  ==> Input File <==

--------------------------------------------------------------------------
set {
	reference rhf
	basis 6-31G*
}

set_num_threads( 1 )
memory 2 gb

molecule MOL {
0 1

H	 -2.172150	 0.880146	 0.502514
C	 -2.018062	 -0.000025	 -0.114509
O	 -0.774054	 0.001095	 -0.743181
H	 -2.760490	 0.003458	 -0.901350
H	 -2.173624	 -0.884374	 0.496163
C	 -0.583593	 -0.760176	 -1.922470
C	 0.873931	 -0.494220	 -2.292472
C	 -0.790358	 -2.254459	 -1.654974
C	 -1.504755	 -0.276973	 -3.047233
H	 1.527181	 -0.810635	 -1.487130
H	 1.030128	 0.566141	 -2.455603
H	 1.151945	 -1.028725	 -3.195065
H	 -0.187440	 -2.571642	 -0.810631
H	 -0.495609	 -2.836027	 -2.522443
H	 -1.827048	 -2.492548	 -1.442506
H	 -1.403431	 0.794859	 -3.181252
H	 -1.244487	 -0.763748	 -3.981494
H	 -2.547348	 -0.498646	 -2.846008

	symmetry c1
}
set optking {
	frozen_dihedral = ("
		2 3 6 7
	")
}

ee = energy('scf')
oeprop('DIPOLE', 'QUADRUPOLE', 'MULLIKEN_CHARGES')
f=open( 'psi4out.xyz', 'w' )
f.write( "18  " )
f.write( str(ee) + "\n" )
f.write( MOL.save_string_xyz() )
f.close()
--------------------------------------------------------------------------

    Molecular point group: c1

    Geometry (in Angstrom), charge = 0, multiplicity = 1:

       Center              X                  Y                   Z               Mass
    ------------   -----------------  -----------------  -----------------  -----------------
           H         -1.356561538944     1.505990603521     2.117504477892     1.007825032070
           C         -1.202473538944     0.625819603521     1.500481477892    12.000000000000
           O          0.041534461056     0.626939603521     0.871809477892    15.994914619560
           H         -1.944901538944     0.629302603521     0.713640477892     1.007825032070
           H         -1.358035538944    -0.258529396479     2.111153477892     1.007825032070
           C          0.231995461056    -0.134331396479    -0.307479522108    12.000000000000
           C          1.689519461056     0.131624603521    -0.677481522108    12.000000000000
           C          0.025230461056    -1.628614396479    -0.039983522108    12.000000000000
           C         -0.689166538944     0.348871603521    -1.432242522108    12.000000000000
           H          2.342769461056    -0.184790396479     0.127860477892     1.007825032070
           H          1.845716461056     1.191985603521    -0.840612522108     1.007825032070
           H          1.967533461056    -0.402880396479    -1.580074522108     1.007825032070
           H          0.628148461056    -1.945797396479     0.804359477892     1.007825032070
           H          0.319979461056    -2.210182396479    -0.907452522108     1.007825032070
           H         -1.011459538944    -1.866703396479     0.172484477892     1.007825032070
           H         -0.587842538944     1.420703603521    -1.566261522108     1.007825032070
           H         -0.428898538944    -0.137903396479    -2.366503522108     1.007825032070
           H         -1.731759538944     0.127198603521    -1.231017522108     1.007825032070

  Charge       = 0
  Multiplicity = 1
  Basis Set: 6-31G*
  Basis Set:

    Orbital Energies (a.u.)
    -----------------------

    Doubly Occupied:

       1A    -20.544569     2A    -11.282457     3A    -11.260502
       4A    -11.209263     5A    -11.208802     6A    -11.203477
       7A     -1.369356     8A     -1.072910     9A     -0.946804
      10A     -0.940172    11A     -0.911595    12A     -0.752381
      13A     -0.654507    14A     -0.645331    15A     -0.640090
      16A     -0.592796    17A     -0.575730    18A     -0.549680
      19A     -0.534592    20A     -0.525190    21A     -0.515105
      22A     -0.489394    23A     -0.486657    24A     -0.435722
      25A     -0.402963

  @DF-RHF Final Energy:  -271.17189608937582

   => Energetics <=

    Nuclear Repulsion Energy =            272.4831377594815081
    One-Electron Energy =                -907.8096785535287836
    Two-Electron Energy =                 364.1546447046715684
    DFT Exchange-Correlation Energy =       0.0000000000000000
    Empirical Dispersion Energy =           0.0000000000000000
    PCM Polarization Energy =               0.0000000000000000
    EFP Energy =                            0.0000000000000000
    Total Energy =                       -271.1718960893757639

  Mulliken Charges: (a.u.)
   Center  Symbol    Alpha    Beta     Spin     Total
       1     H     0.41398  0.41398  0.00000  0.17205
       2     C     3.07624  3.07624  0.00000 -0.15248
       3     O     4.32040  4.32040  0.00000 -0.64079
       4     H     0.43244  0.43244  0.00000  0.13512
       5     H     0.42808  0.42808  0.00000  0.14384
       6     C     2.84364  2.84364  0.00000  0.31272
       7     C     3.23267  3.23267  0.00000 -0.46535
       8     C     3.24632  3.24632  0.00000 -0.49264
       9     C     3.24864  3.24864  0.00000 -0.49729
      10     H     0.41382  0.41382  0.00000  0.17236
      11     H     0.41398  0.41398  0.00000  0.17203
      12     H     0.42521  0.42521  0.00000  0.14959
      13     H     0.41310  0.41310  0.00000  0.17380
      14     H     0.41993  0.41993  0.00000  0.16014
      15     H     0.42055  0.42055  0.00000  0.15889
      16     H     0.41280  0.41280  0.00000  0.17441
      17     H     0.41893  0.41893  0.00000  0.16214
      18     H     0.41926  0.41926  0.00000  0.16147

   Total alpha = 25.00000, Total beta = 25.00000, Total charge =  0.00000
