  ==> Input File <==

--------------------------------------------------------------------------
set {
	reference rhf
	basis 6-31G*
}

set_num_threads( 4 )
memory 2 gb

molecule MOL {
0 1

H	 -3.612575	 1.133704	 1.130025
O	 -2.752932	 1.425312	 0.862156
C	 -2.026376	 0.340750	 0.341611
C	 -0.673256	 0.843270	 -0.132153
H	 -1.887574	 -0.423601	 1.104132
H	 -2.564334	 -0.116774	 -0.487802
C	 0.486613	 -0.083066	 0.235839
H	 -0.715586	 0.970948	 -1.210718
H	 -0.508072	 1.829858	 0.297090
C	 1.840406	 0.433480	 -0.254303
H	 0.300215	 -1.068318	 -0.178947
H	 0.519509	 -0.203625	 1.318070
C	 3.000220	 -0.489290	 0.118523
H	 1.809207	 0.553576	 -1.335192
H	 2.021860	 1.424500	 0.157276
H	 2.864959	 -1.479103	 -0.307933
H	 3.946603	 -0.099227	 -0.243630
H	 3.080049	 -0.602997	 1.196117

	symmetry c1
}
set optking {
	frozen_dihedral = ("
		2 3 4 8
	")
}

ee = optimize('scf')
oeprop('DIPOLE', 'QUADRUPOLE', 'MULLIKEN_CHARGES')
f=open( 'psi4out.xyz', 'w' )
f.write( "18  " )
f.write( str(ee) + "\n" )
f.write( MOL.save_string_xyz() )
f.close()
--------------------------------------------------------------------------

    Molecular point group: c1
  Charge       = 0
  Multiplicity = 1
  Basis Set: 6-31G*
  Basis Set:
  @DF-RHF Final Energy:  -271.17479417191583
    Total Energy =                       -271.1747941719155506
    Molecular point group: c1
  Basis Set: 6-31G*
  Basis Set:
  Basis Set: 6-31G*
  Basis Set:
  @DF-RHF Final Energy:  -271.17511570004376
    Total Energy =                       -271.1751157000436478
  Basis Set: 6-31G*
  Basis Set:
  Basis Set: 6-31G*
  Basis Set:
  @DF-RHF Final Energy:  -271.17517545183659
    Total Energy =                       -271.1751754518367079
  Basis Set: 6-31G*
  Basis Set:
  Basis Set: 6-31G*
  Basis Set:
  @DF-RHF Final Energy:  -271.17517319998490
    Total Energy =                       -271.1751731999848403
  Basis Set: 6-31G*
  Basis Set:
  Basis Set: 6-31G*
  Basis Set:
  @DF-RHF Final Energy:  -271.17517864249504
    Total Energy =                       -271.1751786424950978
  Basis Set: 6-31G*
  Basis Set:
  Charge       = 0
  Multiplicity = 1
  Basis Set: 6-31G*
  Basis Set:

    Orbital Energies (a.u.)
    -----------------------

    Doubly Occupied:

       1A    -20.551535     2A    -11.267471     3A    -11.215172
       4A    -11.214541     5A    -11.210892     6A    -11.208263
       7A     -1.357730     8A     -1.078993     9A     -1.009107
      10A     -0.912329    11A     -0.820500    12A     -0.791660
      13A     -0.698362    14A     -0.650099    15A     -0.624253
      16A     -0.583284    17A     -0.570360    18A     -0.560035
      19A     -0.528093    20A     -0.496533    21A     -0.490070
      22A     -0.468312    23A     -0.463553    24A     -0.451000
      25A     -0.429035

  @DF-RHF Final Energy:  -271.17517873673540

   => Energetics <=

    Nuclear Repulsion Energy =            245.3299234154728197
    One-Electron Energy =                -853.7078426716899457
    Two-Electron Energy =                 337.2027405194817220
    DFT Exchange-Correlation Energy =       0.0000000000000000
    Empirical Dispersion Energy =           0.0000000000000000
    PCM Polarization Energy =               0.0000000000000000
    EFP Energy =                            0.0000000000000000
    Total Energy =                       -271.1751787367354609
    Molecular point group: c1
  Basis Set: 6-31G*
  Basis Set:

  -Total Gradient:
     Atom            X                  Y                   Z
    ------   -----------------  -----------------  -----------------
       1        0.000004310896    -0.000001981143    -0.000001860551
       2        0.001124017306    -0.000519858496     0.002702859004
       3       -0.001147416722    -0.000215013391    -0.003606683616
       4       -0.001223088451     0.004342814758     0.001358629141
       5       -0.000010604952     0.000004680473     0.000005483062
       6        0.000001615076     0.000001922794    -0.000000226207
       7       -0.000002774030    -0.000003589612    -0.000009174319
       8        0.001257728205    -0.003626444620    -0.000457493224
       9        0.000003441306     0.000003625152    -0.000002059921
      10        0.000002941552     0.000009133475     0.000009216450
      11        0.000002523715     0.000003330748     0.000001803537
      12       -0.000002823367     0.000006224670     0.000000216703
      13       -0.000005507633    -0.000009030333    -0.000006707229
      14       -0.000001570724     0.000004605293     0.000000721068
      15       -0.000003067265     0.000000412330     0.000005556513
      16        0.000000032116    -0.000004132407     0.000004671870
      17       -0.000002402036    -0.000000935177    -0.000004732116
      18        0.000002645003     0.000004235484    -0.000000220165

  **** Optimization is complete! (in 6 steps) ****
    Final optimized geometry and variables:
    Molecular point group: c1

    Geometry (in Angstrom), charge = 0, multiplicity = 1:

    H           -3.556690162182     0.681870402393     0.883334224901
    O           -2.694716278848     0.987527570756     0.638605079104
    C           -1.942890281664    -0.085521955400     0.127445015979
    C           -0.582628652560     0.443943101247    -0.333918327853
    H           -1.804981164000    -0.837300613908     0.902988426544
    H           -2.467442301335    -0.565509377393    -0.695805344279
    C            0.574580702118    -0.490939838537     0.028758629273
    H           -0.587027561901     0.579422711560    -1.412068209432
    H           -0.430568152060     1.416820498292     0.119865864270
    C            1.929488895562     0.006517781046    -0.476223559712
    H            0.383850387207    -1.483010652131    -0.379641527898
    H            0.614651562450    -0.609542108823     1.110065754258
    C            3.083895059453    -0.922748491937    -0.102998158393
    H            1.891942750430     0.118855278045    -1.557685873892
    H            2.119590600682     0.998948443917    -0.073364894766
    H            2.938320872573    -1.915857293549    -0.518898792513
    H            4.030363141752    -0.543864953872    -0.476087747765
    H            3.171076303345    -1.026332032953     0.974884138567

  Mulliken Charges: (a.u.)
   Center  Symbol    Alpha    Beta     Spin     Total
       1     H     0.28194  0.28194  0.00000  0.43613
       2     O     4.37144  4.37144  0.00000 -0.74288
       3     C     2.99352  2.99352  0.00000  0.01297
       4     C     3.16372  3.16372  0.00000 -0.32745
       5     H     0.43015  0.43015  0.00000  0.13970
       6     H     0.43063  0.43063  0.00000  0.13874
       7     C     3.15923  3.15923  0.00000 -0.31846
       8     H     0.41973  0.41973  0.00000  0.16053
       9     H     0.40482  0.40482  0.00000  0.19036
      10     C     3.15173  3.15173  0.00000 -0.30346
      11     H     0.42548  0.42548  0.00000  0.14904
      12     H     0.42133  0.42133  0.00000  0.15733
      13     C     3.23930  3.23930  0.00000 -0.47860
      14     H     0.42291  0.42291  0.00000  0.15417
      15     H     0.42121  0.42121  0.00000  0.15758
      16     H     0.42229  0.42229  0.00000  0.15541
      17     H     0.41906  0.41906  0.00000  0.16187
      18     H     0.42150  0.42150  0.00000  0.15701

   Total alpha = 25.00000, Total beta = 25.00000, Total charge =  0.00000
