                              Psi4 1.0.54 Driver

  ==> Input File <==

--------------------------------------------------------------------------
set {
	reference rhf
	basis cc-pvtz
}

set_num_threads( 4 )
memory 2 gb

molecule MOL {
0 1

H	 2.703169	 -0.573146	 0.576569
O	 2.012307	 -0.863440	 0.000222
C	 1.050374	 0.054877	 0.000135
C	 -0.318151	 -0.570512	 0.000144
O	 1.286319	 1.213453	 -0.000040
C	 -1.454884	 0.441630	 -0.000560
H	 -0.371613	 -1.223646	 -0.864985
H	 -0.371920	 -1.222758	 0.865929
C	 -2.822577	 -0.232186	 0.000063
H	 -1.359760	 1.084704	 -0.867077
H	 -1.359641	 1.085996	 0.864983
H	 -2.954352	 -0.858985	 -0.875745
H	 -3.615886	 0.505352	 0.000019
H	 -2.953878	 -0.858359	 0.876394

	symmetry c1
}
set optking {
	frozen_dihedral = ("
		1 2 3 5
	")
}

ee,wfn = optimize('scf', return_wfn=True)
oeprop( wfn, 'DIPOLE', 'QUADRUPOLE', 'MULLIKEN_CHARGES')
f=open( 'psi4out.xyz', 'w' )
f.write( "14  " )
f.write( str(ee) + "\n" )
f.write( MOL.save_string_xyz() )
f.close()
--------------------------------------------------------------------------

    Molecular point group: c1
  Charge       = 0
  Multiplicity = 1
  Basis Set: CC-PVTZ
  Basis Set:
  @DF-RHF Final Energy:  -305.99275033528022
    Total Energy =                       -305.9927503352802205
    Molecular point group: c1
  Basis Set: CC-PVTZ
  Basis Set:
  Basis Set: CC-PVTZ
  Basis Set:
  @DF-RHF Final Energy:  -305.98986864431043
    Total Energy =                       -305.9898686443102633
  Basis Set: CC-PVTZ
  Basis Set:
  Basis Set: CC-PVTZ
  Basis Set:
  @DF-RHF Final Energy:  -305.99343203055093
    Total Energy =                       -305.9934320305508209
  Basis Set: CC-PVTZ
  Basis Set:
  Basis Set: CC-PVTZ
  Basis Set:
  @DF-RHF Final Energy:  -305.99350667793919
    Total Energy =                       -305.9935066779393082
  Basis Set: CC-PVTZ
  Basis Set:
  Basis Set: CC-PVTZ
  Basis Set:
  @DF-RHF Final Energy:  -305.99351786850337
    Total Energy =                       -305.9935178685034316
  Basis Set: CC-PVTZ
  Basis Set:
  Basis Set: CC-PVTZ
  Basis Set:
  @DF-RHF Final Energy:  -305.99352076610364
    Total Energy =                       -305.9935207661034156
  Basis Set: CC-PVTZ
  Basis Set:
  Basis Set: CC-PVTZ
  Basis Set:
  @DF-RHF Final Energy:  -305.99352134577703
    Total Energy =                       -305.9935213457768555
  Basis Set: CC-PVTZ
  Basis Set:
  Charge       = 0
  Multiplicity = 1
  Basis Set: CC-PVTZ
  Basis Set:

    Orbital Energies (a.u.)
    -----------------------

    Doubly Occupied:

       1A    -20.597796     2A    -20.544650     3A    -11.374284
       4A    -11.239591     5A    -11.223778     6A    -11.215512
       7A     -1.471696     8A     -1.370640     9A     -1.083972
      10A     -0.979765    11A     -0.857494    12A     -0.794260
      13A     -0.706791    14A     -0.688354    15A     -0.666401
      16A     -0.626235    17A     -0.582940    18A     -0.572496
      19A     -0.546711    20A     -0.506858    21A     -0.493793
      22A     -0.484784    23A     -0.482820    24A     -0.447424

  @DF-RHF Final Energy:  -305.99352139800203

   => Energetics <=

    Nuclear Repulsion Energy =            240.1450197883742419
    One-Electron Energy =                -893.1589976840430154
    Two-Electron Energy =                 347.0204564976667143
    DFT Exchange-Correlation Energy =       0.0000000000000000
    Empirical Dispersion Energy =           0.0000000000000000
    PCM Polarization Energy =               0.0000000000000000
    EFP Energy =                            0.0000000000000000
    Total Energy =                       -305.9935213980020308
    Molecular point group: c1
  Basis Set: CC-PVTZ
  Basis Set:

  -Total Gradient:
     Atom            X                  Y                   Z
    ------   -----------------  -----------------  -----------------
       1       -0.003951049657    -0.005674019830     0.008378588993
       2        0.004479543160     0.007274718211    -0.014916403704
       3        0.000483738516    -0.002007634336     0.016116392354
       4        0.000003120212    -0.000025949525    -0.000079106559
       5       -0.001027299991     0.000432468432    -0.009571595255
       6        0.000001974677    -0.000024495563     0.000028833524
       7        0.000004060495     0.000001477466     0.000033348645
       8        0.000009801054     0.000008712765     0.000031061195
       9       -0.000006910278     0.000006442011    -0.000004892063
      10       -0.000001005482     0.000008986516    -0.000013961638
      11       -0.000000654478    -0.000000159453    -0.000003776626
      12        0.000000823448     0.000000011788     0.000001090182
      13        0.000001186404    -0.000000496467     0.000000262556
      14        0.000002671924    -0.000000062014     0.000000158396

  **** Optimization is complete! (in 8 steps) ****
    Final optimized geometry and variables:
    Molecular point group: c1

    Geometry (in Angstrom), charge = 0, multiplicity = 1:

    H            2.776272188381    -0.622105774594     0.372688365253
    O            2.018587070465    -0.855544054153    -0.139859736315
    C            1.052189160977     0.060459462985     0.026852363370
    C           -0.315675916841    -0.565265277619     0.018759449235
    O            1.281761142830     1.215508512233     0.085892671739
    C           -1.456760236567     0.441242594159    -0.002657020565
    H           -0.357108533558    -1.232209083086    -0.836106407624
    H           -0.374277660674    -1.207003766788     0.893236886212
    C           -2.821871435709    -0.237859256932    -0.004145534666
    H           -1.357930208209     1.073517010875    -0.877088863638
    H           -1.370566748594     1.097232916545     0.854904314093
    H           -2.944117111602    -0.876883972309    -0.872414667649
    H           -3.618121019503     0.496333758208    -0.020314950772
    H           -2.957674753691    -0.852792458458     0.879496623002

  Mulliken Charges: (a.u.)
   Center  Symbol    Alpha    Beta     Spin     Total
       1     H     0.38084  0.38084  0.00000  0.23831
       2     O     4.16919  4.16919  0.00000 -0.33839
       3     C     2.80560  2.80560  0.00000  0.38880
       4     C     3.10504  3.10504  0.00000 -0.21009
       5     O     4.17976  4.17976  0.00000 -0.35952
       6     C     3.08032  3.08032  0.00000 -0.16064
       7     H     0.43792  0.43792  0.00000  0.12417
       8     H     0.44285  0.44285  0.00000  0.11430
       9     C     3.14994  3.14994  0.00000 -0.29988
      10     H     0.44642  0.44642  0.00000  0.10715
      11     H     0.44594  0.44594  0.00000  0.10812
      12     H     0.45521  0.45521  0.00000  0.08958
      13     H     0.44514  0.44514  0.00000  0.10971
      14     H     0.45581  0.45581  0.00000  0.08838

   Total alpha = 24.00000, Total beta = 24.00000, Total charge = -0.00000

*** Psi4 exiting successfully. Buy a developer a beer!
