                              Psi4 1.0.54 Driver

  ==> Input File <==

--------------------------------------------------------------------------
set {
	reference rhf
	basis cc-pvtz
}

set_num_threads( 4 )
memory 2 gb

molecule MOL {
0 1

O	 -2.071633	 -1.227563	 -0.223463
C	 -1.652164	 -0.152425	 0.058082
C	 -0.327811	 0.006324	 0.778296
C	 -2.402515	 1.108629	 -0.298924
C	 0.843231	 -0.001575	 -0.211665
H	 -0.319484	 0.928173	 1.350354
H	 -0.227804	 -0.823091	 1.466705
C	 2.197693	 0.138030	 0.476937
H	 0.722944	 0.805202	 -0.930230
H	 0.813976	 -0.926978	 -0.776588
C	 3.347941	 0.318947	 -0.507625
H	 2.169765	 0.983150	 1.159224
H	 2.379465	 -0.741794	 1.087190
H	 3.212197	 1.211417	 -1.109376
H	 3.420739	 -0.526476	 -1.183147
H	 4.295174	 0.410963	 0.010722
H	 -3.240910	 0.874416	 -0.936711
H	 -1.747554	 1.818823	 -0.790984
H	 -2.760419	 1.579708	 0.610998

	symmetry c1
}
set optking {
	frozen_dihedral = ("
		11 8 5 9
	")
}

ee,wfn = optimize('scf', return_wfn=True)
oeprop( wfn, 'DIPOLE', 'QUADRUPOLE', 'MULLIKEN_CHARGES')
f=open( 'psi4out.xyz', 'w' )
f.write( "19  " )
f.write( str(ee) + "\n" )
f.write( MOL.save_string_xyz() )
f.close()
--------------------------------------------------------------------------

    Molecular point group: c1
  Charge       = 0
  Multiplicity = 1
  Basis Set: CC-PVTZ
  Basis Set:
  @DF-RHF Final Energy:  -309.17709710786403
    Total Energy =                       -309.1770971078643129
    Molecular point group: c1
  Basis Set: CC-PVTZ
  Basis Set:
  Basis Set: CC-PVTZ
  Basis Set:
  @DF-RHF Final Energy:  -309.17678327424358
    Total Energy =                       -309.1767832742431210
  Basis Set: CC-PVTZ
  Basis Set:
  Basis Set: CC-PVTZ
  Basis Set:
  @DF-RHF Final Energy:  -309.17709647677322
    Total Energy =                       -309.1770964767731584
  Basis Set: CC-PVTZ
  Basis Set:
  Basis Set: CC-PVTZ
  Basis Set:
  @DF-RHF Final Energy:  -309.17711201944894
    Total Energy =                       -309.1771120194491687
  Basis Set: CC-PVTZ
  Basis Set:
  Basis Set: CC-PVTZ
  Basis Set:
  @DF-RHF Final Energy:  -309.17711200961133
    Total Energy =                       -309.1771120096113918
  Basis Set: CC-PVTZ
  Basis Set:
  Basis Set: CC-PVTZ
  Basis Set:
  @DF-RHF Final Energy:  -309.17711162980424
    Total Energy =                       -309.1771116298041306
  Basis Set: CC-PVTZ
  Basis Set:
  Charge       = 0
  Multiplicity = 1
  Basis Set: CC-PVTZ
  Basis Set:

    Orbital Energies (a.u.)
    -----------------------

    Doubly Occupied:

       1A    -20.536990     2A    -11.319550     3A    -11.228755
       4A    -11.227989     5A    -11.227053     6A    -11.223017
       7A    -11.213464     8A     -1.397125     9A     -1.092883
      10A     -1.030601    11A     -0.984779    12A     -0.891038
      13A     -0.807494    14A     -0.734725    15A     -0.665168
      16A     -0.647436    17A     -0.625463    18A     -0.615229
      19A     -0.583445    20A     -0.573776    21A     -0.555201
      22A     -0.537754    23A     -0.512682    24A     -0.503052
      25A     -0.483204    26A     -0.475666    27A     -0.470651
      28A     -0.399299

  @DF-RHF Final Energy:  -309.17713251458673

   => Energetics <=

    Nuclear Repulsion Energy =            301.8474368157889671
    One-Electron Energy =               -1016.9221584495137449
    Two-Electron Energy =                 405.8975891191377059
    DFT Exchange-Correlation Energy =       0.0000000000000000
    Empirical Dispersion Energy =           0.0000000000000000
    PCM Polarization Energy =               0.0000000000000000
    EFP Energy =                            0.0000000000000000
    Total Energy =                       -309.1771325145870151
    Molecular point group: c1
  Basis Set: CC-PVTZ
  Basis Set:

  -Total Gradient:
     Atom            X                  Y                   Z
    ------   -----------------  -----------------  -----------------
       1       -0.000004977276    -0.000026731778    -0.000010354767
       2        0.000008730402     0.000015758251     0.000005603561
       3       -0.000009187341    -0.000003125113     0.000011356179
       4       -0.000015391261    -0.000011205700     0.000007777947
       5       -0.000801287651     0.001752273258     0.001382072276
       6        0.000002024357    -0.000002094553    -0.000000971308
       7       -0.000011256495     0.000003680249     0.000005738063
       8        0.000275362170    -0.001915708378    -0.000254852052
       9        0.000633614888    -0.001051320696    -0.001120984892
      10        0.000006512602     0.000020210506     0.000010107003
      11       -0.000179173365     0.001190508186     0.000012036288
      12       -0.000013480634    -0.000007688673     0.000003790209
      13       -0.000012919689     0.000007046431    -0.000001890469
      14       -0.000019707006     0.000097444591    -0.000056542002
      15       -0.000006699362    -0.000096453915    -0.000052462361
      16        0.000133138691     0.000010530903     0.000061256400
      17        0.000003838599    -0.000003316599     0.000000982595
      18        0.000016930747     0.000009948614    -0.000016602454
      19       -0.000006072376     0.000010244415     0.000013939782

  **** Optimization is complete! (in 7 steps) ****
    Final optimized geometry and variables:
    Molecular point group: c1

    Geometry (in Angstrom), charge = 0, multiplicity = 1:

    O           -2.096873637348    -1.223206408827    -0.065729712460
    C           -1.650648425771    -0.138527026761     0.122675668115
    C           -0.301285625359     0.047691823748     0.787789509826
    C           -2.391131345182     1.107061182123    -0.302702826928
    C            0.836707513672    -0.048850311462    -0.234553604636
    H           -0.260910216911     1.006790549742     1.293202089545
    H           -0.191033533149    -0.733390493802     1.529276199957
    C            2.218035726091     0.085310034058     0.400988926720
    H            0.718951525597     0.711970620747    -1.001859765538
    H            0.764824709578    -1.004204754320    -0.743651316303
    C            3.340672001690     0.158001287271    -0.628382455140
    H            2.244660841100     0.978915918566     1.018803331893
    H            2.386517196052    -0.753239084206     1.069818412087
    H            3.222298153431     1.021773475425    -1.274048795464
    H            3.354176603369    -0.725501685201    -1.258027002386
    H            4.308516465812     0.235100544282    -0.146547440818
    H           -3.252939939429     0.842696119054    -0.895929856403
    H           -1.740544797269     1.767483219144    -0.864898622582
    H           -2.712588724864     1.649336370335     0.580844181949

  Mulliken Charges: (a.u.)
   Center  Symbol    Alpha    Beta     Spin     Total
       1     O     4.17762  4.17762  0.00000 -0.35525
       2     C     2.85815  2.85815  0.00000  0.28370
       3     C     3.09747  3.09747  0.00000 -0.19495
       4     C     3.15529  3.15529  0.00000 -0.31059
       5     C     3.09791  3.09791  0.00000 -0.19583
       6     H     0.44933  0.44933  0.00000  0.10134
       7     H     0.43930  0.43930  0.00000  0.12140
       8     C     3.08540  3.08540  0.00000 -0.17080
       9     H     0.45333  0.45333  0.00000  0.09333
      10     H     0.44099  0.44099  0.00000  0.11801
      11     C     3.14933  3.14933  0.00000 -0.29865
      12     H     0.45503  0.45503  0.00000  0.08995
      13     H     0.45013  0.45013  0.00000  0.09973
      14     H     0.45527  0.45527  0.00000  0.08946
      15     H     0.45294  0.45294  0.00000  0.09413
      16     H     0.44732  0.44732  0.00000  0.10537
      17     H     0.43600  0.43600  0.00000  0.12800
      18     H     0.45082  0.45082  0.00000  0.09835
      19     H     0.44836  0.44836  0.00000  0.10327

   Total alpha = 28.00000, Total beta = 28.00000, Total charge = -0.00000

*** Psi4 exiting successfully. Buy a developer a beer!
