                              Psi4 1.0.54 Driver

  ==> Input File <==

--------------------------------------------------------------------------
set {
	reference rhf
	basis cc-pvtz
}

set_num_threads( 4 )
memory 2 gb

molecule MOL {
0 1

H	 -0.000105	 1.988529	 0.748933
O	 -0.000098	 1.879786	 -0.188206
C	 -0.000014	 0.545691	 -0.532416
C	 -0.159663	 0.390693	 -2.045779
C	 -1.039306	 -0.213177	 0.294486
H	 0.965887	 0.136547	 -0.274933
F	 0.830815	 0.999174	 -2.650398
F	 -0.150300	 -0.863321	 -2.421374
F	 -1.280270	 0.936481	 -2.467361
F	 -0.754548	 -0.089191	 1.567434
F	 -1.064517	 -1.490917	 0.010833
F	 -2.247796	 0.272288	 0.106731

	symmetry c1
}
set optking {
	frozen_dihedral = ("
		6 3 2 1
	")
}

ee,wfn = optimize('scf', return_wfn=True)
oeprop( wfn, 'DIPOLE', 'QUADRUPOLE', 'MULLIKEN_CHARGES')
f=open( 'psi4out.xyz', 'w' )
f.write( "12  " )
f.write( str(ee) + "\n" )
f.write( MOL.save_string_xyz() )
f.close()
--------------------------------------------------------------------------

    Molecular point group: c1
  Charge       = 0
  Multiplicity = 1
  Basis Set: CC-PVTZ
  Basis Set:
  @DF-RHF Final Energy:  -786.58534704006456
    Total Energy =                       -786.5853470400641072
    Molecular point group: c1
  Basis Set: CC-PVTZ
  Basis Set:
  Basis Set: CC-PVTZ
  Basis Set:
  @DF-RHF Final Energy:  -786.56606185243652
    Total Energy =                       -786.5660618524366328
  Basis Set: CC-PVTZ
  Basis Set:
  Basis Set: CC-PVTZ
  Basis Set:
  @DF-RHF Final Energy:  -786.58682785126030
    Total Energy =                       -786.5868278512598408
  Basis Set: CC-PVTZ
  Basis Set:
  Basis Set: CC-PVTZ
  Basis Set:
  @DF-RHF Final Energy:  -786.58760750632518
    Total Energy =                       -786.5876075063247299
  Basis Set: CC-PVTZ
  Basis Set:
  Basis Set: CC-PVTZ
  Basis Set:
  @DF-RHF Final Energy:  -786.58772320440403
    Total Energy =                       -786.5877232044040284
  Basis Set: CC-PVTZ
  Basis Set:
  Basis Set: CC-PVTZ
  Basis Set:
  @DF-RHF Final Energy:  -786.58774916546452
    Total Energy =                       -786.5877491654642881
  Basis Set: CC-PVTZ
  Basis Set:
  Basis Set: CC-PVTZ
  Basis Set:
  @DF-RHF Final Energy:  -786.58775446569223
    Total Energy =                       -786.5877544656922282
  Basis Set: CC-PVTZ
  Basis Set:
  Charge       = 0
  Multiplicity = 1
  Basis Set: CC-PVTZ
  Basis Set:

    Orbital Energies (a.u.)
    -----------------------

    Doubly Occupied:

       1A    -26.362331     2A    -26.359049     3A    -26.357194
       4A    -26.351832     5A    -26.348288     6A    -26.348046
       7A    -20.608531     8A    -11.522118     9A    -11.516001
      10A    -11.351511    11A     -1.772698    12A     -1.762306
      13A     -1.667661    14A     -1.666402    15A     -1.657701
      16A     -1.655954    17A     -1.439065    18A     -1.104432
      19A     -1.001354    20A     -0.941706    21A     -0.874845
      22A     -0.865364    23A     -0.860907    24A     -0.849247
      25A     -0.838615    26A     -0.792031    27A     -0.759158
      28A     -0.738512    29A     -0.727437    30A     -0.724397
      31A     -0.720426    32A     -0.692028    33A     -0.688633
      34A     -0.674906    35A     -0.674114    36A     -0.668927
      37A     -0.658964    38A     -0.645116    39A     -0.622262
      40A     -0.550168    41A     -0.509652

  @DF-RHF Final Energy:  -786.58775536529402

   => Energetics <=

    Nuclear Repulsion Energy =            671.1198065459470854
    One-Electron Energy =               -2429.5553591013799632
    Two-Electron Energy =                 971.8477971901384080
    DFT Exchange-Correlation Energy =       0.0000000000000000
    Empirical Dispersion Energy =           0.0000000000000000
    PCM Polarization Energy =               0.0000000000000000
    EFP Energy =                            0.0000000000000000
    Total Energy =                       -786.5877553652944698
    Molecular point group: c1
  Basis Set: CC-PVTZ
  Basis Set:

  -Total Gradient:
     Atom            X                  Y                   Z
    ------   -----------------  -----------------  -----------------
       1       -0.001464270952     0.000125767345    -0.000261767469
       2        0.001947411193    -0.000143003935     0.000021975743
       3       -0.001181693295     0.000077570706     0.001429173342
       4       -0.000131366034     0.000058011418    -0.000067364722
       5       -0.000101339328    -0.000055252271    -0.000143835747
       6        0.000677820632    -0.000124441699    -0.001081965611
       7        0.000011408855    -0.000036699148     0.000023799066
       8        0.000029894728    -0.000006813162     0.000087982973
       9        0.000011401623     0.000035932588     0.000002460947
      10        0.000038745045     0.000095834654    -0.000051972215
      11        0.000099133677    -0.000108836831    -0.000010059155
      12        0.000062853858     0.000081930345     0.000051572850

  **** Optimization is complete! (in 8 steps) ****
    Final optimized geometry and variables:
    Molecular point group: c1

    Geometry (in Angstrom), charge = 0, multiplicity = 1:

    H            0.498684395958     2.087032554431     1.186219023765
    O            0.654950211720     1.718166643736     0.334259122068
    C            0.572854925871     0.342590670609     0.366442799795
    C            0.695518503167    -0.136791275957    -1.078416976507
    C           -0.706175744047    -0.118350373785     1.065828739335
    H            1.400357068314    -0.110149337289     0.902609945697
    F            1.874782227976     0.194785051718    -1.545115050711
    F            0.591835959604    -1.444637955765    -1.142795056340
    F           -0.211653775494     0.383488706871    -1.860621184858
    F           -0.763360107511     0.472828223171     2.246934850104
    F           -0.705037964785    -1.410852962957     1.270605321941
    F           -1.793816593162     0.197744996891     0.415261742244

  Mulliken Charges: (a.u.)
   Center  Symbol    Alpha    Beta     Spin     Total
       1     H     0.38372  0.38372  0.00000  0.23257
       2     O     4.18509  4.18509  0.00000 -0.37019
       3     C     2.99718  2.99718  0.00000  0.00565
       4     C     2.67703  2.67703  0.00000  0.64595
       5     C     2.68393  2.68393  0.00000  0.63214
       6     H     0.44510  0.44510  0.00000  0.10979
       7     F     4.60391  4.60391  0.00000 -0.20782
       8     F     4.60618  4.60618  0.00000 -0.21237
       9     F     4.60133  4.60133  0.00000 -0.20266
      10     F     4.61472  4.61472  0.00000 -0.22944
      11     F     4.60231  4.60231  0.00000 -0.20462
      12     F     4.59950  4.59950  0.00000 -0.19900

   Total alpha = 41.00000, Total beta = 41.00000, Total charge = -0.00000

*** Psi4 exiting successfully. Buy a developer a beer!
