  ==> Input File <==

--------------------------------------------------------------------------
set {
	reference rhf
	basis 6-31G*
}

set_num_threads( 4 )
memory 2 gb

molecule MOL {
0 1

H	 2.882030	 0.308445	 0.085953
C	 1.951159	 -0.223429	 0.317018
C	 0.692068	 0.589600	 0.160137
O	 1.983251	 -1.359919	 0.662691
C	 -0.558097	 -0.297372	 0.091132
H	 0.791645	 1.202255	 -0.728243
H	 0.616171	 1.253469	 1.020572
C	 -1.850991	 0.512573	 -0.019058
H	 -0.476753	 -0.965681	 -0.762987
H	 -0.604799	 -0.930658	 0.975228
C	 -3.096943	 -0.368295	 -0.099594
H	 -1.800724	 1.150330	 -0.898172
H	 -1.931651	 1.177355	 0.838044
H	 -3.060452	 -1.020287	 -0.967456
H	 -3.996858	 0.233488	 -0.175704
H	 -3.191959	 -0.995686	 0.782074

	symmetry c1
}
set optking {
	frozen_dihedral = ("
		4 2 3 6
	")
}

ee = optimize('scf')
oeprop('DIPOLE', 'QUADRUPOLE', 'MULLIKEN_CHARGES')
f=open( 'psi4out.xyz', 'w' )
f.write( "16  " )
f.write( str(ee) + "\n" )
f.write( MOL.save_string_xyz() )
f.close()
--------------------------------------------------------------------------

    Molecular point group: c1
  Charge       = 0
  Multiplicity = 1
  Basis Set: 6-31G*
  Basis Set:
  @DF-RHF Final Energy:  -270.02041486436292
    Total Energy =                       -270.0204148643630333
    Molecular point group: c1
  Basis Set: 6-31G*
  Basis Set:
  Basis Set: 6-31G*
  Basis Set:
  @DF-RHF Final Energy:  -270.02049893326495
    Total Energy =                       -270.0204989332651735
  Basis Set: 6-31G*
  Basis Set:
  Basis Set: 6-31G*
  Basis Set:
  @DF-RHF Final Energy:  -270.01969093528749
    Total Energy =                       -270.0196909352874854
  Basis Set: 6-31G*
  Basis Set:
  Basis Set: 6-31G*
  Basis Set:
  @DF-RHF Final Energy:  -270.02102196361454
    Total Energy =                       -270.0210219636146007
  Basis Set: 6-31G*
  Basis Set:
  Basis Set: 6-31G*
  Basis Set:
  @DF-RHF Final Energy:  -270.02097961692346
    Total Energy =                       -270.0209796169232277
  Basis Set: 6-31G*
  Basis Set:
  Basis Set: 6-31G*
  Basis Set:
  @DF-RHF Final Energy:  -270.02102802646829
    Total Energy =                       -270.0210280264681160
  Basis Set: 6-31G*
  Basis Set:
  Charge       = 0
  Multiplicity = 1
  Basis Set: 6-31G*
  Basis Set:

    Orbital Energies (a.u.)
    -----------------------

    Doubly Occupied:

       1A    -20.563644     2A    -11.328490     3A    -11.237438
       4A    -11.222898     5A    -11.222300     6A    -11.212490
       7A     -1.403912     8A     -1.088956     9A     -1.015379
      10A     -0.908613    11A     -0.814124    12A     -0.771576
      13A     -0.675674    14A     -0.655302    15A     -0.628601
      16A     -0.598133    17A     -0.585047    18A     -0.535817
      19A     -0.528168    20A     -0.496114    21A     -0.484269
      22A     -0.478106    23A     -0.472106    24A     -0.410948

  @DF-RHF Final Energy:  -270.02102845278353

   => Energetics <=

    Nuclear Repulsion Energy =            231.7286287028412062
    One-Electron Energy =                -824.8231023484363504
    Two-Electron Energy =                 323.0734451928115618
    DFT Exchange-Correlation Energy =       0.0000000000000000
    Empirical Dispersion Energy =           0.0000000000000000
    PCM Polarization Energy =               0.0000000000000000
    EFP Energy =                            0.0000000000000000
    Total Energy =                       -270.0210284527835825
    Molecular point group: c1
  Basis Set: 6-31G*
  Basis Set:

  -Total Gradient:
     Atom            X                  Y                   Z
    ------   -----------------  -----------------  -----------------
       1       -0.000023875820     0.000025849687    -0.000002682433
       2       -0.000080283517    -0.000353494523    -0.001990590578
       3       -0.000588608348    -0.001097115959    -0.000387587514
       4        0.000062392893     0.000395197240     0.001507367797
       5        0.000117753355     0.000043420371    -0.000005608755
       6        0.000551673624     0.001028605701     0.000840284438
       7        0.000007467208     0.000010190698     0.000063960612
       8       -0.000026530801    -0.000011099978    -0.000039805309
       9        0.000002528266     0.000013375654    -0.000029251549
      10       -0.000032196012    -0.000034969115     0.000022302579
      11       -0.000015708591     0.000003819285     0.000039010808
      12       -0.000003251767    -0.000023875629    -0.000012867587
      13        0.000026073363    -0.000002269496    -0.000018554838
      14        0.000003295158     0.000017100437    -0.000005435008
      15        0.000003365593    -0.000002544449     0.000015553936
      16       -0.000004094609    -0.000012189922     0.000003903399

  **** Optimization is complete! (in 7 steps) ****
    Final optimized geometry and variables:
    Molecular point group: c1

    Geometry (in Angstrom), charge = 0, multiplicity = 1:

    H            3.032561344318     0.572206769989    -0.033179444232
    C            2.117109235007    -0.007152072095     0.132404039746
    C            0.832802066437     0.768770268631    -0.017382919680
    O            2.184830058322    -1.153390079231     0.438945114169
    C           -0.419155089586    -0.100474865501    -0.089032131486
    H            0.926587164070     1.417753914868    -0.886226439989
    H            0.783325973667     1.445153482024     0.837504256954
    C           -1.702461334707     0.722905827314    -0.208114539246
    H           -0.336651530288    -0.774990588224    -0.936940250200
    H           -0.464280761107    -0.729690112664     0.793645423482
    C           -2.957424375634    -0.146549011834    -0.272767954592
    H           -1.651872150326     1.349408534199    -1.096346429715
    H           -1.777456138111     1.401134627811     0.639485641153
    H           -2.929616712413    -0.810977983571    -1.131517494471
    H           -3.852570052174     0.462041076023    -0.353635850330
    H           -3.053685471481    -0.761604409109     0.617172127285

  Mulliken Charges: (a.u.)
   Center  Symbol    Alpha    Beta     Spin     Total
       1     H     0.42756  0.42756  0.00000  0.14488
       2     C     2.83497  2.83497  0.00000  0.33006
       3     C     3.21421  3.21421  0.00000 -0.42843
       4     O     4.23768  4.23768  0.00000 -0.47536
       5     C     3.14908  3.14908  0.00000 -0.29815
       6     H     0.41045  0.41045  0.00000  0.17909
       7     H     0.40546  0.40546  0.00000  0.18907
       8     C     3.15360  3.15360  0.00000 -0.30720
       9     H     0.41495  0.41495  0.00000  0.17011
      10     H     0.40828  0.40828  0.00000  0.18343
      11     C     3.23960  3.23960  0.00000 -0.47920
      12     H     0.42326  0.42326  0.00000  0.15348
      13     H     0.42292  0.42292  0.00000  0.15416
      14     H     0.42002  0.42002  0.00000  0.15997
      15     H     0.41852  0.41852  0.00000  0.16296
      16     H     0.41943  0.41943  0.00000  0.16114

   Total alpha = 24.00000, Total beta = 24.00000, Total charge = -0.00000
