                              Psi4 1.0.54 Driver

  ==> Input File <==

--------------------------------------------------------------------------
set {
	reference rhf
	basis cc-pvtz
}

set_num_threads( 4 )
memory 2 gb

molecule MOL {
0 1

H	 -1.968526	 1.711534	 -1.114526
C	 -1.218324	 2.215821	 -0.520293
C	 0.097427	 1.453464	 -0.540926
H	 -1.602861	 2.299267	 0.487369
H	 -1.080440	 3.214156	 -0.918061
C	 0.000000	 0.039916	 0.000014
H	 0.855477	 1.975540	 0.036737
H	 0.493035	 1.392929	 -1.551234
C	 1.286532	 -0.763243	 0.000268
O	 -1.023189	 -0.411346	 0.399798
C	 2.547023	 0.087626	 -0.000114
H	 1.264245	 -1.421103	 -0.864380
H	 1.264290	 -1.420353	 0.865489
H	 2.584452	 0.725630	 -0.872909
H	 3.427035	 -0.544422	 0.000125
H	 2.584484	 0.726356	 0.872143

	symmetry c1
}
set optking {
	frozen_dihedral = ("
		3 6 9 12
	")
}

ee,wfn = optimize('scf', return_wfn=True)
oeprop( wfn, 'DIPOLE', 'QUADRUPOLE', 'MULLIKEN_CHARGES')
f=open( 'psi4out.xyz', 'w' )
f.write( "16  " )
f.write( str(ee) + "\n" )
f.write( MOL.save_string_xyz() )
f.close()
--------------------------------------------------------------------------

    Molecular point group: c1
  Charge       = 0
  Multiplicity = 1
  Basis Set: CC-PVTZ
  Basis Set:
  @DF-RHF Final Energy:  -270.12579288933608
    Total Energy =                       -270.1257928893359122
    Molecular point group: c1
  Basis Set: CC-PVTZ
  Basis Set:
  Basis Set: CC-PVTZ
  Basis Set:
  @DF-RHF Final Energy:  -270.05065611534189
    Total Energy =                       -270.0506561153418943
  Basis Set: CC-PVTZ
  Basis Set:
  Basis Set: CC-PVTZ
  Basis Set:
  @DF-RHF Final Energy:  -270.12158158874240
    Total Energy =                       -270.1215815887424583
  Basis Set: CC-PVTZ
  Basis Set:
  Basis Set: CC-PVTZ
  Basis Set:
  @DF-RHF Final Energy:  -270.12766409951746
    Total Energy =                       -270.1276640995176308
  Basis Set: CC-PVTZ
  Basis Set:
  @DF-RHF Final Energy:  -270.12679203943867
    Total Energy =                       -270.1267920394388966
  Basis Set: CC-PVTZ
  Basis Set:
  @DF-RHF Final Energy:  -270.12774697569967
    Total Energy =                       -270.1277469756995515
  Basis Set: CC-PVTZ
  Basis Set:
  Basis Set: CC-PVTZ
  Basis Set:
  @DF-RHF Final Energy:  -270.12794682223426
    Total Energy =                       -270.1279468222343212
  Basis Set: CC-PVTZ
  Basis Set:
  Basis Set: CC-PVTZ
  Basis Set:
  @DF-RHF Final Energy:  -270.12794815387178
    Total Energy =                       -270.1279481538718414
  Basis Set: CC-PVTZ
  Basis Set:
  Charge       = 0
  Multiplicity = 1
  Basis Set: CC-PVTZ
  Basis Set:

    Orbital Energies (a.u.)
    -----------------------

    Doubly Occupied:

       1A    -20.535592     2A    -11.318173     3A    -11.232324
       4A    -11.231634     5A    -11.225850     6A    -11.211220
       7A     -1.396980     8A     -1.073248     9A     -1.036123
      10A     -0.908362    11A     -0.867671    12A     -0.723176
      13A     -0.658327    14A     -0.645989    15A     -0.633098
      16A     -0.609604    17A     -0.554963    18A     -0.543211
      19A     -0.537460    20A     -0.511470    21A     -0.507798
      22A     -0.501384    23A     -0.475830    24A     -0.398252

  @DF-RHF Final Energy:  -270.12794825750103

   => Energetics <=

    Nuclear Repulsion Energy =            240.8782381312790335
    One-Electron Energy =                -843.3368951748747122
    Two-Electron Energy =                 332.3307087860947036
    DFT Exchange-Correlation Energy =       0.0000000000000000
    Empirical Dispersion Energy =           0.0000000000000000
    PCM Polarization Energy =               0.0000000000000000
    EFP Energy =                            0.0000000000000000
    Total Energy =                       -270.1279482575009183
    Molecular point group: c1
  Basis Set: CC-PVTZ
  Basis Set:

  -Total Gradient:
     Atom            X                  Y                   Z
    ------   -----------------  -----------------  -----------------
       1       -0.000000560084    -0.000000335240    -0.000000053920
       2       -0.000006728913     0.000000524130    -0.000001884018
       3        0.000359185166     0.000641328220     0.000876294079
       4       -0.000001840960     0.000001767380     0.000001730657
       5       -0.000001847629     0.000001435414     0.000000888975
       6       -0.000543316990    -0.001162171374    -0.001055916175
       7        0.000001465163     0.000005134239    -0.000004752257
       8        0.000004919683    -0.000001984774    -0.000006392189
       9        0.000181251638     0.001456846925    -0.000848272932
      10        0.000009742231     0.000019379575    -0.000017023949
      11        0.000001442601    -0.000003122984     0.000002963730
      12       -0.000001674255    -0.000959336444     0.001057231632
      13        0.000004090558    -0.000001045360     0.000000743821
      14       -0.000003134421     0.000001056894    -0.000006818438
      15       -0.000001774288     0.000000691854    -0.000000421297
      16       -0.000001219501    -0.000000168460     0.000001682283

  **** Optimization is complete! (in 9 steps) ****
    Final optimized geometry and variables:
    Molecular point group: c1

    Geometry (in Angstrom), charge = 0, multiplicity = 1:

    H           -2.748746997900     0.160691305874    -0.418827495614
    C           -2.163670592727     1.014311899837    -0.103587308645
    C           -0.691645828537     0.819353710150    -0.431841370199
    H           -2.310903147143     1.134187219479     0.961109317550
    H           -2.545925552161     1.895760294139    -0.604565083306
    C           -0.074612531855    -0.394167726505     0.232535029734
    H           -0.113311076792     1.689469400128    -0.135986682125
    H           -0.543428379945     0.724763131711    -1.504423836614
    C            1.369106034102    -0.755790572561    -0.087641076047
    O           -0.697173511946    -1.077083053945     0.979596267316
    C            2.286581768701     0.354022839843    -0.590837259292
    H            1.316549442656    -1.559050608348    -0.818213286992
    H            1.771679800157    -1.203942242038     0.811456871229
    H            1.944825346699     0.777799947933    -1.526707379128
    H            3.281350487686    -0.040556399565    -0.755974565523
    H            2.371073348824     1.158892511652     0.130256596534

  Mulliken Charges: (a.u.)
   Center  Symbol    Alpha    Beta     Spin     Total
       1     H     0.44816  0.44816  0.00000  0.10368
       2     C     3.14208  3.14208  0.00000 -0.28415
       3     C     3.10640  3.10640  0.00000 -0.21279
       4     H     0.44701  0.44701  0.00000  0.10598
       5     H     0.45095  0.45095  0.00000  0.09810
       6     C     2.87046  2.87046  0.00000  0.25909
       7     H     0.44319  0.44319  0.00000  0.11363
       8     H     0.44355  0.44355  0.00000  0.11291
       9     C     3.09088  3.09088  0.00000 -0.18175
      10     O     4.17632  4.17632  0.00000 -0.35264
      11     C     3.15893  3.15893  0.00000 -0.31787
      12     H     0.44379  0.44379  0.00000  0.11242
      13     H     0.43643  0.43643  0.00000  0.12714
      14     H     0.45119  0.45119  0.00000  0.09761
      15     H     0.44122  0.44122  0.00000  0.11756
      16     H     0.44945  0.44945  0.00000  0.10111

   Total alpha = 24.00000, Total beta = 24.00000, Total charge =  0.00000

*** Psi4 exiting successfully. Buy a developer a beer!
