                              Psi4 1.0.54 Driver

  ==> Input File <==

--------------------------------------------------------------------------
set {
	reference rhf
	basis cc-pvtz
}

set_num_threads( 4 )
memory 2 gb

molecule MOL {
0 1

O	 1.216069	 1.304886	 0.000821
C	 1.121787	 0.124983	 0.000110
C	 -0.170912	 -0.649867	 -0.000147
O	 2.167739	 -0.685178	 -0.000678
C	 -1.413045	 0.229353	 0.001137
H	 -0.152877	 -1.303435	 -0.866175
H	 -0.152278	 -1.305116	 0.864586
C	 -1.401101	 1.253910	 -1.129549
H	 -1.491474	 0.737034	 0.955940
H	 -2.294840	 -0.396333	 -0.079478
C	 -2.640511	 2.142002	 -1.136264
H	 -0.513636	 1.875650	 -1.045378
H	 -1.322205	 0.739339	 -2.083608
H	 -2.728667	 2.696534	 -0.208198
H	 -2.604841	 2.858805	 -1.948420
H	 -3.543082	 1.552032	 -1.254084
C	 3.449556	 -0.089977	 -0.000570
H	 3.585694	 0.522473	 -0.879546
H	 4.155805	 -0.904274	 -0.001389
H	 3.586173	 0.521118	 0.879272

	symmetry c1
}
set optking {
	frozen_dihedral = ("
		9 5 3 6
	")
}

ee,wfn = optimize('scf', return_wfn=True)
oeprop( wfn, 'DIPOLE', 'QUADRUPOLE', 'MULLIKEN_CHARGES')
f=open( 'psi4out.xyz', 'w' )
f.write( "20  " )
f.write( str(ee) + "\n" )
f.write( MOL.save_string_xyz() )
f.close()
--------------------------------------------------------------------------

    Molecular point group: c1
  Charge       = 0
  Multiplicity = 1
  Basis Set: CC-PVTZ
  Basis Set:
  @DF-RHF Final Energy:  -384.07676597860188
    Total Energy =                       -384.0767659786018839
    Molecular point group: c1
  Basis Set: CC-PVTZ
  Basis Set:
  Basis Set: CC-PVTZ
  Basis Set:
  @DF-RHF Final Energy:  -384.08069500687094
    Total Energy =                       -384.0806950068708829
  Basis Set: CC-PVTZ
  Basis Set:
  Basis Set: CC-PVTZ
  Basis Set:
  @DF-RHF Final Energy:  -384.08074720281803
    Total Energy =                       -384.0807472028179745
  Basis Set: CC-PVTZ
  Basis Set:
  Basis Set: CC-PVTZ
  Basis Set:
  @DF-RHF Final Energy:  -384.08132800040880
    Total Energy =                       -384.0813280004088028
  Basis Set: CC-PVTZ
  Basis Set:
  @DF-RHF Final Energy:  -384.08151580245243
    Total Energy =                       -384.0815158024525999
  @DF-RHF Final Energy:  -384.08162287677806
    Total Energy =                       -384.0816228767778284
  @DF-RHF Final Energy:  -384.08169942562978
    Total Energy =                       -384.0816994256292674
  Basis Set: CC-PVTZ
  Basis Set:
  @DF-RHF Final Energy:  -384.08166491559803
    Total Energy =                       -384.0816649155975711
  Basis Set: CC-PVTZ
  Basis Set:
  Basis Set: CC-PVTZ
  Basis Set:
  @DF-RHF Final Energy:  -384.08179939736988
    Total Energy =                       -384.0817993973702187
  Basis Set: CC-PVTZ
  Basis Set:
  Basis Set: CC-PVTZ
  Basis Set:
  @DF-RHF Final Energy:  -384.08180382377464
    Total Energy =                       -384.0818038237744076
  Basis Set: CC-PVTZ
  Basis Set:
  Charge       = 0
  Multiplicity = 1
  Basis Set: CC-PVTZ
  Basis Set:

    Orbital Energies (a.u.)
    -----------------------

    Doubly Occupied:

       1A    -20.597851     2A    -20.533635     3A    -11.365551
       4A    -11.279041     5A    -11.234238     6A    -11.219751
       7A    -11.212078     8A    -11.205690     9A     -1.473222
      10A     -1.366174    11A     -1.087847    12A     -1.023190
      13A     -0.970213    14A     -0.885486    15A     -0.807575
      16A     -0.768246    17A     -0.702266    18A     -0.683734
      19A     -0.675478    20A     -0.635138    21A     -0.604580
      22A     -0.589544    23A     -0.582499    24A     -0.540286
      25A     -0.536754    26A     -0.519018    27A     -0.511435
      28A     -0.478532    29A     -0.472298    30A     -0.464794
      31A     -0.459054    32A     -0.437540

  @DF-RHF Final Energy:  -384.08180427684653

   => Energetics <=

    Nuclear Repulsion Energy =            389.8367903089169317
    One-Electron Energy =               -1295.9917099253375454
    Two-Electron Energy =                 522.0731153395740876
    DFT Exchange-Correlation Energy =       0.0000000000000000
    Empirical Dispersion Energy =           0.0000000000000000
    PCM Polarization Energy =               0.0000000000000000
    EFP Energy =                            0.0000000000000000
    Total Energy =                       -384.0818042768464693
    Molecular point group: c1
  Basis Set: CC-PVTZ
  Basis Set:

  -Total Gradient:
     Atom            X                  Y                   Z
    ------   -----------------  -----------------  -----------------
       1        0.000010565091    -0.000072424762    -0.000048978171
       2        0.000004478515     0.000140882340     0.000093897557
       3        0.001711831090     0.002328879769    -0.001928396563
       4        0.000081585283    -0.000021055924    -0.000038439889
       5        0.001822779459     0.002445509458    -0.001003129544
       6       -0.001718472296    -0.002332615447     0.001729546560
       7       -0.000001971517    -0.000004341259     0.000010222242
       8       -0.000017767959    -0.000007436122    -0.000011162957
       9       -0.001834203773    -0.002491944036     0.001189737296
      10        0.000006558618     0.000003768590    -0.000003521580
      11       -0.000003777983     0.000008120793    -0.000004214680
      12        0.000012935336     0.000010898413    -0.000001510821
      13        0.000001463776     0.000002565116     0.000002776870
      14       -0.000000397271    -0.000000122116     0.000000699693
      15       -0.000002020433     0.000002106269    -0.000000483608
      16        0.000000929045     0.000000963779    -0.000000578957
      17       -0.000071351640    -0.000022649139     0.000026783677
      18       -0.000006854291     0.000017939723    -0.000017729975
      19        0.000000121623    -0.000009169856    -0.000008562318
      20        0.000003569331     0.000000124411     0.000013045171

  **** Optimization is complete! (in 11 steps) ****
    Final optimized geometry and variables:
    Molecular point group: c1

    Geometry (in Angstrom), charge = 0, multiplicity = 1:

    O            0.990414182446     0.711297934446     0.850490986867
    C            0.830617268575    -0.361682801972     0.375456896695
    C           -0.494262518904    -1.071381132327     0.262058831971
    O            1.823531070472    -1.105784462545    -0.080729832459
    C           -1.719184296668    -0.161697468496     0.274940371011
    H           -0.488089202016    -1.720493883931    -0.604013273149
    H           -0.532004577351    -1.739122801992     1.119293505530
    C           -1.780805209597     0.846953983331    -0.868748068561
    H           -1.784466016127     0.342056272086     1.232402812264
    H           -2.592819661983    -0.805695942798     0.220075919213
    C           -3.062296982516     1.673526945670    -0.849468110391
    H           -0.926050703608     1.509516753566    -0.815953996493
    H           -1.709986471973     0.316350690624    -1.815426151453
    H           -3.146406018343     2.238657760662     0.072531916350
    H           -3.084650421292     2.378852840676    -1.672025348024
    H           -3.940633928651     1.041545761777    -0.931431946646
    C            3.131545536851    -0.582401460585     0.033792862823
    H            3.220625381125     0.343522714733    -0.514628824439
    H            3.787814920645    -1.327894860610    -0.384997648230
    H            3.381639897480    -0.404337223392     1.069186308431

  Mulliken Charges: (a.u.)
   Center  Symbol    Alpha    Beta     Spin     Total
       1     O     4.20160  4.20160  0.00000 -0.40320
       2     C     2.80219  2.80219  0.00000  0.39562
       3     C     3.10981  3.10981  0.00000 -0.21961
       4     O     4.14572  4.14572  0.00000 -0.29143
       5     C     3.08604  3.08604  0.00000 -0.17208
       6     H     0.43611  0.43611  0.00000  0.12777
       7     H     0.43656  0.43656  0.00000  0.12689
       8     C     3.08949  3.08949  0.00000 -0.17898
       9     H     0.44669  0.44669  0.00000  0.10662
      10     H     0.44896  0.44896  0.00000  0.10208
      11     C     3.15104  3.15104  0.00000 -0.30208
      12     H     0.44197  0.44197  0.00000  0.11607
      13     H     0.45651  0.45651  0.00000  0.08698
      14     H     0.45278  0.45278  0.00000  0.09443
      15     H     0.44809  0.44809  0.00000  0.10381
      16     H     0.45670  0.45670  0.00000  0.08661
      17     C     3.03599  3.03599  0.00000 -0.07197
      18     H     0.45410  0.45410  0.00000  0.09179
      19     H     0.44521  0.44521  0.00000  0.10959
      20     H     0.45446  0.45446  0.00000  0.09109

   Total alpha = 32.00000, Total beta = 32.00000, Total charge = -0.00000

*** Psi4 exiting successfully. Buy a developer a beer!
