  ==> Input File <==

--------------------------------------------------------------------------
set {
	reference rhf
	basis 6-31G*
}

set_num_threads( 4 )
memory 2 gb

molecule MOL {
0 1

H	 2.790661	 -0.483541	 -0.645521
O	 1.977955	 -0.907244	 -0.387118
C	 1.011345	 0.009905	 -0.398666
C	 -0.318135	 -0.576402	 0.000164
O	 1.217217	 1.141874	 -0.694063
C	 -1.454360	 0.441875	 -0.000474
H	 -0.525998	 -1.399602	 -0.678171
H	 -0.192636	 -1.026478	 0.981329
C	 -2.826123	 -0.230780	 0.000056
H	 -1.357605	 1.085198	 -0.868380
H	 -1.357504	 1.086451	 0.866496
H	 -2.959731	 -0.858053	 -0.876869
H	 -3.619374	 0.509403	 -0.000080
H	 -2.959371	 -0.857318	 0.877556

	symmetry c1
}
set optking {
	frozen_dihedral = ("
		7 4 6 10
	")
}

ee = optimize('scf')
oeprop('DIPOLE', 'QUADRUPOLE', 'MULLIKEN_CHARGES')
f=open( 'psi4out.xyz', 'w' )
f.write( "14  " )
f.write( str(ee) + "\n" )
f.write( MOL.save_string_xyz() )
f.close()
--------------------------------------------------------------------------

    Molecular point group: c1
  Charge       = 0
  Multiplicity = 1
  Basis Set: 6-31G*
  Basis Set:
  @DF-RHF Final Energy:  -305.87993208088619
    Total Energy =                       -305.8799320808860784
    Molecular point group: c1
  Basis Set: 6-31G*
  Basis Set:
  Basis Set: 6-31G*
  Basis Set:
  @DF-RHF Final Energy:  -305.88003680459337
    Total Energy =                       -305.8800368045936580
  Basis Set: 6-31G*
  Basis Set:
  Basis Set: 6-31G*
  Basis Set:
  @DF-RHF Final Energy:  -305.88001942035436
    Total Energy =                       -305.8800194203544152
  Basis Set: 6-31G*
  Basis Set:
  Basis Set: 6-31G*
  Basis Set:
  @DF-RHF Final Energy:  -305.88005440147134
    Total Energy =                       -305.8800544014712841
  Basis Set: 6-31G*
  Basis Set:
  Basis Set: 6-31G*
  Basis Set:
  @DF-RHF Final Energy:  -305.88006308033437
    Total Energy =                       -305.8800630803340823
  Basis Set: 6-31G*
  Basis Set:
  Charge       = 0
  Multiplicity = 1
  Basis Set: 6-31G*
  Basis Set:

    Orbital Energies (a.u.)
    -----------------------

    Doubly Occupied:

       1A    -20.613277     2A    -20.552480     3A    -11.382215
       4A    -11.241232     5A    -11.225294     6A    -11.217310
       7A     -1.475449     8A     -1.366508     9A     -1.082607
      10A     -0.979937    11A     -0.857713    12A     -0.791499
      13A     -0.700347    14A     -0.690173    15A     -0.665648
      16A     -0.614858    17A     -0.594569    18A     -0.572853
      19A     -0.545745    20A     -0.505475    21A     -0.491773
      22A     -0.480291    23A     -0.479241    24A     -0.445495

  @DF-RHF Final Energy:  -305.88006387169821

   => Energetics <=

    Nuclear Repulsion Energy =            239.8964888720604165
    One-Electron Energy =                -892.4091243576112902
    Two-Electron Energy =                 346.6325716138522921
    DFT Exchange-Correlation Energy =       0.0000000000000000
    Empirical Dispersion Energy =           0.0000000000000000
    PCM Polarization Energy =               0.0000000000000000
    EFP Energy =                            0.0000000000000000
    Total Energy =                       -305.8800638716985532
    Molecular point group: c1
  Basis Set: 6-31G*
  Basis Set:

  -Total Gradient:
     Atom            X                  Y                   Z
    ------   -----------------  -----------------  -----------------
       1        0.000011594495    -0.000010815070    -0.000001893122
       2        0.000037170401     0.000034232155    -0.000016163735
       3        0.000000552667    -0.000000257039     0.000019513227
       4        0.001898230349     0.002147650374    -0.002216822927
       5        0.000033007655    -0.000024090877    -0.000011040188
       6       -0.002224278003    -0.002504422283    -0.001299459132
       7       -0.001232038997    -0.001373803272     0.002048375604
       8        0.000001483287     0.000002020647    -0.000011719216
       9       -0.000033471867     0.000022766463     0.000041293520
      10        0.001548843517     0.001740108330     0.001446726314
      11       -0.000023350595    -0.000028002245    -0.000009335009
      12        0.000022247140     0.000016634829     0.000009952684
      13       -0.000020088756    -0.000008826918    -0.000004216961
      14       -0.000019901296    -0.000013195094     0.000004788942

  **** Optimization is complete! (in 6 steps) ****
    Final optimized geometry and variables:
    Molecular point group: c1

    Geometry (in Angstrom), charge = 0, multiplicity = 1:

    H            2.824660217945    -0.454374265665    -0.351151266606
    O            2.006161432874    -0.878459963416    -0.112447612830
    C            1.040654515565     0.039331720074    -0.142192539726
    C           -0.296468762458    -0.548296033950     0.225457173498
    O            1.254433175380     1.172431294332    -0.427449220176
    C           -1.438518116175     0.466350077676     0.226951588525
    H           -0.498749387881    -1.374398532137    -0.451115861094
    H           -0.185368526757    -1.009010031248     1.203659562439
    C           -2.809887026172    -0.203884004316     0.268050233197
    H           -1.349742815033     1.111097534671    -0.639617504262
    H           -1.325569688443     1.120350757407     1.086408515921
    H           -2.971662159912    -0.824065614189    -0.609014253683
    H           -3.601775102285     0.537057440163     0.299510404217
    H           -2.915655188076    -0.837183319724     1.144555317247

  Mulliken Charges: (a.u.)
   Center  Symbol    Alpha    Beta     Spin     Total
       1     H     0.26767  0.26767  0.00000  0.46466
       2     O     4.35076  4.35076  0.00000 -0.70152
       3     C     2.62378  2.62378  0.00000  0.75244
       4     C     3.21063  3.21063  0.00000 -0.42126
       5     O     4.27898  4.27898  0.00000 -0.55796
       6     C     3.15381  3.15381  0.00000 -0.30761
       7     H     0.39865  0.39865  0.00000  0.20271
       8     H     0.39818  0.39818  0.00000  0.20364
       9     C     3.24308  3.24308  0.00000 -0.48616
      10     H     0.40488  0.40488  0.00000  0.19024
      11     H     0.41379  0.41379  0.00000  0.17241
      12     H     0.42025  0.42025  0.00000  0.15949
      13     H     0.41454  0.41454  0.00000  0.17092
      14     H     0.42100  0.42100  0.00000  0.15800

   Total alpha = 24.00000, Total beta = 24.00000, Total charge = -0.00000
