                              Psi4 1.0.54 Driver

  ==> Input File <==

--------------------------------------------------------------------------
set {
	reference rhf
	basis cc-pvtz
}

set_num_threads( 4 )
memory 2 gb

molecule MOL {
0 1

H	 -3.642953	 0.223825	 0.000000
C	 -2.571844	 0.155001	 0.000000
C	 -1.957580	 -1.086132	 0.000000
C	 -1.807160	 1.303787	 0.000000
H	 -2.551493	 -1.979629	 0.000000
C	 -0.582719	 -1.174294	 0.000000
H	 -2.279934	 2.266806	 0.000000
C	 -0.427220	 1.213406	 0.000000
H	 -0.094904	 -2.127556	 0.000000
C	 0.196908	 -0.024061	 0.000000
H	 0.151409	 2.115254	 0.000000
C	 1.690041	 -0.173233	 0.000000
C	 2.521426	 0.760761	 -0.849183
O	 2.213053	 -1.014535	 0.658811
H	 2.251820	 0.671055	 -1.894767
H	 3.561319	 0.505194	 -0.722542
H	 2.363717	 1.791088	 -0.553319

	symmetry c1
}
set optking {
	frozen_dihedral = ("
		13 12 10 8
	")
}

ee,wfn = optimize('scf', return_wfn=True)
oeprop( wfn, 'DIPOLE', 'QUADRUPOLE', 'MULLIKEN_CHARGES')
f=open( 'psi4out.xyz', 'w' )
f.write( "17  " )
f.write( str(ee) + "\n" )
f.write( MOL.save_string_xyz() )
f.close()
--------------------------------------------------------------------------

    Molecular point group: c1
  Charge       = 0
  Multiplicity = 1
  Basis Set: CC-PVTZ
  Basis Set:
  @DF-RHF Final Energy:  -382.60234632852388
    Total Energy =                       -382.6023463285237085
    Molecular point group: c1
  Basis Set: CC-PVTZ
  Basis Set:
  Basis Set: CC-PVTZ
  Basis Set:
  @DF-RHF Final Energy:  -382.60028967083554
    Total Energy =                       -382.6002896708358776
  Basis Set: CC-PVTZ
  Basis Set:
  Basis Set: CC-PVTZ
  Basis Set:
  @DF-RHF Final Energy:  -382.60284863030506
    Total Energy =                       -382.6028486303050613
  Basis Set: CC-PVTZ
  Basis Set:
  Basis Set: CC-PVTZ
  Basis Set:
  @DF-RHF Final Energy:  -382.60293104661292
    Total Energy =                       -382.6029310466127527
  Basis Set: CC-PVTZ
  Basis Set:
  Basis Set: CC-PVTZ
  Basis Set:
  @DF-RHF Final Energy:  -382.60294871783390
    Total Energy =                       -382.6029487178341242
  Basis Set: CC-PVTZ
  Basis Set:
  Basis Set: CC-PVTZ
  Basis Set:
  @DF-RHF Final Energy:  -382.60296353858860
    Total Energy =                       -382.6029635385887104
  Basis Set: CC-PVTZ
  Basis Set:
  Charge       = 0
  Multiplicity = 1
  Basis Set: CC-PVTZ
  Basis Set:

    Orbital Energies (a.u.)
    -----------------------

    Doubly Occupied:

       1A    -20.542777     2A    -11.328499     3A    -11.245858
       4A    -11.243735     5A    -11.242324     6A    -11.239635
       7A    -11.239047     8A    -11.237159     9A    -11.229753
      10A     -1.403630    11A     -1.171160    12A     -1.053397
      13A     -1.030445    14A     -0.999820    15A     -0.863966
      16A     -0.839940    17A     -0.764224    18A     -0.710661
      19A     -0.661388    20A     -0.651389    21A     -0.627642
      22A     -0.618733    23A     -0.603257    24A     -0.593911
      25A     -0.559272    26A     -0.530894    27A     -0.518331
      28A     -0.505374    29A     -0.496724    30A     -0.414621
      31A     -0.349969    32A     -0.346845

  @DF-RHF Final Energy:  -382.60296391506273

   => Energetics <=

    Nuclear Repulsion Energy =            404.2310167605775746
    One-Electron Energy =               -1319.9392040515140252
    Two-Electron Energy =                 533.1052233758739476
    DFT Exchange-Correlation Energy =       0.0000000000000000
    Empirical Dispersion Energy =           0.0000000000000000
    PCM Polarization Energy =               0.0000000000000000
    EFP Energy =                            0.0000000000000000
    Total Energy =                       -382.6029639150624462
    Molecular point group: c1
  Basis Set: CC-PVTZ
  Basis Set:

  -Total Gradient:
     Atom            X                  Y                   Z
    ------   -----------------  -----------------  -----------------
       1       -0.000000232373    -0.000002671200    -0.000000364709
       2        0.000003015204     0.000036109341     0.000001908265
       3        0.000035114699    -0.000023510548    -0.000006147181
       4       -0.000027360238    -0.000014164655     0.000008793084
       5       -0.000000581040     0.000000336133     0.000003498939
       6       -0.000032849143    -0.000018107830    -0.000004882841
       7        0.000003715178     0.000001637755    -0.000000441635
       8       -0.000064892081    -0.000055036759     0.003335222340
       9        0.000000114006     0.000000206860     0.000004072943
      10        0.000070534850    -0.000785697109    -0.006072862123
      11       -0.000003969244     0.000001441952     0.000007394011
      12        0.000147106809     0.002730561502     0.004971217853
      13       -0.000114797519    -0.001811044370    -0.002198383375
      14        0.000001396677    -0.000029379092     0.000015934122
      15       -0.000012179830    -0.000022969565    -0.000024262659
      16       -0.000001980164    -0.000007623023    -0.000006672336
      17       -0.000002155792    -0.000000089393    -0.000034024693

  **** Optimization is complete! (in 7 steps) ****
    Final optimized geometry and variables:
    Molecular point group: c1

    Geometry (in Angstrom), charge = 0, multiplicity = 1:

    H           -3.637504560814     0.256490028922     0.051996702437
    C           -2.567012267604     0.180879715276     0.038486800828
    C           -1.960505684856    -1.063272035426     0.045605960280
    C           -1.794267556470     1.324650223537     0.019756752944
    H           -2.559593848677    -1.953205345116     0.065138699927
    C           -0.585078140078    -1.160371705371     0.041036006104
    H           -2.260674399116     2.290878596239     0.027622675542
    C           -0.415272954932     1.226218023501    -0.008751532798
    H           -0.105954385311    -2.118411065711     0.073905594963
    C            0.198157000714    -0.015593624974    -0.004703177477
    H            0.172637865121     2.122996786571    -0.025328125725
    C            1.691456538207    -0.168395341493     0.034090843299
    C            2.530383279852     0.781082408393    -0.789160824444
    O            2.189634528453    -1.058564401167     0.643806106299
    H            2.213847002121     0.742582509474    -1.824924399075
    H            3.567597298264     0.495524791144    -0.708484858533
    H            2.413837321336     1.803929686025    -0.452031622398

  Mulliken Charges: (a.u.)
   Center  Symbol    Alpha    Beta     Spin     Total
       1     H     0.42073  0.42073  0.00000  0.15854
       2     C     3.07748  3.07748  0.00000 -0.15495
       3     C     3.06921  3.06921  0.00000 -0.13841
       4     C     3.07061  3.07061  0.00000 -0.14123
       5     H     0.42074  0.42074  0.00000  0.15852
       6     C     3.08300  3.08300  0.00000 -0.16601
       7     H     0.42180  0.42180  0.00000  0.15640
       8     C     3.09016  3.09016  0.00000 -0.18033
       9     H     0.41220  0.41220  0.00000  0.17559
      10     C     2.98840  2.98840  0.00000  0.02320
      11     H     0.42357  0.42357  0.00000  0.15286
      12     C     2.86015  2.86015  0.00000  0.27969
      13     C     3.15696  3.15696  0.00000 -0.31392
      14     O     4.17448  4.17448  0.00000 -0.34896
      15     H     0.44511  0.44511  0.00000  0.10978
      16     H     0.43411  0.43411  0.00000  0.13178
      17     H     0.45128  0.45128  0.00000  0.09743

   Total alpha = 32.00000, Total beta = 32.00000, Total charge = -0.00000

*** Psi4 exiting successfully. Buy a developer a beer!
