  ==> Input File <==

--------------------------------------------------------------------------
set {
	reference rhf
	basis 6-31G*
}

set_num_threads( 1 )
memory 2 gb

molecule MOL {
0 1

H	 -2.172150	 0.880146	 0.502514
C	 -2.018062	 -0.000025	 -0.114509
O	 -0.774054	 0.001095	 -0.743181
H	 -2.760490	 0.003458	 -0.901350
H	 -2.173624	 -0.884374	 0.496163
C	 -0.353102	 -1.141418	 -1.467056
C	 1.024849	 -0.747352	 -1.994290
C	 -0.231921	 -2.362797	 -0.550138
C	 -1.296970	 -1.432653	 -2.638129
H	 1.687864	 -0.514645	 -1.168645
H	 0.946623	 0.133399	 -2.621612
H	 1.464816	 -1.550263	 -2.576890
H	 0.380188	 -2.124709	 0.313381
H	 0.233026	 -3.187018	 -1.081255
H	 -1.198229	 -2.708076	 -0.198592
H	 -1.432740	 -0.541359	 -3.241630
H	 -0.883304	 -2.212363	 -3.269370
H	 -2.272110	 -1.770064	 -2.303636

	symmetry c1
}
set optking {
	frozen_dihedral = ("
		2 3 6 7
	")
}

ee = energy('scf')
oeprop('DIPOLE', 'QUADRUPOLE', 'MULLIKEN_CHARGES')
f=open( 'psi4out.xyz', 'w' )
f.write( "18  " )
f.write( str(ee) + "\n" )
f.write( MOL.save_string_xyz() )
f.close()
--------------------------------------------------------------------------

    Molecular point group: c1

    Geometry (in Angstrom), charge = 0, multiplicity = 1:

       Center              X                  Y                   Z               Mass
    ------------   -----------------  -----------------  -----------------  -----------------
           H         -1.546332302058     1.819908530529     1.742547727504     1.007825032070
           C         -1.392244302058     0.939737530529     1.125524727504    12.000000000000
           O         -0.148236302058     0.940857530529     0.496852727504    15.994914619560
           H         -2.134672302058     0.943220530529     0.338683727504     1.007825032070
           H         -1.547806302058     0.055388530529     1.736196727504     1.007825032070
           C          0.272715697942    -0.201655469471    -0.227022272496    12.000000000000
           C          1.650666697942     0.192410530529    -0.754256272496    12.000000000000
           C          0.393896697942    -1.423034469471     0.689895727504    12.000000000000
           C         -0.671152302058    -0.492890469471    -1.398095272496    12.000000000000
           H          2.313681697942     0.425117530529     0.071388727504     1.007825032070
           H          1.572440697942     1.073161530529    -1.381578272496     1.007825032070
           H          2.090633697942    -0.610500469471    -1.336856272496     1.007825032070
           H          1.006005697942    -1.184946469471     1.553414727504     1.007825032070
           H          0.858843697942    -2.247255469471     0.158778727504     1.007825032070
           H         -0.572411302058    -1.768313469471     1.041441727504     1.007825032070
           H         -0.806922302058     0.398403530529    -2.001596272496     1.007825032070
           H         -0.257486302058    -1.272600469471    -2.029336272496     1.007825032070
           H         -1.646292302058    -0.830301469471    -1.063602272496     1.007825032070

  Charge       = 0
  Multiplicity = 1
  Basis Set: 6-31G*
  Basis Set:

    Orbital Energies (a.u.)
    -----------------------

    Doubly Occupied:

       1A    -20.544813     2A    -11.282242     3A    -11.260662
       4A    -11.208811     5A    -11.208791     6A    -11.203337
       7A     -1.369357     8A     -1.072834     9A     -0.946194
      10A     -0.940050    11A     -0.911867    12A     -0.752025
      13A     -0.653935    14A     -0.645245    15A     -0.639331
      16A     -0.593509    17A     -0.576050    18A     -0.550243
      19A     -0.533751    20A     -0.524886    21A     -0.514713
      22A     -0.489214    23A     -0.486205    24A     -0.437036
      25A     -0.402356

  @DF-RHF Final Energy:  -271.17282409882517

   => Energetics <=

    Nuclear Repulsion Energy =            272.4275111180280078
    One-Electron Energy =                -907.7054738206309139
    Two-Electron Energy =                 364.1051386037780730
    DFT Exchange-Correlation Energy =       0.0000000000000000
    Empirical Dispersion Energy =           0.0000000000000000
    PCM Polarization Energy =               0.0000000000000000
    EFP Energy =                            0.0000000000000000
    Total Energy =                       -271.1728240988248899

  Mulliken Charges: (a.u.)
   Center  Symbol    Alpha    Beta     Spin     Total
       1     H     0.41242  0.41242  0.00000  0.17516
       2     C     3.07934  3.07934  0.00000 -0.15867
       3     O     4.32016  4.32016  0.00000 -0.64032
       4     H     0.42875  0.42875  0.00000  0.14251
       5     H     0.43040  0.43040  0.00000  0.13921
       6     C     2.84181  2.84181  0.00000  0.31638
       7     C     3.23279  3.23279  0.00000 -0.46558
       8     C     3.24750  3.24750  0.00000 -0.49500
       9     C     3.24841  3.24841  0.00000 -0.49681
      10     H     0.41391  0.41391  0.00000  0.17218
      11     H     0.41404  0.41404  0.00000  0.17192
      12     H     0.42519  0.42519  0.00000  0.14962
      13     H     0.41305  0.41305  0.00000  0.17390
      14     H     0.41958  0.41958  0.00000  0.16084
      15     H     0.42011  0.42011  0.00000  0.15977
      16     H     0.41321  0.41321  0.00000  0.17358
      17     H     0.41936  0.41936  0.00000  0.16127
      18     H     0.41998  0.41998  0.00000  0.16004

   Total alpha = 25.00000, Total beta = 25.00000, Total charge =  0.00000
