                              Psi4 1.0.54 Driver

  ==> Input File <==

--------------------------------------------------------------------------
set {
	reference rhf
	basis cc-pvtz
}

set_num_threads( 4 )
memory 2 gb

molecule MOL {
0 1

H	 1.128311	 0.207724	 1.465118
C	 1.134565	 0.093781	 0.372499
C	 0.062554	 0.862911	 -0.350953
O	 1.948932	 -0.587720	 -0.146651
C	 0.631195	 1.812846	 -1.409672
H	 -0.533638	 1.393751	 0.379977
H	 -0.576222	 0.128067	 -0.835765
C	 1.436808	 2.966857	 -0.819846
H	 -0.192262	 2.207869	 -1.993153
H	 1.250368	 1.250117	 -2.102786
H	 0.826380	 3.565397	 -0.152999
H	 1.810054	 3.615645	 -1.603047
H	 2.289439	 2.611918	 -0.251450

	symmetry c1
}
set optking {
	frozen_dihedral = ("
		6 3 2 4
	")
}

ee,wfn = optimize('scf', return_wfn=True)
oeprop( wfn, 'DIPOLE', 'QUADRUPOLE', 'MULLIKEN_CHARGES')
f=open( 'psi4out.xyz', 'w' )
f.write( "13  " )
f.write( str(ee) + "\n" )
f.write( MOL.save_string_xyz() )
f.close()
--------------------------------------------------------------------------

    Molecular point group: c1
  Charge       = 0
  Multiplicity = 1
  Basis Set: CC-PVTZ
  Basis Set:
  @DF-RHF Final Energy:  -231.06854165674741
    Total Energy =                       -231.0685416567473567
    Molecular point group: c1
  Basis Set: CC-PVTZ
  Basis Set:
  Basis Set: CC-PVTZ
  Basis Set:
  @DF-RHF Final Energy:  -231.06820121193684
    Total Energy =                       -231.0682012119368380
  Basis Set: CC-PVTZ
  Basis Set:
  Basis Set: CC-PVTZ
  Basis Set:
  @DF-RHF Final Energy:  -231.06862874683000
    Total Energy =                       -231.0686287468300009
  Basis Set: CC-PVTZ
  Basis Set:
  Basis Set: CC-PVTZ
  Basis Set:
  @DF-RHF Final Energy:  -231.06890949617360
    Total Energy =                       -231.0689094961736032
  Basis Set: CC-PVTZ
  Basis Set:
  Charge       = 0
  Multiplicity = 1
  Basis Set: CC-PVTZ
  Basis Set:

    Orbital Energies (a.u.)
    -----------------------

    Doubly Occupied:

       1A    -20.552727     2A    -11.322892     3A    -11.234559
       4A    -11.229391     5A    -11.216793     6A     -1.408357
       7A     -1.081307     8A     -0.972160     9A     -0.853629
      10A     -0.770848    11A     -0.688423    12A     -0.641851
      13A     -0.624561    14A     -0.594772    15A     -0.559158
      16A     -0.535233    17A     -0.503095    18A     -0.487954
      19A     -0.480874    20A     -0.412626

  @DF-RHF Final Energy:  -231.06891033427453

   => Energetics <=

    Nuclear Repulsion Energy =            175.4792911766157033
    One-Electron Energy =                -660.7539787205723769
    Two-Electron Energy =                 254.2057772096819690
    DFT Exchange-Correlation Energy =       0.0000000000000000
    Empirical Dispersion Energy =           0.0000000000000000
    PCM Polarization Energy =               0.0000000000000000
    EFP Energy =                            0.0000000000000000
    Total Energy =                       -231.0689103342747330
    Molecular point group: c1
  Basis Set: CC-PVTZ
  Basis Set:

  -Total Gradient:
     Atom            X                  Y                   Z
    ------   -----------------  -----------------  -----------------
       1       -0.000017168233     0.000033923654     0.000016291619
       2        0.001053531338     0.001094832847    -0.000051644583
       3        0.000520780883     0.000625406736     0.000014869885
       4       -0.000844981296    -0.000923979090     0.000036473496
       5       -0.000053662338     0.000115339046     0.000001241350
       6       -0.000760306561    -0.000927808898     0.000014056086
       7        0.000035820628    -0.000000344945    -0.000003149198
       8        0.000058582701    -0.000053158161    -0.000026296413
       9       -0.000015375245    -0.000007514868    -0.000005995906
      10       -0.000003968824     0.000015293304    -0.000002663199
      11       -0.000025028345     0.000013178122    -0.000017852110
      12        0.000037221087     0.000032314707    -0.000033286587
      13        0.000014554205    -0.000017482460     0.000057955562

  **** Optimization is complete! (in 5 steps) ****
    Final optimized geometry and variables:
    Molecular point group: c1

    Geometry (in Angstrom), charge = 0, multiplicity = 1:

    H           -0.070945600347    -0.899339955030     1.945641333895
    C            0.001862106631    -0.953428319284     0.853382857959
    C           -1.004751638699    -0.145184068751     0.064537832147
    O            0.823451115626    -1.640077319024     0.351244329067
    C           -0.355799467536     0.796440430602    -0.953608862463
    H           -1.648188388900     0.399368919313     0.747085238922
    H           -1.629520803856    -0.864912684080    -0.455865230347
    C            0.448884521721     1.924457957258    -0.314515801145
    H           -1.138114565284     1.218463611062    -1.574678723397
    H            0.282841680595     0.212717846593    -1.604609823119
    H           -0.174982319793     2.536359379550     0.328924717947
    H            0.874131398568     2.570482098219    -1.073102967266
    H            1.268897884086     1.539796536195     0.281921776178

  Mulliken Charges: (a.u.)
   Center  Symbol    Alpha    Beta     Spin     Total
       1     H     0.45452  0.45452  0.00000  0.09096
       2     C     2.91496  2.91496  0.00000  0.17009
       3     C     3.09343  3.09343  0.00000 -0.18687
       4     O     4.16841  4.16841  0.00000 -0.33681
       5     C     3.08820  3.08820  0.00000 -0.17640
       6     H     0.44837  0.44837  0.00000  0.10326
       7     H     0.43889  0.43889  0.00000  0.12221
       8     C     3.15150  3.15150  0.00000 -0.30300
       9     H     0.44710  0.44710  0.00000  0.10581
      10     H     0.44272  0.44272  0.00000  0.11457
      11     H     0.45566  0.45566  0.00000  0.08868
      12     H     0.44538  0.44538  0.00000  0.10924
      13     H     0.45087  0.45087  0.00000  0.09825

   Total alpha = 20.00000, Total beta = 20.00000, Total charge = -0.00000

*** Psi4 exiting successfully. Buy a developer a beer!
