  ==> Input File <==

--------------------------------------------------------------------------
set {
	reference rhf
	basis cc-pvtz
}

set_num_threads( 4 )
memory 2 gb

molecule MOL {
0 1

H	 0.916015	 -2.632857	 0.633119
C	 0.801864	 -1.910825	 1.452443
C	 -0.447014	 -1.075305	 1.397591
O	 1.631470	 -1.832002	 2.290999
C	 -0.554654	 -0.292621	 0.086567
H	 -0.454748	 -0.413452	 2.253586
H	 -1.295022	 -1.751421	 1.484924
C	 -1.846385	 0.513195	 -0.016346
H	 0.296294	 0.376919	 -0.000273
H	 -0.492703	 -0.980176	 -0.753137
C	 -3.089953	 -0.365049	 -0.098564
H	 -1.798267	 1.154820	 -0.891143
H	 -1.925398	 1.173265	 0.842889
H	 -3.055079	 -1.012299	 -0.968245
H	 -3.988403	 0.236438	 -0.170014
H	 -3.183055	 -0.995885	 0.779079

	symmetry c1
}
set optking {
	frozen_dihedral = ("
		9 5 8 12
	")
}

ee = optimize('scf')
oeprop('DIPOLE', 'QUADRUPOLE', 'MULLIKEN_CHARGES')
f=open( 'psi4out.xyz', 'w' )
f.write( "16  " )
f.write( str(ee) + "\n" )
f.write( MOL.save_string_xyz() )
f.close()
--------------------------------------------------------------------------

    Molecular point group: c1
  Charge       = 0
  Multiplicity = 1
  Basis Set: CC-PVTZ
  Basis Set:
  @DF-RHF Final Energy:  -270.11707255568831
    Total Energy =                       -270.1170725556882530
    Molecular point group: c1
  Basis Set: CC-PVTZ
  Basis Set:
  Basis Set: CC-PVTZ
  Basis Set:
  @DF-RHF Final Energy:  -270.11739156328275
    Total Energy =                       -270.1173915632825810
  Basis Set: CC-PVTZ
  Basis Set:
  Basis Set: CC-PVTZ
  Basis Set:
  @DF-RHF Final Energy:  -270.11759622453212
    Total Energy =                       -270.1175962245321216
  Basis Set: CC-PVTZ
  Basis Set:
  Basis Set: CC-PVTZ
  Basis Set:
  @DF-RHF Final Energy:  -270.11728596105525
    Total Energy =                       -270.1172859610553587
  Basis Set: CC-PVTZ
  Basis Set:
  Basis Set: CC-PVTZ
  Basis Set:
  @DF-RHF Final Energy:  -270.11761614041211
    Total Energy =                       -270.1176161404119398
  Basis Set: CC-PVTZ
  Basis Set:
  Basis Set: CC-PVTZ
  Basis Set:
  @DF-RHF Final Energy:  -270.11761745164517
    Total Energy =                       -270.1176174516451169
  Basis Set: CC-PVTZ
  Basis Set:
  Charge       = 0
  Multiplicity = 1
  Basis Set: CC-PVTZ
  Basis Set:

    Orbital Energies (a.u.)
    -----------------------

    Doubly Occupied:

       1A    -20.551754     2A    -11.321134     3A    -11.234936
       4A    -11.233545     5A    -11.227846     6A    -11.217940
       7A     -1.406573     8A     -1.097686     9A     -1.017311
      10A     -0.914594    11A     -0.809264    12A     -0.792051
      13A     -0.679239    14A     -0.648630    15A     -0.638438
      16A     -0.600128    17A     -0.576045    18A     -0.569476
      19A     -0.522387    20A     -0.520373    21A     -0.489395
      22A     -0.482544    23A     -0.472140    24A     -0.411796

  @DF-RHF Final Energy:  -270.11761786750077

   => Energetics <=

    Nuclear Repulsion Energy =            231.9880734402258327
    One-Electron Energy =                -825.3409374470153352
    Two-Electron Energy =                 323.2352461392887335
    DFT Exchange-Correlation Energy =       0.0000000000000000
    Empirical Dispersion Energy =           0.0000000000000000
    PCM Polarization Energy =               0.0000000000000000
    EFP Energy =                            0.0000000000000000
    Total Energy =                       -270.1176178675008259
    Molecular point group: c1
  Basis Set: CC-PVTZ
  Basis Set:

  -Total Gradient:
     Atom            X                  Y                   Z
    ------   -----------------  -----------------  -----------------
       1       -0.000001907452     0.000005285335    -0.000003405064
       2       -0.000007244256    -0.000014644246    -0.000020426075
       3       -0.000006294063    -0.000003687039     0.000003479420
       4       -0.000009249012     0.000005465777     0.000009522720
       5        0.000035184972     0.000052858667     0.000231483836
       6        0.000009003522     0.000000686624     0.000008005630
       7       -0.000008383561     0.000005257833     0.000008675356
       8       -0.000091805235    -0.000171194349    -0.000158853266
       9       -0.000005045693    -0.000010245062    -0.000181461081
      10        0.000016178322    -0.000000995292    -0.000000348238
      11       -0.000003316171     0.000005645316    -0.000004396427
      12        0.000068917567     0.000123134464     0.000102172121
      13       -0.000002364310     0.000005485278     0.000000715341
      14       -0.000000896676    -0.000002725531     0.000000216309
      15       -0.000002742376    -0.000002017198     0.000001374878
      16        0.000009964422     0.000001689424     0.000003244539

  **** Optimization is complete! (in 7 steps) ****
    Final optimized geometry and variables:
    Molecular point group: c1

    Geometry (in Angstrom), charge = 0, multiplicity = 1:

    H            1.578715156735    -1.771023022898    -0.232526155789
    C            1.431119169921    -1.062260265930     0.593044663681
    C            0.144660067116    -0.285721482905     0.544928031137
    O            2.256301069412    -0.952149142512     1.432520950447
    C            0.014058376437     0.506299364442    -0.760285247716
    H            0.107182814070     0.368960227713     1.406020991313
    H           -0.666027804121    -1.004106839246     0.628673099586
    C           -1.272542219103     1.326362626927    -0.867088385881
    H            0.862657750566     1.177818203845    -0.844803047654
    H            0.076030721371    -0.174663101278    -1.605507259136
    C           -2.550052520350     0.497335889007    -0.966815314431
    H           -1.196736694168     1.960299288552    -1.744404425405
    H           -1.340327530580     1.996296732036    -0.014849946415
    H           -2.507430805612    -0.185744254234    -1.809013843750
    H           -3.411556261306     1.139344398751    -1.107121279922
    H           -2.726586084555    -0.088581626860    -0.072697717880

  Mulliken Charges: (a.u.)
   Center  Symbol    Alpha    Beta     Spin     Total
       1     H     0.46553  0.46553  0.00000  0.06894
       2     C     2.90858  2.90858  0.00000  0.18284
       3     C     3.07865  3.07865  0.00000 -0.15730
       4     O     4.16391  4.16391  0.00000 -0.32782
       5     C     3.10935  3.10935  0.00000 -0.21871
       6     H     0.44262  0.44262  0.00000  0.11476
       7     H     0.44985  0.44985  0.00000  0.10031
       8     C     3.09043  3.09043  0.00000 -0.18087
       9     H     0.44034  0.44034  0.00000  0.11933
      10     H     0.45075  0.45075  0.00000  0.09849
      11     C     3.15261  3.15261  0.00000 -0.30523
      12     H     0.44542  0.44542  0.00000  0.10916
      13     H     0.45062  0.45062  0.00000  0.09876
      14     H     0.45387  0.45387  0.00000  0.09226
      15     H     0.44395  0.44395  0.00000  0.11211
      16     H     0.45352  0.45352  0.00000  0.09297

   Total alpha = 24.00000, Total beta = 24.00000, Total charge = -0.00000
