                              Psi4 1.0.54 Driver

  ==> Input File <==

--------------------------------------------------------------------------
set {
	reference rhf
	basis cc-pvtz
}

set_num_threads( 4 )
memory 2 gb

molecule MOL {
0 1

H	 -1.934986	 0.172589	 -0.524657
N	 -1.173824	 -0.310545	 -0.096857
C	 -0.022588	 0.563366	 0.065815
H	 -1.495765	 -0.643633	 0.788027
C	 1.270420	 -0.230572	 -0.014245
H	 -0.045354	 1.293678	 -0.735129
H	 -0.043155	 1.123061	 1.001180
H	 1.336273	 -0.754933	 -0.959364
H	 2.130728	 0.422015	 0.082222
H	 1.323344	 -0.967006	 0.781773

	symmetry c1
}
set optking {
	frozen_dihedral = ("
		1 2 3 6
	")
}

ee,wfn = optimize('scf', return_wfn=True)
oeprop( wfn, 'DIPOLE', 'QUADRUPOLE', 'MULLIKEN_CHARGES')
f=open( 'psi4out.xyz', 'w' )
f.write( "10  " )
f.write( str(ee) + "\n" )
f.write( MOL.save_string_xyz() )
f.close()
--------------------------------------------------------------------------

    Molecular point group: c1
  Charge       = 0
  Multiplicity = 1
  Basis Set: CC-PVTZ
  Basis Set:
  @DF-RHF Final Energy:  -134.30318318613712
    Total Energy =                       -134.3031831861371757
    Molecular point group: c1
  Basis Set: CC-PVTZ
  Basis Set:
  Basis Set: CC-PVTZ
  Basis Set:
  @DF-RHF Final Energy:  -134.30336919840195
    Total Energy =                       -134.3033691984019811
  Basis Set: CC-PVTZ
  Basis Set:
  Basis Set: CC-PVTZ
  Basis Set:
  @DF-RHF Final Energy:  -134.30342720544814
    Total Energy =                       -134.3034272054480596
  Basis Set: CC-PVTZ
  Basis Set:
  Basis Set: CC-PVTZ
  Basis Set:
  @DF-RHF Final Energy:  -134.30342942561239
    Total Energy =                       -134.3034294256124213
  Basis Set: CC-PVTZ
  Basis Set:
  Charge       = 0
  Multiplicity = 1
  Basis Set: CC-PVTZ
  Basis Set:

    Orbital Energies (a.u.)
    -----------------------

    Doubly Occupied:

       1A    -15.525366     2A    -11.241239     3A    -11.201123
       4A     -1.175704     5A     -0.987368     6A     -0.822361
       7A     -0.671403     8A     -0.626999     9A     -0.575635
      10A     -0.520849    11A     -0.512588    12A     -0.481033
      13A     -0.381656

  @DF-RHF Final Energy:  -134.30342960570582

   => Energetics <=

    Nuclear Repulsion Energy =             83.2842470866088149
    One-Electron Energy =                -345.7287037820404976
    Two-Electron Energy =                 128.1410270897258101
    DFT Exchange-Correlation Energy =       0.0000000000000000
    Empirical Dispersion Energy =           0.0000000000000000
    PCM Polarization Energy =               0.0000000000000000
    EFP Energy =                            0.0000000000000000
    Total Energy =                       -134.3034296057058441
    Molecular point group: c1
  Basis Set: CC-PVTZ
  Basis Set:

  -Total Gradient:
     Atom            X                  Y                   Z
    ------   -----------------  -----------------  -----------------
       1        0.000771341703    -0.000724006126    -0.002422406330
       2       -0.001266694727     0.001247200424     0.003362907218
       3        0.001692263950    -0.002001363681    -0.002357268454
       4        0.000009359109    -0.000000921398     0.000002839557
       5       -0.000006406854     0.000008706441    -0.000006160636
       6       -0.001195048170     0.001477512340     0.001411101884
       7       -0.000015792376     0.000005531342     0.000011911405
       8        0.000008251100    -0.000004840644     0.000001464213
       9        0.000001974334    -0.000011079208    -0.000001747840
      10        0.000000751933     0.000003260510    -0.000002641016

  **** Optimization is complete! (in 5 steps) ****
    Final optimized geometry and variables:
    Molecular point group: c1

    Geometry (in Angstrom), charge = 0, multiplicity = 1:

    H           -1.953657401637     0.221370233151    -0.450998984770
    N           -1.186885160717    -0.279290401461    -0.060137216908
    C            0.000309464012     0.553892958460     0.065507258135
    H           -1.472410794086    -0.663426086142     0.813912299384
    C            1.272476458833    -0.271648544909    -0.034446027026
    H           -0.023691305064     1.295421881278    -0.724662881622
    H            0.010647326187     1.116724350078     0.998376875978
    H            1.314613624805    -0.790172872666    -0.984059617912
    H            2.151692328292     0.357109593983     0.060056659580
    H            1.308960438463    -1.017104314288     0.753102447715

  Mulliken Charges: (a.u.)
   Center  Symbol    Alpha    Beta     Spin     Total
       1     H     0.42556  0.42556  0.00000  0.14889
       2     N     3.69561  3.69561  0.00000 -0.39122
       3     C     3.02705  3.02705  0.00000 -0.05410
       4     H     0.42840  0.42840  0.00000  0.14320
       5     C     3.12820  3.12820  0.00000 -0.25639
       6     H     0.45753  0.45753  0.00000  0.08495
       7     H     0.46615  0.46615  0.00000  0.06769
       8     H     0.45272  0.45272  0.00000  0.09456
       9     H     0.45936  0.45936  0.00000  0.08127
      10     H     0.45942  0.45942  0.00000  0.08115

   Total alpha = 13.00000, Total beta = 13.00000, Total charge = -0.00000

*** Psi4 exiting successfully. Buy a developer a beer!
