  ==> Input File <==

--------------------------------------------------------------------------
set {
	reference rhf
	basis 6-31G*
}

set_num_threads( 4 )
memory 2 gb

molecule MOL {
0 1

O	 -2.439739	 -0.935931	 -0.423848
C	 -1.921153	 0.064240	 -0.045697
C	 -2.624470	 1.379923	 0.150949
O	 -0.632575	 0.154573	 0.251549
H	 -2.168117	 2.136577	 -0.476876
H	 -3.669540	 1.273223	 -0.098610
H	 -2.519365	 1.700893	 1.180846
C	 0.160891	 -1.019931	 0.106212
C	 1.589627	 -0.672828	 0.480843
H	 0.089836	 -1.367806	 -0.916050
H	 -0.238459	 -1.792301	 0.749618
C	 2.246377	 0.346236	 -0.452210
H	 2.163194	 -1.597435	 0.473358
H	 1.604769	 -0.303424	 1.502885
C	 3.562683	 0.887304	 0.104192
H	 2.426320	 -0.117786	 -1.419890
H	 1.559807	 1.168264	 -0.626137
H	 4.007733	 1.607928	 -0.574531
H	 4.283292	 0.088945	 0.257887
H	 3.410384	 1.382844	 1.058825

	symmetry c1
}
set optking {
	frozen_dihedral = ("
		16 12 9 8
	")
}

ee = optimize('scf')
oeprop('DIPOLE', 'QUADRUPOLE', 'MULLIKEN_CHARGES')
f=open( 'psi4out.xyz', 'w' )
f.write( "20  " )
f.write( str(ee) + "\n" )
f.write( MOL.save_string_xyz() )
f.close()
--------------------------------------------------------------------------

    Molecular point group: c1
  Charge       = 0
  Multiplicity = 1
  Basis Set: 6-31G*
  Basis Set:
  @DF-RHF Final Energy:  -383.94510112113039
    Total Energy =                       -383.9451011211301648
    Molecular point group: c1
  Basis Set: 6-31G*
  Basis Set:
  Basis Set: 6-31G*
  Basis Set:
  @DF-RHF Final Energy:  -383.94505154609482
    Total Energy =                       -383.9450515460946463
  Basis Set: 6-31G*
  Basis Set:
  Basis Set: 6-31G*
  Basis Set:
  @DF-RHF Final Energy:  -383.94481051590412
    Total Energy =                       -383.9448105159041233
  Basis Set: 6-31G*
  Basis Set:
  Basis Set: 6-31G*
  Basis Set:
  @DF-RHF Final Energy:  -383.94517714905930
    Total Energy =                       -383.9451771490594183
  Basis Set: 6-31G*
  Basis Set:
  Basis Set: 6-31G*
  Basis Set:
  @DF-RHF Final Energy:  -383.94518406471860
    Total Energy =                       -383.9451840647190011
  Basis Set: 6-31G*
  Basis Set:
  Basis Set: 6-31G*
  Basis Set:
  @DF-RHF Final Energy:  -383.94518599966455
    Total Energy =                       -383.9451859996646590
  Basis Set: 6-31G*
  Basis Set:
  Charge       = 0
  Multiplicity = 1
  Basis Set: 6-31G*
  Basis Set:

    Orbital Energies (a.u.)
    -----------------------

    Doubly Occupied:

       1A    -20.602064     2A    -20.544230     3A    -11.374719
       4A    -11.282387     5A    -11.233582     6A    -11.225410
       7A    -11.220524     8A    -11.213141     9A     -1.468198
      10A     -1.362452    11A     -1.085758    12A     -1.028285
      13A     -0.981300    14A     -0.880060    15A     -0.810787
      16A     -0.775995    17A     -0.689972    18A     -0.683005
      19A     -0.667051    20A     -0.631148    21A     -0.602555
      22A     -0.592269    23A     -0.572794    24A     -0.551132
      25A     -0.541875    26A     -0.532405    27A     -0.512714
      28A     -0.482651    29A     -0.474975    30A     -0.471878
      31A     -0.448792    32A     -0.438916

  @DF-RHF Final Energy:  -383.94518619740171

   => Energetics <=

    Nuclear Repulsion Energy =            385.4973261056907745
    One-Electron Energy =               -1286.9189800047261087
    Two-Electron Energy =                 517.4764677016336236
    DFT Exchange-Correlation Energy =       0.0000000000000000
    Empirical Dispersion Energy =           0.0000000000000000
    PCM Polarization Energy =               0.0000000000000000
    EFP Energy =                            0.0000000000000000
    Total Energy =                       -383.9451861974017675
    Molecular point group: c1
  Basis Set: 6-31G*
  Basis Set:

  -Total Gradient:
     Atom            X                  Y                   Z
    ------   -----------------  -----------------  -----------------
       1        0.000003496320     0.000001962317    -0.000003836037
       2       -0.000014553729    -0.000007619099     0.000034843761
       3        0.000001141337     0.000005438756    -0.000015323959
       4       -0.000006400148    -0.000013395331     0.000012683485
       5       -0.000001859075     0.000003658481     0.000001319189
       6       -0.000000043575     0.000001352296    -0.000000641843
       7        0.000000966073    -0.000003125652    -0.000000313056
       8       -0.000558198313     0.001282821565     0.000879606689
       9        0.001269851038    -0.001905890068    -0.001143754730
      10        0.000004023779    -0.000008175827     0.000012699671
      11       -0.000008524443    -0.000001387100     0.000010667923
      12       -0.002751632098     0.001314547200    -0.000541653982
      13       -0.000003840300     0.000005815804    -0.000008328564
      14        0.000012449685     0.000002174320     0.000010629458
      15       -0.000002312909     0.000003457259     0.000014492101
      16        0.002044350543    -0.000667783271     0.000728217938
      17        0.000008472612    -0.000017566518     0.000005975447
      18       -0.000002961384    -0.000000589795    -0.000000409042
      19       -0.000001126002     0.000000944471    -0.000001276794
      20        0.000006700586     0.000003360195     0.000004402345

  **** Optimization is complete! (in 7 steps) ****
    Final optimized geometry and variables:
    Molecular point group: c1

    Geometry (in Angstrom), charge = 0, multiplicity = 1:

    O           -2.422418903911    -0.967862131256    -0.454868700923
    C           -1.908282241173     0.031498780361    -0.068614069669
    C           -2.618651738678     1.341137986286     0.143202829660
    O           -0.620661434722     0.124916462950     0.231747210140
    H           -2.167396568652     2.106963839358    -0.477124283159
    H           -3.663383327576     1.231151014434    -0.106361044782
    H           -2.514015228982     1.651578380688     1.176389343512
    C            0.178868522265    -1.044051941876     0.076559790548
    C            1.603668733024    -0.691246968096     0.462893592652
    H            0.112380408401    -1.381999275064    -0.949476253353
    H           -0.219175894085    -1.824780944438     0.710575858807
    C            2.269404130141     0.319798656594    -0.474451909781
    H            2.184137789456    -1.610595639373     0.485072649059
    H            1.594424360289    -0.302973835064     1.478093091634
    C            3.592454221313     0.846576482095     0.081980348511
    H            2.459138325870    -0.155679301499    -1.434400501933
    H            1.594892754405     1.149786790549    -0.654834403841
    H            4.061039191121     1.538249307060    -0.610968558118
    H            4.293279271253     0.036498411124     0.264425082222
    H            3.441490682186     1.370287772175     1.021506033687

  Mulliken Charges: (a.u.)
   Center  Symbol    Alpha    Beta     Spin     Total
       1     O     4.28318  4.28318  0.00000 -0.56636
       2     C     2.61926  2.61926  0.00000  0.76149
       3     C     3.28167  3.28167  0.00000 -0.56333
       4     O     4.30844  4.30844  0.00000 -0.61687
       5     H     0.40083  0.40083  0.00000  0.19834
       6     H     0.39682  0.39682  0.00000  0.20637
       7     H     0.40055  0.40055  0.00000  0.19890
       8     C     3.00304  3.00304  0.00000 -0.00608
       9     C     3.16475  3.16475  0.00000 -0.32951
      10     H     0.41073  0.41073  0.00000  0.17855
      11     H     0.40840  0.40840  0.00000  0.18321
      12     C     3.15605  3.15605  0.00000 -0.31210
      13     H     0.41733  0.41733  0.00000  0.16534
      14     H     0.41471  0.41471  0.00000  0.17058
      15     C     3.24050  3.24050  0.00000 -0.48100
      16     H     0.42223  0.42223  0.00000  0.15555
      17     H     0.41153  0.41153  0.00000  0.17695
      18     H     0.41789  0.41789  0.00000  0.16422
      19     H     0.42186  0.42186  0.00000  0.15629
      20     H     0.42026  0.42026  0.00000  0.15948

   Total alpha = 32.00000, Total beta = 32.00000, Total charge =  0.00000
