  ==> Input File <==

--------------------------------------------------------------------------
set {
	reference rhf
	basis cc-pvtz
}

set_num_threads( 4 )
memory 2 gb

molecule MOL {
0 1

H	 -2.816458	 -0.841657	 -0.064679
N	 -1.878861	 -0.711874	 0.250184
C	 -1.341419	 0.551458	 -0.220231
H	 -1.333674	 -1.468530	 -0.105118
C	 -1.318587	 0.587986	 -1.731122
H	 -1.896814	 1.418169	 0.135989
H	 -0.322006	 0.649406	 0.136496
O	 -2.631781	 0.551352	 -2.202172
H	 -0.824382	 1.496914	 -2.071393
H	 -0.760269	 -0.265520	 -2.108929
C	 -2.746601	 0.510558	 -3.585780
H	 -3.798492	 0.488000	 -3.831548
H	 -2.298833	 1.387784	 -4.048030
H	 -2.271068	 -0.376061	 -3.998498

	symmetry c1
}
set optking {
	frozen_dihedral = ("
		6 3 2 4
	")
}

ee = optimize('scf')
oeprop('DIPOLE', 'QUADRUPOLE', 'MULLIKEN_CHARGES')
f=open( 'psi4out.xyz', 'w' )
f.write( "14  " )
f.write( str(ee) + "\n" )
f.write( MOL.save_string_xyz() )
f.close()
--------------------------------------------------------------------------

    Molecular point group: c1
  Charge       = 0
  Multiplicity = 1
  Basis Set: CC-PVTZ
  Basis Set:
  @DF-RHF Final Energy:  -248.22357985171899
    Total Energy =                       -248.2235798517189096
    Molecular point group: c1
  Basis Set: CC-PVTZ
  Basis Set:
  Basis Set: CC-PVTZ
  Basis Set:
  @DF-RHF Final Energy:  -248.22552747057790
    Total Energy =                       -248.2255274705778447
  Basis Set: CC-PVTZ
  Basis Set:
  Basis Set: CC-PVTZ
  Basis Set:
  @DF-RHF Final Energy:  -248.22576130188153
    Total Energy =                       -248.2257613018816755
  Basis Set: CC-PVTZ
  Basis Set:
  Basis Set: CC-PVTZ
  Basis Set:
  @DF-RHF Final Energy:  -248.22576440654882
    Total Energy =                       -248.2257644065488194
  Basis Set: CC-PVTZ
  Basis Set:
  Charge       = 0
  Multiplicity = 1
  Basis Set: CC-PVTZ
  Basis Set:

    Orbital Energies (a.u.)
    -----------------------

    Doubly Occupied:

       1A    -20.553974     2A    -15.524513     3A    -11.266934
       4A    -11.266890     5A    -11.240458     6A     -1.388119
       7A     -1.177285     8A     -1.001179     9A     -0.909987
      10A     -0.823713    11A     -0.687021    12A     -0.673004
      13A     -0.646223    14A     -0.638460    15A     -0.584932
      16A     -0.549829    17A     -0.523863    18A     -0.508049
      19A     -0.480311    20A     -0.423503    21A     -0.384141

  @DF-RHF Final Energy:  -248.22576464223394

   => Energetics <=

    Nuclear Repulsion Energy =            194.3254106471945022
    One-Electron Energy =                -722.5975685041870520
    Two-Electron Energy =                 280.0463932147585524
    DFT Exchange-Correlation Energy =       0.0000000000000000
    Empirical Dispersion Energy =           0.0000000000000000
    PCM Polarization Energy =               0.0000000000000000
    EFP Energy =                            0.0000000000000000
    Total Energy =                       -248.2257646422339690
    Molecular point group: c1
  Basis Set: CC-PVTZ
  Basis Set:

  -Total Gradient:
     Atom            X                  Y                   Z
    ------   -----------------  -----------------  -----------------
       1       -0.000018703805    -0.000017966909     0.000003193712
       2        0.000457979744     0.000059246814     0.000582008580
       3        0.000412138578     0.000029109837     0.000481422806
       4       -0.000448946179    -0.000045027401    -0.000569405949
       5        0.000062116730     0.000006367542     0.000032506363
       6       -0.000410634898    -0.000043118415    -0.000528823004
       7       -0.000000758999     0.000002214989    -0.000012996092
       8       -0.000032626896    -0.000006585132    -0.000004673688
       9       -0.000008437620     0.000005451466    -0.000006894184
      10       -0.000018679072     0.000009531623     0.000013727795
      11        0.000007742306     0.000002898031     0.000004139496
      12       -0.000001297540    -0.000000464447     0.000002316977
      13       -0.000000336652     0.000000069663     0.000001183691
      14        0.000000444303    -0.000001727661     0.000002293494

  **** Optimization is complete! (in 5 steps) ****
    Final optimized geometry and variables:
    Molecular point group: c1

    Geometry (in Angstrom), charge = 0, multiplicity = 1:

    H           -0.831188266678    -1.088288088650     1.555997064115
    N            0.114104132428    -0.968462684269     1.853587453493
    C            0.661621365070     0.245876991386     1.282354331085
    H            0.620782448098    -1.770343855088     1.539925935062
    C            0.675684605447     0.304533058864    -0.234167158186
    H            0.081959667741     1.084364932574     1.649991212983
    H            1.676574449687     0.376648851280     1.641793503608
    O           -0.634427982521     0.237685558142    -0.704297237768
    H            1.148114483786     1.229804527228    -0.563994168318
    H            1.260184263950    -0.523916302778    -0.636919349490
    C           -0.755534999170     0.255545888408    -2.087813323942
    H           -1.806906417793     0.199394277117    -2.330070840865
    H           -0.347534947580     1.170519189927    -2.511551422510
    H           -0.245603277555    -0.590645354648    -2.543206531549

  Mulliken Charges: (a.u.)
   Center  Symbol    Alpha    Beta     Spin     Total
       1     H     0.42486  0.42486  0.00000  0.15028
       2     N     3.68736  3.68736  0.00000 -0.37472
       3     C     3.02992  3.02992  0.00000 -0.05983
       4     H     0.43479  0.43479  0.00000  0.13042
       5     C     2.96974  2.96974  0.00000  0.06052
       6     H     0.45253  0.45253  0.00000  0.09495
       7     H     0.45443  0.45443  0.00000  0.09114
       8     O     4.17614  4.17614  0.00000 -0.35229
       9     H     0.47161  0.47161  0.00000  0.05678
      10     H     0.47841  0.47841  0.00000  0.04318
      11     C     3.03113  3.03113  0.00000 -0.06226
      12     H     0.44717  0.44717  0.00000  0.10565
      13     H     0.47042  0.47042  0.00000  0.05915
      14     H     0.47148  0.47148  0.00000  0.05704

   Total alpha = 21.00000, Total beta = 21.00000, Total charge = -0.00000
