  ==> Input File <==

--------------------------------------------------------------------------
set {
	reference rhf
	basis 6-31G*
}

set_num_threads( 1 )
memory 2 gb

molecule MOL {
0 1

H	 -0.000158	 1.970498	 0.756846
O	 -0.000074	 1.880206	 -0.189275
C	 -0.000015	 0.544847	 -0.545111
C	 -1.278788	 -0.123820	 -0.051541
C	 1.278802	 -0.123718	 -0.051505
H	 -0.000001	 0.490777	 -1.623619
F	 -1.125299	 -1.430703	 -0.058110
F	 -1.593259	 0.243324	 1.172662
F	 -2.297870	 0.167089	 -0.844284
F	 2.323327	 0.466644	 -0.591854
F	 1.326242	 -1.401483	 -0.363667
F	 1.388946	 -0.015632	 1.262939

	symmetry c1
}
set optking {
	frozen_dihedral = ("
		6 3 2 1
	")
}

ee = energy('scf')
oeprop('DIPOLE', 'QUADRUPOLE', 'MULLIKEN_CHARGES')
f=open( 'psi4out.xyz', 'w' )
f.write( "12  " )
f.write( str(ee) + "\n" )
f.write( MOL.save_string_xyz() )
f.close()
--------------------------------------------------------------------------

    Molecular point group: c1

    Geometry (in Angstrom), charge = 0, multiplicity = 1:

       Center              X                  Y                   Z               Mass
    ------------   -----------------  -----------------  -----------------  -----------------
           H         -0.002647639371     1.978351139378     0.761035055382     1.007825032070
           O         -0.002563639371     1.888059139378    -0.185085944618    15.994914619560
           C         -0.002504639371     0.552700139378    -0.540921944618    12.000000000000
           C         -1.281277639371    -0.115966860622    -0.047351944618    12.000000000000
           C          1.276312360629    -0.115864860622    -0.047315944618    12.000000000000
           H         -0.002490639371     0.498630139378    -1.619429944618     1.007825032070
           F         -1.127788639371    -1.422849860622    -0.053920944618    18.998403224000
           F         -1.595748639371     0.251177139378     1.176851055382    18.998403224000
           F         -2.300359639371     0.174942139378    -0.840094944618    18.998403224000
           F          2.320837360629     0.474497139378    -0.587664944618    18.998403224000
           F          1.323752360629    -1.393629860622    -0.359477944618    18.998403224000
           F          1.386456360629    -0.007778860622     1.267128055382    18.998403224000

  Charge       = 0
  Multiplicity = 1
  Basis Set: 6-31G*
  Basis Set:

    Orbital Energies (a.u.)
    -----------------------

    Doubly Occupied:

       1A    -26.367004     2A    -26.363669     3A    -26.358911
       4A    -26.358832     5A    -26.358078     6A    -26.357976
       7A    -20.615957     8A    -11.526174     9A    -11.525316
      10A    -11.348769    11A     -1.765330    12A     -1.758481
      13A     -1.663689    14A     -1.658067    15A     -1.657426
      16A     -1.652974    17A     -1.434844    18A     -1.101677
      19A     -0.996930    20A     -0.938820    21A     -0.864237
      22A     -0.862191    23A     -0.851919    24A     -0.844523
      25A     -0.832665    26A     -0.816665    27A     -0.743444
      28A     -0.727060    29A     -0.724358    30A     -0.718284
      31A     -0.689416    32A     -0.687264    33A     -0.682571
      34A     -0.675557    35A     -0.667713    36A     -0.662184
      37A     -0.655082    38A     -0.652416    39A     -0.622481
      40A     -0.550695    41A     -0.505091

  @DF-RHF Final Energy:  -786.27546556547213

   => Energetics <=

    Nuclear Repulsion Energy =            671.1045643497832316
    One-Electron Energy =               -2429.0703866500125514
    Two-Electron Energy =                 971.6903567347569606
    DFT Exchange-Correlation Energy =       0.0000000000000000
    Empirical Dispersion Energy =           0.0000000000000000
    PCM Polarization Energy =               0.0000000000000000
    EFP Energy =                            0.0000000000000000
    Total Energy =                       -786.2754655654723592

  Mulliken Charges: (a.u.)
   Center  Symbol    Alpha    Beta     Spin     Total
       1     H     0.26534  0.26534  0.00000  0.46932
       2     O     4.36373  4.36373  0.00000 -0.72745
       3     C     3.05494  3.05494  0.00000 -0.10987
       4     C     2.43873  2.43873  0.00000  1.12253
       5     C     2.44513  2.44513  0.00000  1.10973
       6     H     0.37330  0.37330  0.00000  0.25340
       7     F     4.67479  4.67479  0.00000 -0.34959
       8     F     4.67655  4.67655  0.00000 -0.35309
       9     F     4.67828  4.67828  0.00000 -0.35656
      10     F     4.67498  4.67498  0.00000 -0.34996
      11     F     4.67303  4.67303  0.00000 -0.34607
      12     F     4.68120  4.68120  0.00000 -0.36240

   Total alpha = 41.00000, Total beta = 41.00000, Total charge = -0.00000
