  ==> Input File <==

--------------------------------------------------------------------------
set {
	reference rhf
	basis 6-31G*
}

set_num_threads( 4 )
memory 2 gb

molecule MOL {
0 1

H	 -2.843836	 -0.731819	 -2.888985
O	 -2.684195	 -0.785004	 -1.957540
C	 -1.398799	 -0.297448	 -1.670075
C	 -1.177863	 -0.397191	 -0.171080
H	 -0.642426	 -0.876783	 -2.197880
H	 -1.300659	 0.738053	 -1.993257
C	 0.198102	 0.111031	 0.262842
H	 -1.304058	 -1.435112	 0.124761
H	 -1.960721	 0.167040	 0.328173
C	 1.331804	 -0.827780	 -0.158768
H	 0.361943	 1.100838	 -0.156218
H	 0.217265	 0.229072	 1.345532
C	 2.723619	 -0.410569	 0.329459
H	 1.342964	 -0.912588	 -1.244120
H	 1.116806	 -1.824343	 0.220779
C	 3.243875	 0.895854	 -0.272975
H	 3.424222	 -1.207124	 0.091250
H	 2.714788	 -0.329854	 1.414619
H	 3.251977	 0.848779	 -1.358681
H	 2.637085	 1.747371	 0.016682
H	 4.259473	 1.094070	 0.055697

	symmetry c1
}
set optking {
	frozen_dihedral = ("
		8 4 7 10
	")
}

ee = optimize('scf')
oeprop('DIPOLE', 'QUADRUPOLE', 'MULLIKEN_CHARGES')
f=open( 'psi4out.xyz', 'w' )
f.write( "21  " )
f.write( str(ee) + "\n" )
f.write( MOL.save_string_xyz() )
f.close()
--------------------------------------------------------------------------

    Molecular point group: c1
  Charge       = 0
  Multiplicity = 1
  Basis Set: 6-31G*
  Basis Set:
  @DF-RHF Final Energy:  -310.21055180732060
    Total Energy =                       -310.2105518073203712
    Molecular point group: c1
  Basis Set: 6-31G*
  Basis Set:
  Basis Set: 6-31G*
  Basis Set:
  @DF-RHF Final Energy:  -310.21090865732066
    Total Energy =                       -310.2109086573206014
  Basis Set: 6-31G*
  Basis Set:
  Basis Set: 6-31G*
  Basis Set:
  @DF-RHF Final Energy:  -310.21104869324159
    Total Energy =                       -310.2110486932412527
  Basis Set: 6-31G*
  Basis Set:
  Basis Set: 6-31G*
  Basis Set:
  @DF-RHF Final Energy:  -310.21104642462018
    Total Energy =                       -310.2110464246201218
  Basis Set: 6-31G*
  Basis Set:
  Basis Set: 6-31G*
  Basis Set:
  @DF-RHF Final Energy:  -310.21105735015112
    Total Energy =                       -310.2110573501512363
  Basis Set: 6-31G*
  Basis Set:
  Basis Set: 6-31G*
  Basis Set:
  @DF-RHF Final Energy:  -310.21105989563006
    Total Energy =                       -310.2110598956298873
  Basis Set: 6-31G*
  Basis Set:
  Charge       = 0
  Multiplicity = 1
  Basis Set: 6-31G*
  Basis Set:

    Orbital Energies (a.u.)
    -----------------------

    Doubly Occupied:

       1A    -20.551555     2A    -11.266443     3A    -11.216195
       4A    -11.215858     5A    -11.214756     6A    -11.210829
       7A    -11.209171     8A     -1.358280     9A     -1.086490
      10A     -1.032245    11A     -0.952065    12A     -0.881885
      13A     -0.812282    14A     -0.771993    15A     -0.694429
      16A     -0.652177    17A     -0.628076    18A     -0.608396
      19A     -0.591418    20A     -0.552782    21A     -0.551565
      22A     -0.519404    23A     -0.510912    24A     -0.497022
      25A     -0.476231    26A     -0.457111    27A     -0.452225
      28A     -0.447342    29A     -0.431523

  @DF-RHF Final Energy:  -310.21105996215209

   => Energetics <=

    Nuclear Repulsion Energy =            316.2429568823428667
    One-Electron Energy =               -1047.2067182259565925
    Two-Electron Energy =                 420.7527013814615202
    DFT Exchange-Correlation Energy =       0.0000000000000000
    Empirical Dispersion Energy =           0.0000000000000000
    PCM Polarization Energy =               0.0000000000000000
    EFP Energy =                            0.0000000000000000
    Total Energy =                       -310.2110599621521487
    Molecular point group: c1
  Basis Set: 6-31G*
  Basis Set:

  -Total Gradient:
     Atom            X                  Y                   Z
    ------   -----------------  -----------------  -----------------
       1        0.000016662667     0.000008632793     0.000009163384
       2       -0.000011851472    -0.000005294377     0.000036448180
       3        0.000010635773    -0.000036197135    -0.000049148341
       4       -0.000490176181     0.000266551578     0.001261150006
       5       -0.000002310163     0.000006376911    -0.000002573484
       6        0.000011516223     0.000001631125     0.000031748380
       7        0.000178365406     0.000412204025    -0.001072400519
       8        0.000338600305    -0.000293507479    -0.000835455918
       9       -0.000011421431    -0.000001771385     0.000015266647
      10       -0.000010979295    -0.000364745112     0.000613213804
      11       -0.000003703165     0.000026948375     0.000013602948
      12       -0.000022713495    -0.000004710100    -0.000024518125
      13       -0.000003453745     0.000001078273    -0.000026691849
      14        0.000013792238     0.000001691615     0.000018265157
      15        0.000015863719    -0.000013456069     0.000002451036
      16       -0.000004233069    -0.000013979833     0.000000854968
      17        0.000000913124     0.000003085815     0.000000060041
      18       -0.000011149669     0.000004104195     0.000000612105
      19       -0.000010986814    -0.000001636337     0.000004079288
      20       -0.000010368414     0.000007363215     0.000006505229
      21        0.000006997476    -0.000004370091    -0.000002632939

  **** Optimization is complete! (in 7 steps) ****
    Final optimized geometry and variables:
    Molecular point group: c1

    Geometry (in Angstrom), charge = 0, multiplicity = 1:

    H           -3.237594702451    -0.495209442651    -2.255979283356
    O           -3.038148271124    -0.513414708272    -1.330893788487
    C           -1.716421381197    -0.083784191157    -1.124294466197
    C           -1.433463075743    -0.152024090369     0.367965794015
    H           -1.023540794239    -0.713120435306    -1.678128903427
    H           -1.585884083246     0.938103219806    -1.478764398174
    C           -0.040749076880     0.351835184809     0.764810221251
    H           -1.567138977699    -1.180344348768     0.692456817092
    H           -2.192898903147     0.437957701971     0.872051685804
    C            1.107822836226    -0.582462898694     0.365923411333
    H            0.115195199979     1.342324104669     0.343932627734
    H           -0.020039852336     0.477821255836     1.845060706153
    C            2.478278108395    -0.166199283964     0.912697900020
    H            1.171583309228    -0.659128840868    -0.717573558298
    H            0.880634669725    -1.582945493807     0.728135344476
    C            3.013483756370     1.151191055867     0.348496332205
    H            3.191776141356    -0.955997868322     0.690774928821
    H            2.426815734125    -0.100142475648     1.997573984445
    H            3.062523528574     1.119596396964    -0.736812417411
    H            2.391356274511     1.995186426701     0.627276643704
    H            4.015032709644     1.349809001948     0.717446669740

  Mulliken Charges: (a.u.)
   Center  Symbol    Alpha    Beta     Spin     Total
       1     H     0.28129  0.28129  0.00000  0.43742
       2     O     4.37190  4.37190  0.00000 -0.74380
       3     C     2.99169  2.99169  0.00000  0.01663
       4     C     3.16014  3.16014  0.00000 -0.32029
       5     H     0.43104  0.43104  0.00000  0.13791
       6     H     0.43320  0.43320  0.00000  0.13359
       7     C     3.16400  3.16400  0.00000 -0.32800
       8     H     0.41541  0.41541  0.00000  0.16918
       9     H     0.41234  0.41234  0.00000  0.17531
      10     C     3.15398  3.15398  0.00000 -0.30796
      11     H     0.42158  0.42158  0.00000  0.15684
      12     H     0.41922  0.41922  0.00000  0.16156
      13     C     3.15226  3.15226  0.00000 -0.30452
      14     H     0.42478  0.42478  0.00000  0.15043
      15     H     0.42062  0.42062  0.00000  0.15876
      16     C     3.24128  3.24128  0.00000 -0.48255
      17     H     0.42080  0.42080  0.00000  0.15840
      18     H     0.42282  0.42282  0.00000  0.15437
      19     H     0.42297  0.42297  0.00000  0.15407
      20     H     0.41975  0.41975  0.00000  0.16049
      21     H     0.41893  0.41893  0.00000  0.16215

   Total alpha = 29.00000, Total beta = 29.00000, Total charge = -0.00000
