  ==> Input File <==

--------------------------------------------------------------------------
set {
	reference rhf
	basis 6-31G*
}

set_num_threads( 4 )
memory 2 gb

molecule MOL {
0 1

H	 -1.732195	 1.155201	 -0.175331
N	 -1.852125	 0.165761	 -0.074816
C	 -0.563778	 -0.502042	 0.037919
H	 -2.341850	 -0.150944	 -0.890061
C	 0.575259	 0.508231	 -0.048326
H	 -0.482092	 -1.204004	 -0.786564
H	 -0.460411	 -1.085169	 0.956626
C	 1.954651	 -0.143624	 0.035137
H	 0.475158	 1.060484	 -0.977307
H	 0.469181	 1.234488	 0.755973
H	 2.103292	 -0.853109	 -0.774172
H	 2.742821	 0.599562	 -0.030094
H	 2.083613	 -0.679371	 0.971560

	symmetry c1
}
set optking {
	frozen_dihedral = ("
		1 2 3 6
	")
}

ee = optimize('scf')
oeprop('DIPOLE', 'QUADRUPOLE', 'MULLIKEN_CHARGES')
f=open( 'psi4out.xyz', 'w' )
f.write( "13  " )
f.write( str(ee) + "\n" )
f.write( MOL.save_string_xyz() )
f.close()
--------------------------------------------------------------------------

    Molecular point group: c1
  Charge       = 0
  Multiplicity = 1
  Basis Set: 6-31G*
  Basis Set:
  @DF-RHF Final Energy:  -173.27666355337701
    Total Energy =                       -173.2766635533770909
    Molecular point group: c1
  Basis Set: 6-31G*
  Basis Set:
  Basis Set: 6-31G*
  Basis Set:
  @DF-RHF Final Energy:  -173.27783391594713
    Total Energy =                       -173.2778339159471557
  Basis Set: 6-31G*
  Basis Set:
  Basis Set: 6-31G*
  Basis Set:
  @DF-RHF Final Energy:  -173.27802773237215
    Total Energy =                       -173.2780277323721521
  Basis Set: 6-31G*
  Basis Set:
  Basis Set: 6-31G*
  Basis Set:
  @DF-RHF Final Energy:  -173.27803027134803
    Total Energy =                       -173.2780302713479728
  Basis Set: 6-31G*
  Basis Set:
  Basis Set: 6-31G*
  Basis Set:
  @DF-RHF Final Energy:  -173.27803128481639
    Total Energy =                       -173.2780312848164215
  Basis Set: 6-31G*
  Basis Set:
  Charge       = 0
  Multiplicity = 1
  Basis Set: 6-31G*
  Basis Set:

    Orbital Energies (a.u.)
    -----------------------

    Doubly Occupied:

       1A    -15.529022     2A    -11.239792     3A    -11.219160
       4A    -11.212865     5A     -1.173357     6A     -1.038306
       7A     -0.900088     8A     -0.807684     9A     -0.661124
      10A     -0.626529    11A     -0.604959    12A     -0.553968
      13A     -0.546410    14A     -0.499049    15A     -0.483339
      16A     -0.471251    17A     -0.374308

  @DF-RHF Final Energy:  -173.27803151527721

   => Energetics <=

    Nuclear Repulsion Energy =            131.6969445601527298
    One-Electron Energy =                -494.0675260937107964
    Two-Electron Energy =                 189.0925500182807468
    DFT Exchange-Correlation Energy =       0.0000000000000000
    Empirical Dispersion Energy =           0.0000000000000000
    PCM Polarization Energy =               0.0000000000000000
    EFP Energy =                            0.0000000000000000
    Total Energy =                       -173.2780315152772914
    Molecular point group: c1
  Basis Set: 6-31G*
  Basis Set:

  -Total Gradient:
     Atom            X                  Y                   Z
    ------   -----------------  -----------------  -----------------
       1        0.000011025965     0.000001900494     0.000035021215
       2       -0.000007100292    -0.000013643424    -0.000029562138
       3        0.000034997998     0.000026481472    -0.000022985908
       4        0.000009713719    -0.000004357678    -0.000006701156
       5       -0.000039485626    -0.000001024774     0.000003447118
       6       -0.000026973388    -0.000020305768     0.000010760775
       7       -0.000007147243     0.000004690059     0.000007669766
       8        0.000012151889     0.000005461056    -0.000002727159
       9        0.000003747694    -0.000001238331     0.000007662154
      10        0.000005292171     0.000002743147    -0.000003243991
      11       -0.000004797535     0.000000449043    -0.000000214846
      12        0.000008870673    -0.000005242754    -0.000000625393
      13       -0.000000296030     0.000004087458     0.000001499565

  **** Optimization is complete! (in 6 steps) ****
    Final optimized geometry and variables:
    Molecular point group: c1

    Geometry (in Angstrom), charge = 0, multiplicity = 1:

    H           -1.802738272078     1.134580934375    -0.114849031404
    N           -1.882140967414     0.142477310759    -0.014554268417
    C           -0.569023982425    -0.499180363220     0.025606984296
    H           -2.434048890650    -0.189540715925    -0.778456865039
    C            0.583432932256     0.500707589497    -0.039778633218
    H           -0.469455108823    -1.208152056809    -0.793431878883
    H           -0.482457304294    -1.076635256213     0.942503130463
    C            1.953975228683    -0.162905996315     0.083056169523
    H            0.524702608108     1.051650608546    -0.976448618228
    H            0.460870491049     1.229807809823     0.758776130505
    H            2.117536719384    -0.878316926797    -0.717956889336
    H            2.750552870513     0.572554963275     0.036386824593
    H            2.048949545156    -0.694069653220     1.025503114857

  Mulliken Charges: (a.u.)
   Center  Symbol    Alpha    Beta     Spin     Total
       1     H     0.33145  0.33145  0.00000  0.33710
       2     N     3.93234  3.93234  0.00000 -0.86468
       3     C     3.04469  3.04469  0.00000 -0.08938
       4     H     0.33147  0.33147  0.00000  0.33705
       5     C     3.16748  3.16748  0.00000 -0.33496
       6     H     0.42874  0.42874  0.00000  0.14251
       7     H     0.42086  0.42086  0.00000  0.15828
       8     C     3.24265  3.24265  0.00000 -0.48531
       9     H     0.42413  0.42413  0.00000  0.15174
      10     H     0.41908  0.41908  0.00000  0.16184
      11     H     0.42099  0.42099  0.00000  0.15801
      12     H     0.41741  0.41741  0.00000  0.16518
      13     H     0.41870  0.41870  0.00000  0.16260

   Total alpha = 17.00000, Total beta = 17.00000, Total charge =  0.00000
