                              Psi4 1.0.54 Driver

  ==> Input File <==

--------------------------------------------------------------------------
set {
	reference rhf
	basis cc-pvtz
}

set_num_threads( 4 )
memory 2 gb

molecule MOL {
0 1

H	 -0.000105	 1.988529	 0.748933
O	 -0.000098	 1.879786	 -0.188206
C	 -0.000014	 0.545691	 -0.532416
C	 -1.286000	 -0.125171	 -0.046657
C	 1.286016	 -0.125031	 -0.046584
H	 0.000021	 0.481103	 -1.610604
F	 -1.628582	 -1.067154	 -0.890556
F	 -1.145799	 -0.674243	 1.133417
F	 -2.280024	 0.734634	 0.016801
F	 2.317750	 0.468717	 -0.594166
F	 1.336617	 -1.393765	 -0.365123
F	 1.414467	 -0.024806	 1.259108

	symmetry c1
}
set optking {
	frozen_dihedral = ("
		7 4 3 6
	")
}

ee,wfn = optimize('scf', return_wfn=True)
oeprop( wfn, 'DIPOLE', 'QUADRUPOLE', 'MULLIKEN_CHARGES')
f=open( 'psi4out.xyz', 'w' )
f.write( "12  " )
f.write( str(ee) + "\n" )
f.write( MOL.save_string_xyz() )
f.close()
--------------------------------------------------------------------------

    Molecular point group: c1
  Charge       = 0
  Multiplicity = 1
  Basis Set: CC-PVTZ
  Basis Set:
  @DF-RHF Final Energy:  -786.58516224788775
    Total Energy =                       -786.5851622478878653
    Molecular point group: c1
  Basis Set: CC-PVTZ
  Basis Set:
  Basis Set: CC-PVTZ
  Basis Set:
  @DF-RHF Final Energy:  -786.58641928972145
    Total Energy =                       -786.5864192897215617
  Basis Set: CC-PVTZ
  Basis Set:
  Basis Set: CC-PVTZ
  Basis Set:
  @DF-RHF Final Energy:  -786.58679623475837
    Total Energy =                       -786.5867962347587081
  Basis Set: CC-PVTZ
  Basis Set:
  Basis Set: CC-PVTZ
  Basis Set:
  @DF-RHF Final Energy:  -786.58687211659685
    Total Energy =                       -786.5868721165970783
  Basis Set: CC-PVTZ
  Basis Set:
  Basis Set: CC-PVTZ
  Basis Set:
  @DF-RHF Final Energy:  -786.58689556050490
    Total Energy =                       -786.5868955605048995
  Basis Set: CC-PVTZ
  Basis Set:
  Basis Set: CC-PVTZ
  Basis Set:
  @DF-RHF Final Energy:  -786.58690523846190
    Total Energy =                       -786.5869052384616680
  Basis Set: CC-PVTZ
  Basis Set:
  Charge       = 0
  Multiplicity = 1
  Basis Set: CC-PVTZ
  Basis Set:

    Orbital Energies (a.u.)
    -----------------------

    Doubly Occupied:

       1A    -26.358653     2A    -26.358411     3A    -26.357225
       4A    -26.354851     5A    -26.354352     6A    -26.352521
       7A    -20.610829     8A    -11.519407     9A    -11.518964
      10A    -11.351463    11A     -1.771737    12A     -1.765577
      13A     -1.666603    14A     -1.664546    15A     -1.661954
      16A     -1.659834    17A     -1.440847    18A     -1.103289
      19A     -1.000460    20A     -0.944400    21A     -0.870785
      22A     -0.868273    23A     -0.858065    24A     -0.852910
      25A     -0.839479    26A     -0.820508    27A     -0.744460
      28A     -0.735337    29A     -0.733730    30A     -0.728259
      31A     -0.695738    32A     -0.692011    33A     -0.690155
      34A     -0.681975    35A     -0.676673    36A     -0.667080
      37A     -0.664639    38A     -0.657739    39A     -0.623745
      40A     -0.552271    41A     -0.509876

  @DF-RHF Final Energy:  -786.58690601538422

   => Energetics <=

    Nuclear Repulsion Energy =            671.2595878606035740
    One-Electron Energy =               -2429.7337203240922463
    Two-Electron Energy =                 971.8872264481053662
    DFT Exchange-Correlation Energy =       0.0000000000000000
    Empirical Dispersion Energy =           0.0000000000000000
    PCM Polarization Energy =               0.0000000000000000
    EFP Energy =                            0.0000000000000000
    Total Energy =                       -786.5869060153834198
    Molecular point group: c1
  Basis Set: CC-PVTZ
  Basis Set:

  -Total Gradient:
     Atom            X                  Y                   Z
    ------   -----------------  -----------------  -----------------
       1       -0.000003178374    -0.000031559063    -0.000030675264
       2        0.000005301994    -0.000047513013    -0.000025647508
       3       -0.003452211649     0.005498818716    -0.000769380089
       4        0.003267990308    -0.004076095475     0.002528440898
       5       -0.000010583113     0.000059406477    -0.000001553880
       6        0.002392343715    -0.003897974973     0.000189466578
       7       -0.002148671966     0.002563623743    -0.001958766741
       8        0.000027438204    -0.000047414495     0.000097165808
       9       -0.000026707052     0.000025081085    -0.000017038486
      10       -0.000026626792     0.000006260251     0.000012303903
      11       -0.000014090067    -0.000047482864     0.000008002924
      12       -0.000011005228    -0.000005150396    -0.000032318133

  **** Optimization is complete! (in 7 steps) ****
    Final optimized geometry and variables:
    Molecular point group: c1

    Geometry (in Angstrom), charge = 0, multiplicity = 1:

    H            0.045717414868     2.007390220349     0.831148943133
    O            0.008936468930     1.924785460186    -0.107634027164
    C           -0.002409692395     0.607276343237    -0.496243416256
    C           -1.275877238642    -0.138864850530    -0.057440171162
    C            1.274407993796    -0.097504810220    -0.034393923684
    H            0.020238730679     0.563358201390    -1.574641197830
    F           -1.571438786308    -1.082891874277    -0.919274994533
    F           -1.166298793531    -0.684935621749     1.132084128961
    F           -2.289601291784     0.689727162301    -0.018388268664
    F            2.307523057619     0.396443514837    -0.671495544937
    F            1.228356688049    -1.385598574359    -0.273757033491
    F            1.482886665247     0.076113114022     1.252338981510

  Mulliken Charges: (a.u.)
   Center  Symbol    Alpha    Beta     Spin     Total
       1     H     0.38339  0.38339  0.00000  0.23321
       2     O     4.18421  4.18421  0.00000 -0.36843
       3     C     3.01030  3.01030  0.00000 -0.02061
       4     C     2.68094  2.68094  0.00000  0.63812
       5     C     2.68111  2.68111  0.00000  0.63777
       6     H     0.42743  0.42743  0.00000  0.14514
       7     F     4.60632  4.60632  0.00000 -0.21264
       8     F     4.60646  4.60646  0.00000 -0.21291
       9     F     4.60145  4.60145  0.00000 -0.20291
      10     F     4.60249  4.60249  0.00000 -0.20497
      11     F     4.60492  4.60492  0.00000 -0.20985
      12     F     4.61096  4.61096  0.00000 -0.22193

   Total alpha = 41.00000, Total beta = 41.00000, Total charge =  0.00000

*** Psi4 exiting successfully. Buy a developer a beer!
