  ==> Input File <==

--------------------------------------------------------------------------
set {
	reference rhf
	basis 6-31G*
}

set_num_threads( 1 )
memory 2 gb

molecule MOL {
0 1

H	 -1.959655	 1.001117	 -3.091395
C	 -2.485706	 0.332140	 -2.399034
C	 -1.751392	 -0.940230	 -2.060702
O	 -3.554244	 0.632079	 -1.974755
C	 -0.318617	 -0.681425	 -1.574461
H	 -2.330548	 -1.483676	 -1.323169
H	 -1.718362	 -1.541495	 -2.968471
C	 -0.252658	 0.041456	 -0.226725
H	 0.196079	 -1.634602	 -1.498134
H	 0.219678	 -0.106304	 -2.326280
C	 1.180775	 0.282413	 0.250794
H	 -0.789944	 -0.543023	 0.517288
H	 -0.773303	 0.994880	 -0.293435
C	 2.148627	 -0.814315	 -0.201312
H	 1.516199	 1.249228	 -0.115937
H	 1.192670	 0.346017	 1.338083
C	 3.580890	 -0.659131	 0.322722
H	 2.166869	 -0.852443	 -1.289387
H	 1.762857	 -1.776509	 0.128956
C	 4.324889	 0.564933	 -0.213704
H	 4.142010	 -1.551473	 0.056605
H	 3.564836	 -0.624694	 1.410140
H	 4.342616	 0.565491	 -1.300421
H	 3.866655	 1.493402	 0.110242
H	 5.353900	 0.572371	 0.132816

	symmetry c1
}
set optking {
	frozen_dihedral = ("
		6 3 5 8,
		6 3 2 4,
		3 5 8 12,
		8 11 14 18,
		20 17 14 18
	")
}

ee = energy('scf')
oeprop('DIPOLE', 'QUADRUPOLE', 'MULLIKEN_CHARGES')
f=open( 'psi4out.xyz', 'w' )
f.write( "25  " )
f.write( str(ee) + "\n" )
f.write( MOL.save_string_xyz() )
f.close()
--------------------------------------------------------------------------

    Molecular point group: c1

    Geometry (in Angstrom), charge = 0, multiplicity = 1:

       Center              X                  Y                   Z               Mass
    ------------   -----------------  -----------------  -----------------  -----------------
           H         -2.281125309829     1.128357161503    -2.190600763733     1.007825032070
           C         -2.807176309829     0.459380161503    -1.498239763733    12.000000000000
           C         -2.072862309829    -0.812989838497    -1.159907763733    12.000000000000
           O         -3.875714309829     0.759319161503    -1.073960763733    15.994914619560
           C         -0.640087309829    -0.554184838497    -0.673666763733    12.000000000000
           H         -2.652018309829    -1.356435838497    -0.422374763733     1.007825032070
           H         -2.039832309829    -1.414254838497    -2.067676763733     1.007825032070
           C         -0.574128309829     0.168696161503     0.674069236267    12.000000000000
           H         -0.125391309829    -1.507361838497    -0.597339763733     1.007825032070
           H         -0.101792309829     0.020936161503    -1.425485763733     1.007825032070
           C          0.859304690171     0.409653161503     1.151588236267    12.000000000000
           H         -1.111414309829    -0.415782838497     1.418082236267     1.007825032070
           H         -1.094773309829     1.122120161503     0.607359236267     1.007825032070
           C          1.827156690171    -0.687074838497     0.699482236267    12.000000000000
           H          1.194728690171     1.376468161503     0.784857236267     1.007825032070
           H          0.871199690171     0.473257161503     2.238877236267     1.007825032070
           C          3.259419690171    -0.531890838497     1.223516236267    12.000000000000
           H          1.845398690171    -0.725202838497    -0.388592763733     1.007825032070
           H          1.441386690171    -1.649268838497     1.029750236267     1.007825032070
           C          4.003418690171     0.692173161503     0.687090236267    12.000000000000
           H          3.820539690171    -1.424232838497     0.957399236267     1.007825032070
           H          3.243365690171    -0.497453838497     2.310934236267     1.007825032070
           H          4.021145690171     0.692731161503    -0.399626763733     1.007825032070
           H          3.545184690171     1.620642161503     1.011036236267     1.007825032070
           H          5.032429690171     0.699611161503     1.033610236267     1.007825032070

  Charge       = 0
  Multiplicity = 1
  Basis Set: 6-31G*
  Basis Set:

    Orbital Energies (a.u.)
    -----------------------

    Doubly Occupied:

       1A    -20.561399     2A    -11.325507     3A    -11.234024
       4A    -11.233388     5A    -11.223451     6A    -11.219554
       7A    -11.219105     8A    -11.218424     9A    -11.211775
      10A     -1.401420    11A     -1.107670    12A     -1.067375
      13A     -1.013522    14A     -0.938064    15A     -0.886409
      16A     -0.825346    17A     -0.793062    18A     -0.765812
      19A     -0.664413    20A     -0.659731    21A     -0.633621
      22A     -0.626246    23A     -0.601655    24A     -0.595589
      25A     -0.585168    26A     -0.545246    27A     -0.542377
      28A     -0.524043    29A     -0.513879    30A     -0.502757
      31A     -0.487507    32A     -0.476046    33A     -0.455828
      34A     -0.453265    35A     -0.448102    36A     -0.408258

  @DF-RHF Final Energy:  -387.11365933558307

   => Energetics <=

    Nuclear Repulsion Energy =            446.8842199124748049
    One-Electron Energy =               -1410.0577705034013434
    Two-Electron Energy =                 576.0598912553427908
    DFT Exchange-Correlation Energy =       0.0000000000000000
    Empirical Dispersion Energy =           0.0000000000000000
    PCM Polarization Energy =               0.0000000000000000
    EFP Energy =                            0.0000000000000000
    Total Energy =                       -387.1136593355837476

  Mulliken Charges: (a.u.)
   Center  Symbol    Alpha    Beta     Spin     Total
       1     H     0.43286  0.43286  0.00000  0.13427
       2     C     2.83108  2.83108  0.00000  0.33783
       3     C     3.20597  3.20597  0.00000 -0.41193
       4     O     4.23796  4.23796  0.00000 -0.47592
       5     C     3.17458  3.17458  0.00000 -0.34916
       6     H     0.40005  0.40005  0.00000  0.19989
       7     H     0.40714  0.40714  0.00000  0.18572
       8     C     3.15615  3.15615  0.00000 -0.31230
       9     H     0.40756  0.40756  0.00000  0.18487
      10     H     0.41956  0.41956  0.00000  0.16089
      11     C     3.15459  3.15459  0.00000 -0.30919
      12     H     0.41742  0.41742  0.00000  0.16516
      13     H     0.41577  0.41577  0.00000  0.16846
      14     C     3.16213  3.16213  0.00000 -0.32425
      15     H     0.41956  0.41956  0.00000  0.16088
      16     H     0.41870  0.41870  0.00000  0.16260
      17     C     3.15049  3.15049  0.00000 -0.30099
      18     H     0.42079  0.42079  0.00000  0.15842
      19     H     0.42163  0.42163  0.00000  0.15673
      20     C     3.24142  3.24142  0.00000 -0.48283
      21     H     0.42095  0.42095  0.00000  0.15810
      22     H     0.42274  0.42274  0.00000  0.15451
      23     H     0.42288  0.42288  0.00000  0.15423
      24     H     0.41962  0.41962  0.00000  0.16076
      25     H     0.41837  0.41837  0.00000  0.16325

   Total alpha = 36.00000, Total beta = 36.00000, Total charge =  0.00000
