                              Psi4 1.0.54 Driver

  ==> Input File <==

--------------------------------------------------------------------------
set {
	reference rhf
	basis cc-pvtz
}

set_num_threads( 4 )
memory 2 gb

molecule MOL {
0 1

H	 -3.941973	 0.934228	 -0.390224
C	 -3.240162	 0.342701	 0.161016
C	 -2.105997	 -0.000418	 -0.398703
H	 -3.485368	 0.047206	 1.162193
O	 -1.471530	 -1.155629	 -0.094131
H	 -1.623652	 0.611220	 -1.139223
C	 -0.226941	 -1.395018	 -0.648039
C	 0.892990	 -0.879061	 0.232061
H	 -0.116386	 -0.943390	 -1.626600
H	 -0.101038	 -2.463157	 -0.741130
F	 2.053959	 -1.162293	 -0.323826
F	 0.832938	 0.426084	 0.388579
F	 0.873968	 -1.424024	 1.424165

	symmetry c1
}
set optking {
	frozen_dihedral = ("
		6 3 2 1
	")
}

ee,wfn = optimize('scf', return_wfn=True)
oeprop( wfn, 'DIPOLE', 'QUADRUPOLE', 'MULLIKEN_CHARGES')
f=open( 'psi4out.xyz', 'w' )
f.write( "13  " )
f.write( str(ee) + "\n" )
f.write( MOL.save_string_xyz() )
f.close()
--------------------------------------------------------------------------

    Molecular point group: c1
  Charge       = 0
  Multiplicity = 1
  Basis Set: CC-PVTZ
  Basis Set:
  @DF-RHF Final Energy:  -527.72308964620095
    Total Energy =                       -527.7230896462010605
    Molecular point group: c1
  Basis Set: CC-PVTZ
  Basis Set:
  Basis Set: CC-PVTZ
  Basis Set:
  @DF-RHF Final Energy:  -527.73373177638530
    Total Energy =                       -527.7337317763857527
  Basis Set: CC-PVTZ
  Basis Set:
  Basis Set: CC-PVTZ
  Basis Set:
  @DF-RHF Final Energy:  -527.73515854413995
    Total Energy =                       -527.7351585441401767
  Basis Set: CC-PVTZ
  Basis Set:
  Basis Set: CC-PVTZ
  Basis Set:
  @DF-RHF Final Energy:  -527.73552542870698
    Total Energy =                       -527.7355254287074331
  Basis Set: CC-PVTZ
  Basis Set:
  Basis Set: CC-PVTZ
  Basis Set:
  @DF-RHF Final Energy:  -527.73555315342560
    Total Energy =                       -527.7355531534260535
  Basis Set: CC-PVTZ
  Basis Set:
  Basis Set: CC-PVTZ
  Basis Set:
  @DF-RHF Final Energy:  -527.73555517013722
    Total Energy =                       -527.7355551701371041
  Basis Set: CC-PVTZ
  Basis Set:
  Charge       = 0
  Multiplicity = 1
  Basis Set: CC-PVTZ
  Basis Set:

    Orbital Energies (a.u.)
    -----------------------

    Doubly Occupied:

       1A    -26.341761     2A    -26.340477     3A    -26.338070
       4A    -20.604403     5A    -11.497851     6A    -11.319971
       7A    -11.300617     8A    -11.214702     9A     -1.750462
      10A     -1.646900    11A     -1.645399    12A     -1.444797
      13A     -1.088175    14A     -1.020427    15A     -0.932083
      16A     -0.844228    17A     -0.839582    18A     -0.827354
      19A     -0.798949    20A     -0.728256    21A     -0.719156
      22A     -0.702745    23A     -0.681219    24A     -0.668402
      25A     -0.661383    26A     -0.650895    27A     -0.643531
      28A     -0.585862    29A     -0.566286    30A     -0.525671
      31A     -0.517986    32A     -0.356137

  @DF-RHF Final Energy:  -527.73555586492557

   => Energetics <=

    Nuclear Repulsion Energy =            414.3987908287904247
    One-Electron Energy =               -1552.6612181987341046
    Two-Electron Energy =                 610.5268715050183346
    DFT Exchange-Correlation Energy =       0.0000000000000000
    Empirical Dispersion Energy =           0.0000000000000000
    PCM Polarization Energy =               0.0000000000000000
    EFP Energy =                            0.0000000000000000
    Total Energy =                       -527.7355558649253453
    Molecular point group: c1
  Basis Set: CC-PVTZ
  Basis Set:

  -Total Gradient:
     Atom            X                  Y                   Z
    ------   -----------------  -----------------  -----------------
       1       -0.008870036379    -0.009759547433    -0.005836122477
       2        0.016972592630     0.015310219372     0.012679965710
       3       -0.018032307465    -0.009344491299    -0.017041134366
       4        0.000007984952     0.000035898174    -0.000045592112
       5       -0.000020619062     0.000050554192     0.000051850265
       6        0.009940455870     0.003730649142     0.010238517116
       7       -0.000039868086    -0.000018381281    -0.000052872646
       8       -0.000015516464    -0.000028104497    -0.000012697084
       9        0.000011570081    -0.000002797469     0.000002063806
      10        0.000019877130    -0.000007815610    -0.000015998421
      11       -0.000019654849     0.000008346430     0.000019955633
      12        0.000029580737     0.000009029661     0.000016686439
      13        0.000015940901     0.000016440620    -0.000004621860

  **** Optimization is complete! (in 7 steps) ****
    Final optimized geometry and variables:
    Molecular point group: c1

    Geometry (in Angstrom), charge = 0, multiplicity = 1:

    H           -3.625149368271     1.869584370265     0.043061972413
    C           -2.964832989264     1.085357718773     0.355259686276
    C           -1.997712795403     0.683502977763    -0.438122554449
    H           -3.295527752923     0.455821595152     1.159738582488
    O           -1.355890189569    -0.490216585814    -0.229455765079
    H           -1.515635432613     1.336244666719    -1.144387519962
    C           -0.127680002644    -0.693231534691    -0.832417729743
    C            1.018989936923    -0.219391688042     0.036982291624
    H           -0.050090845194    -0.188803163518    -1.788388937021
    H           -0.001586661709    -1.754257550055    -0.986158300355
    F            2.162244277706    -0.476285064138    -0.566407139393
    F            0.965992120839     1.076939362357     0.256288252638
    F            1.035091747662    -0.819931420677     1.202146121191

  Mulliken Charges: (a.u.)
   Center  Symbol    Alpha    Beta     Spin     Total
       1     H     0.42680  0.42680  0.00000  0.14640
       2     C     3.18913  3.18913  0.00000 -0.37826
       3     C     2.96107  2.96107  0.00000  0.07785
       4     H     0.42777  0.42777  0.00000  0.14446
       5     O     4.14445  4.14445  0.00000 -0.28890
       6     H     0.43522  0.43522  0.00000  0.12957
       7     C     3.01956  3.01956  0.00000 -0.03912
       8     C     2.67476  2.67476  0.00000  0.65049
       9     H     0.45556  0.45556  0.00000  0.08887
      10     H     0.43590  0.43590  0.00000  0.12820
      11     F     4.61253  4.61253  0.00000 -0.22506
      12     F     4.61041  4.61041  0.00000 -0.22082
      13     F     4.60684  4.60684  0.00000 -0.21368

   Total alpha = 32.00000, Total beta = 32.00000, Total charge =  0.00000

*** Psi4 exiting successfully. Buy a developer a beer!
