  ==> Input File <==

--------------------------------------------------------------------------
set {
	reference rhf
	basis 6-31G*
}

set_num_threads( 1 )
memory 2 gb

molecule MOL {
0 1

O	 1.673162	 1.597878	 0.471392
C	 1.187638	 1.014821	 1.386504
C	 -0.125575	 0.271532	 1.357200
O	 1.756886	 0.937874	 2.582820
C	 -0.823008	 0.326187	 0.001381
H	 0.074992	 -0.753815	 1.655779
H	 -0.752824	 0.689660	 2.139790
C	 -2.149452	 -0.435131	 -0.000098
H	 -0.162518	 -0.081882	 -0.757183
H	 -0.992222	 1.362924	 -0.272210
C	 -3.368779	 0.488503	 -0.000883
H	 -2.193746	 -1.087250	 -0.871175
H	 -2.195311	 -1.087803	 0.870418
C	 -4.693822	 -0.272754	 -0.001129
H	 -3.325798	 1.139422	 -0.871284
H	 -3.326423	 1.139959	 0.869145
H	 -4.781274	 -0.907928	 -0.878124
H	 -5.538651	 0.408946	 -0.001420
H	 -4.781694	 -0.907783	 0.875984
C	 3.000999	 1.594026	 2.745924
H	 3.737462	 1.186082	 2.068627
H	 3.295537	 1.418164	 3.768761
H	 2.898600	 2.653949	 2.562660

	symmetry c1
}
set optking {
	frozen_dihedral = ("
		15 11 8 12,
		1 2 3 6,
		9 5 3 6,
		1 2 4 20
	")
}

ee = energy('scf')
oeprop('DIPOLE', 'QUADRUPOLE', 'MULLIKEN_CHARGES')
f=open( 'psi4out.xyz', 'w' )
f.write( "23  " )
f.write( str(ee) + "\n" )
f.write( MOL.save_string_xyz() )
f.close()
--------------------------------------------------------------------------

    Molecular point group: c1

    Geometry (in Angstrom), charge = 0, multiplicity = 1:

       Center              X                  Y                   Z               Mass
    ------------   -----------------  -----------------  -----------------  -----------------
           O          2.034314582534     0.970523234396    -0.496835073907    15.994914619560
           C          1.548790582534     0.387466234396     0.418276926093    12.000000000000
           C          0.235577582534    -0.355822765604     0.388972926093    12.000000000000
           O          2.118038582534     0.310519234396     1.614592926093    15.994914619560
           C         -0.461855417466    -0.301167765604    -0.966846073907    12.000000000000
           H          0.436144582534    -1.381169765604     0.687551926093     1.007825032070
           H         -0.391671417466     0.062305234396     1.171562926093     1.007825032070
           C         -1.788299417466    -1.062485765604    -0.968325073907    12.000000000000
           H          0.198634582534    -0.709236765604    -1.725410073907     1.007825032070
           H         -0.631069417466     0.735569234396    -1.240437073907     1.007825032070
           C         -3.007626417466    -0.138851765604    -0.969110073907    12.000000000000
           H         -1.832593417466    -1.714604765604    -1.839402073907     1.007825032070
           H         -1.834158417466    -1.715157765604    -0.097809073907     1.007825032070
           C         -4.332669417466    -0.900108765604    -0.969356073907    12.000000000000
           H         -2.964645417466     0.512067234396    -1.839511073907     1.007825032070
           H         -2.965270417466     0.512604234396    -0.099082073907     1.007825032070
           H         -4.420121417466    -1.535282765604    -1.846351073907     1.007825032070
           H         -5.177498417466    -0.218408765604    -0.969647073907     1.007825032070
           H         -4.420541417466    -1.535137765604    -0.092243073907     1.007825032070
           C          3.362151582534     0.966671234396     1.777696926093    12.000000000000
           H          4.098614582534     0.558727234396     1.100399926093     1.007825032070
           H          3.656689582534     0.790809234396     2.800533926093     1.007825032070
           H          3.259752582534     2.026594234396     1.594432926093     1.007825032070

  Charge       = 0
  Multiplicity = 1
  Basis Set: 6-31G*
  Basis Set:

    Orbital Energies (a.u.)
    -----------------------

    Doubly Occupied:

       1A    -20.603467     2A    -20.545324     3A    -11.371819
       4A    -11.280742     5A    -11.235807     6A    -11.217820
       7A    -11.217709     8A    -11.216266     9A    -11.209837
      10A     -1.469175    11A     -1.362608    12A     -1.094070
      13A     -1.042828    14A     -0.986933    15A     -0.932174
      16A     -0.845706    17A     -0.794445    18A     -0.767270
      19A     -0.700728    20A     -0.682241    21A     -0.672435
      22A     -0.635062    23A     -0.622963    24A     -0.598764
      25A     -0.573336    26A     -0.559276    27A     -0.556017
      28A     -0.528383    29A     -0.521069    30A     -0.497549
      31A     -0.496616    32A     -0.471326    33A     -0.464386
      34A     -0.458041    35A     -0.450920    36A     -0.435488

  @DF-RHF Final Energy:  -422.97113947388567

   => Energetics <=

    Nuclear Repulsion Energy =            455.1669145108763246
    One-Electron Energy =               -1478.0390595185012899
    Two-Electron Energy =                 599.9010055337403173
    DFT Exchange-Correlation Energy =       0.0000000000000000
    Empirical Dispersion Energy =           0.0000000000000000
    PCM Polarization Energy =               0.0000000000000000
    EFP Energy =                            0.0000000000000000
    Total Energy =                       -422.9711394738847048

  Mulliken Charges: (a.u.)
   Center  Symbol    Alpha    Beta     Spin     Total
       1     O     4.28592  4.28592  0.00000 -0.57185
       2     C     2.60563  2.60563  0.00000  0.78874
       3     C     3.21003  3.21003  0.00000 -0.42006
       4     O     4.30738  4.30738  0.00000 -0.61476
       5     C     3.15530  3.15530  0.00000 -0.31060
       6     H     0.40003  0.40003  0.00000  0.19994
       7     H     0.40069  0.40069  0.00000  0.19862
       8     C     3.15685  3.15685  0.00000 -0.31369
       9     H     0.40927  0.40927  0.00000  0.18146
      10     H     0.40929  0.40929  0.00000  0.18142
      11     C     3.15335  3.15335  0.00000 -0.30671
      12     H     0.41853  0.41853  0.00000  0.16295
      13     H     0.42275  0.42275  0.00000  0.15451
      14     C     3.24004  3.24004  0.00000 -0.48007
      15     H     0.42004  0.42004  0.00000  0.15991
      16     H     0.42393  0.42393  0.00000  0.15215
      17     H     0.42108  0.42108  0.00000  0.15783
      18     H     0.41879  0.41879  0.00000  0.16242
      19     H     0.42196  0.42196  0.00000  0.15608
      20     C     3.09245  3.09245  0.00000 -0.18491
      21     H     0.40906  0.40906  0.00000  0.18187
      22     H     0.40849  0.40849  0.00000  0.18301
      23     H     0.40912  0.40912  0.00000  0.18175

   Total alpha = 36.00000, Total beta = 36.00000, Total charge = -0.00000
