                              Psi4 1.0.54 Driver

  ==> Input File <==

--------------------------------------------------------------------------
set {
	reference rhf
	basis cc-pvtz
}

set_num_threads( 4 )
memory 2 gb

molecule MOL {
0 1

H	 2.080645	 -0.480131	 -0.781139
O	 1.583947	 -0.677544	 -0.001533
C	 0.489979	 0.078084	 0.002623
C	 -0.763662	 -0.754014	 0.000816
O	 0.539051	 1.259395	 -0.000088
C	 -2.038001	 0.074705	 -0.000833
H	 -0.712945	 -1.405886	 -0.864342
H	 -0.715137	 -1.405770	 0.866182
H	 -2.087267	 0.710831	 -0.874232
H	 -2.903419	 -0.576199	 -0.001922
H	 -2.089467	 0.710909	 0.872389

	symmetry c1
}
set optking {
	frozen_dihedral = ("
		1 2 3 5
	")
}

ee,wfn = optimize('scf', return_wfn=True)
oeprop( wfn, 'DIPOLE', 'QUADRUPOLE', 'MULLIKEN_CHARGES')
f=open( 'psi4out.xyz', 'w' )
f.write( "11  " )
f.write( str(ee) + "\n" )
f.write( MOL.save_string_xyz() )
f.close()
--------------------------------------------------------------------------

    Molecular point group: c1
  Charge       = 0
  Multiplicity = 1
  Basis Set: CC-PVTZ
  Basis Set:
  @DF-RHF Final Energy:  -266.93798012211585
    Total Energy =                       -266.9379801221159596
    Molecular point group: c1
  Basis Set: CC-PVTZ
  Basis Set:
  Basis Set: CC-PVTZ
  Basis Set:
  @DF-RHF Final Energy:  -266.93637344536842
    Total Energy =                       -266.9363734453685879
  Basis Set: CC-PVTZ
  Basis Set:
  Basis Set: CC-PVTZ
  Basis Set:
  @DF-RHF Final Energy:  -266.93925726538146
    Total Energy =                       -266.9392572653816273
  Basis Set: CC-PVTZ
  Basis Set:
  Basis Set: CC-PVTZ
  Basis Set:
  @DF-RHF Final Energy:  -266.93940525185019
    Total Energy =                       -266.9394052518503031
  Basis Set: CC-PVTZ
  Basis Set:
  Basis Set: CC-PVTZ
  Basis Set:
  @DF-RHF Final Energy:  -266.93941163127278
    Total Energy =                       -266.9394116312727760
  Basis Set: CC-PVTZ
  Basis Set:
  Basis Set: CC-PVTZ
  Basis Set:
  @DF-RHF Final Energy:  -266.93941282199887
    Total Energy =                       -266.9394128219988147
  Basis Set: CC-PVTZ
  Basis Set:
  Charge       = 0
  Multiplicity = 1
  Basis Set: CC-PVTZ
  Basis Set:

    Orbital Energies (a.u.)
    -----------------------

    Doubly Occupied:

       1A    -20.592043     2A    -20.548794     3A    -11.374938
       4A    -11.243015     5A    -11.219028     6A     -1.467564
       7A     -1.371350     8A     -1.065204     9A     -0.914490
      10A     -0.805605    11A     -0.710717    12A     -0.684576
      13A     -0.661285    14A     -0.612613    15A     -0.573412
      16A     -0.528555    17A     -0.526687    18A     -0.504917
      19A     -0.490895    20A     -0.449014

  @DF-RHF Final Energy:  -266.93941282489135

   => Energetics <=

    Nuclear Repulsion Energy =            179.5767265928544703
    One-Electron Energy =                -720.3428727633513518
    Two-Electron Energy =                 273.8267333456054757
    DFT Exchange-Correlation Energy =       0.0000000000000000
    Empirical Dispersion Energy =           0.0000000000000000
    PCM Polarization Energy =               0.0000000000000000
    EFP Energy =                            0.0000000000000000
    Total Energy =                       -266.9394128248914058
    Molecular point group: c1
  Basis Set: CC-PVTZ
  Basis Set:

  -Total Gradient:
     Atom            X                  Y                   Z
    ------   -----------------  -----------------  -----------------
       1       -0.004304295176    -0.007374444291    -0.005616262493
       2        0.004877375367     0.009351847876     0.011162345702
       3        0.000518617652    -0.002260101235    -0.014480875479
       4       -0.000054376776    -0.000063655753    -0.000026871237
       5       -0.000988990709     0.000355522300     0.008983678725
       6       -0.000091832456    -0.000069574898     0.000009400583
       7        0.000002407642    -0.000037484067    -0.000024148111
       8        0.000059138204     0.000063218624    -0.000005683675
       9        0.000005553043     0.000000250609    -0.000017900076
      10       -0.000031627136     0.000035703093     0.000000851371
      11        0.000008030346    -0.000001282256     0.000015464691

  **** Optimization is complete! (in 7 steps) ****
    Final optimized geometry and variables:
    Molecular point group: c1

    Geometry (in Angstrom), charge = 0, multiplicity = 1:

    H            2.213528492903    -0.536268876960    -0.552864679854
    O            1.593211197273    -0.687494849997     0.141690822290
    C            0.492279852085     0.081649721918    -0.012329458649
    C           -0.770761075818    -0.736016080011    -0.027794566443
    O            0.545838940187     1.256866924370    -0.032140704933
    C           -2.041795745638     0.096941796189    -0.043166411671
    H           -0.714541469923    -1.391831086128    -0.891120231827
    H           -0.730433935243    -1.389515139792     0.836865813381
    H           -2.079837802842     0.733707057480    -0.916923119219
    H           -2.911048366982    -0.548985928917    -0.052456229083
    H           -2.098804496803     0.733704733570     0.829583547106

  Mulliken Charges: (a.u.)
   Center  Symbol    Alpha    Beta     Spin     Total
       1     H     0.38227  0.38227  0.00000  0.23546
       2     O     4.17515  4.17515  0.00000 -0.35030
       3     C     2.80330  2.80330  0.00000  0.39341
       4     C     3.09948  3.09948  0.00000 -0.19896
       5     O     4.17024  4.17024  0.00000 -0.34048
       6     C     3.13969  3.13969  0.00000 -0.27938
       7     H     0.44573  0.44573  0.00000  0.10854
       8     H     0.43856  0.43856  0.00000  0.12288
       9     H     0.44862  0.44862  0.00000  0.10276
      10     H     0.44983  0.44983  0.00000  0.10033
      11     H     0.44712  0.44712  0.00000  0.10575

   Total alpha = 20.00000, Total beta = 20.00000, Total charge =  0.00000

*** Psi4 exiting successfully. Buy a developer a beer!
