                              Psi4 1.0.54 Driver

  ==> Input File <==

--------------------------------------------------------------------------
set {
	reference rhf
	basis cc-pvtz
}

set_num_threads( 4 )
memory 2 gb

molecule MOL {
0 1

H	 -1.132282	 -0.599031	 0.584906
N	 -0.712187	 0.000026	 -0.093397
C	 0.734067	 -0.000020	 0.038424
H	 -1.083652	 0.914553	 0.051861
H	 1.140372	 -0.872115	 -0.458226
H	 1.140363	 0.872301	 -0.457869
H	 1.095085	 -0.000244	 1.065614

	symmetry c1
}
set optking {
	frozen_dihedral = ("
		1 2 3 7
	")
}

ee,wfn = optimize('scf', return_wfn=True)
oeprop( wfn, 'DIPOLE', 'QUADRUPOLE', 'MULLIKEN_CHARGES')
f=open( 'psi4out.xyz', 'w' )
f.write( "7  " )
f.write( str(ee) + "\n" )
f.write( MOL.save_string_xyz() )
f.close()
--------------------------------------------------------------------------

    Molecular point group: c1
  Charge       = 0
  Multiplicity = 1
  Basis Set: CC-PVTZ
  Basis Set:
  @DF-RHF Final Energy:   -95.25294089312419
    Total Energy =                        -95.2529408931241335
    Molecular point group: c1
  Basis Set: CC-PVTZ
  Basis Set:
  Basis Set: CC-PVTZ
  Basis Set:
  @DF-RHF Final Energy:   -95.25298823445669
    Total Energy =                        -95.2529882344566943
  Basis Set: CC-PVTZ
  Basis Set:
  Charge       = 0
  Multiplicity = 1
  Basis Set: CC-PVTZ
  Basis Set:

    Orbital Energies (a.u.)
    -----------------------

    Doubly Occupied:

       1A    -15.528901     2A    -11.235677     3A     -1.172332
       4A     -0.897480     5A     -0.664896     6A     -0.603046
       7A     -0.558122     8A     -0.517628     9A     -0.387771

  @DF-RHF Final Energy:   -95.25299275106482

   => Energetics <=

    Nuclear Repulsion Energy =             42.3660204126330555
    One-Electron Energy =                -212.1063191081443620
    Two-Electron Energy =                  74.4873059444464900
    DFT Exchange-Correlation Energy =       0.0000000000000000
    Empirical Dispersion Energy =           0.0000000000000000
    PCM Polarization Energy =               0.0000000000000000
    EFP Energy =                            0.0000000000000000
    Total Energy =                        -95.2529927510648236
    Molecular point group: c1
  Basis Set: CC-PVTZ
  Basis Set:

  -Total Gradient:
     Atom            X                  Y                   Z
    ------   -----------------  -----------------  -----------------
       1       -0.000050681909     0.001952519241     0.001411773403
       2        0.000219599437    -0.002889632922    -0.001766874700
       3       -0.000337468028     0.003344827040     0.000353120114
       4        0.000079436981    -0.000156415405    -0.000016285560
       5        0.000069685526    -0.000001470225     0.000022689194
       6       -0.000018381531     0.000002575996     0.000008439452
       7        0.000037809525    -0.002252403726    -0.000012861903

  **** Optimization is complete! (in 3 steps) ****
    Final optimized geometry and variables:
    Molecular point group: c1

    Geometry (in Angstrom), charge = 0, multiplicity = 1:

    H           -1.132940090411    -0.610652833522     0.584041318726
    N           -0.713617118273    -0.010646214635    -0.093975719570
    C            0.734680910036    -0.008923547391     0.040395752989
    H           -1.080306327234     0.901645330565     0.075922653771
    H            1.147651494331    -0.886127360318    -0.443612775394
    H            1.144399176481     0.858182590562    -0.460906916124
    H            1.088722212615    -0.008874342074     1.069301973068

  Mulliken Charges: (a.u.)
   Center  Symbol    Alpha    Beta     Spin     Total
       1     H     0.42979  0.42979  0.00000  0.14042
       2     N     3.68481  3.68481  0.00000 -0.36962
       3     C     3.07108  3.07108  0.00000 -0.14216
       4     H     0.42889  0.42889  0.00000  0.14222
       5     H     0.45727  0.45727  0.00000  0.08545
       6     H     0.45689  0.45689  0.00000  0.08623
       7     H     0.47127  0.47127  0.00000  0.05746

   Total alpha =  9.00000, Total beta =  9.00000, Total charge = -0.00000

*** Psi4 exiting successfully. Buy a developer a beer!
