  ==> Input File <==

--------------------------------------------------------------------------
set {
	reference rhf
	basis 6-31G*
}

set_num_threads( 4 )
memory 2 gb

molecule MOL {
0 1

H	 3.696259	 -0.884115	 0.393834
O	 2.826016	 -1.159218	 0.122261
C	 2.077727	 -0.067559	 -0.035091
C	 0.624473	 -0.343591	 0.253101
O	 2.542965	 0.974826	 -0.363729
C	 -0.265902	 0.883932	 0.072916
H	 0.324016	 -1.163849	 -0.390541
H	 0.565024	 -0.726111	 1.268924
C	 -1.728698	 0.646073	 0.462102
H	 -0.209144	 1.219470	 -0.958188
H	 0.135059	 1.692851	 0.673903
C	 -2.482460	 -0.343073	 -0.431425
H	 -2.245265	 1.602650	 0.432430
H	 -1.779332	 0.308348	 1.496285
C	 -3.960546	 -0.461025	 -0.060175
H	 -2.395034	 -0.026811	 -1.468912
H	 -2.024850	 -1.327147	 -0.371646
H	 -4.472726	 -1.168004	 -0.705284
H	 -4.465146	 0.496508	 -0.151489
H	 -4.081218	 -0.800940	 0.964585

	symmetry c1
}
set optking {
	frozen_dihedral = ("
		1 2 3 5
	")
}

ee = optimize('scf')
oeprop('DIPOLE', 'QUADRUPOLE', 'MULLIKEN_CHARGES')
f=open( 'psi4out.xyz', 'w' )
f.write( "20  " )
f.write( str(ee) + "\n" )
f.write( MOL.save_string_xyz() )
f.close()
--------------------------------------------------------------------------

    Molecular point group: c1
  Charge       = 0
  Multiplicity = 1
  Basis Set: 6-31G*
  Basis Set:
  @DF-RHF Final Energy:  -383.94332977288587
    Total Energy =                       -383.9433297728859316
    Molecular point group: c1
  Basis Set: 6-31G*
  Basis Set:
  Basis Set: 6-31G*
  Basis Set:
  @DF-RHF Final Energy:  -383.94000827187881
    Total Energy =                       -383.9400082718786962
  Basis Set: 6-31G*
  Basis Set:
  Basis Set: 6-31G*
  Basis Set:
  @DF-RHF Final Energy:  -383.94377272336880
    Total Energy =                       -383.9437727233685109
  Basis Set: 6-31G*
  Basis Set:
  Basis Set: 6-31G*
  Basis Set:
  @DF-RHF Final Energy:  -383.94383172025209
    Total Energy =                       -383.9438317202517510
  Basis Set: 6-31G*
  Basis Set:
  Basis Set: 6-31G*
  Basis Set:
  @DF-RHF Final Energy:  -383.94383851727656
    Total Energy =                       -383.9438385172765607
  Basis Set: 6-31G*
  Basis Set:
  Charge       = 0
  Multiplicity = 1
  Basis Set: 6-31G*
  Basis Set:

    Orbital Energies (a.u.)
    -----------------------

    Doubly Occupied:

       1A    -20.608459     2A    -20.553688     3A    -11.381217
       4A    -11.239856     5A    -11.222658     6A    -11.220552
       7A    -11.219938     8A    -11.212269     9A     -1.470504
      10A     -1.366293    11A     -1.095901    12A     -1.040416
      13A     -0.960567    14A     -0.868143    15A     -0.815857
      16A     -0.777559    17A     -0.701528    18A     -0.687804
      19A     -0.659737    20A     -0.638665    21A     -0.604668
      22A     -0.588020    23A     -0.575785    24A     -0.556030
      25A     -0.534999    26A     -0.514120    27A     -0.494602
      28A     -0.482718    29A     -0.470067    30A     -0.466227
      31A     -0.457090    32A     -0.443351

  @DF-RHF Final Energy:  -383.94383904558003

   => Energetics <=

    Nuclear Repulsion Energy =            375.7931587047136190
    One-Electron Energy =               -1267.6154221600108940
    Two-Electron Energy =                 507.8784244097172405
    DFT Exchange-Correlation Energy =       0.0000000000000000
    Empirical Dispersion Energy =           0.0000000000000000
    PCM Polarization Energy =               0.0000000000000000
    EFP Energy =                            0.0000000000000000
    Total Energy =                       -383.9438390455800345
    Molecular point group: c1
  Basis Set: 6-31G*
  Basis Set:

  -Total Gradient:
     Atom            X                  Y                   Z
    ------   -----------------  -----------------  -----------------
       1       -0.002239610163    -0.001102293230     0.009804840713
       2        0.001933363294     0.000659381422    -0.016117246220
       3        0.002158048310     0.002247568511     0.014908101838
       4        0.000019414940    -0.000042990316     0.000076585755
       5       -0.001840302952    -0.001765863949    -0.008662283379
       6        0.000001372372    -0.000028165782     0.000086304593
       7       -0.000073336253     0.000005921974    -0.000060540390
       8        0.000008660979    -0.000013483807    -0.000013118278
       9       -0.000016850626     0.000048061154    -0.000014211240
      10       -0.000001535681     0.000014762106     0.000005872007
      11        0.000010815066    -0.000016803515     0.000011926931
      12        0.000015054413     0.000004900153    -0.000022349028
      13       -0.000003043491    -0.000002699159    -0.000029405297
      14       -0.000019579228     0.000036685318     0.000007033455
      15        0.000008072244    -0.000029313596     0.000022035983
      16       -0.000021431256     0.000009876750     0.000005700102
      17        0.000057558927    -0.000018546822    -0.000014993936
      18        0.000002559567    -0.000007738941     0.000005854207
      19        0.000008296758    -0.000002156476    -0.000006812223
      20       -0.000007527228     0.000002898204     0.000006704409

  **** Optimization is complete! (in 6 steps) ****
    Final optimized geometry and variables:
    Molecular point group: c1

    Geometry (in Angstrom), charge = 0, multiplicity = 1:

    H            3.705549773031    -0.963690147718     0.271630841196
    O            2.808886588226    -1.181836947765     0.040646480613
    C            2.080597075035    -0.057982057189    -0.002588388149
    C            0.623657022190    -0.332022833483     0.267957037581
    O            2.551349235617     0.990505219713    -0.295322147665
    C           -0.267430605445     0.891586327565     0.067738352501
    H            0.333601662640    -1.159190308455    -0.371569913895
    H            0.552422115432    -0.707110438562     1.286317635822
    C           -1.733659785633     0.654838395633     0.444480780618
    H           -0.201252376159     1.216867052586    -0.966270216557
    H            0.126074485082     1.707326623718     0.664342912086
    C           -2.473484515099    -0.352320279820    -0.440516080328
    H           -2.253564413733     1.608693017871     0.393153570550
    H           -1.794496295465     0.334208815556     1.483606178475
    C           -3.953336454027    -0.476221117568    -0.078404629789
    H           -2.380705398934    -0.050013125487    -1.481666541554
    H           -2.008915033428    -1.331926595475    -0.363625168413
    H           -4.455234662994    -1.196676027507    -0.716635962198
    H           -4.464592113728     0.475894120970    -0.187711622508
    H           -4.079113618946    -0.801801973567     0.950411419118

  Mulliken Charges: (a.u.)
   Center  Symbol    Alpha    Beta     Spin     Total
       1     H     0.26728  0.26728  0.00000  0.46545
       2     O     4.35545  4.35545  0.00000 -0.71090
       3     C     2.62479  2.62479  0.00000  0.75041
       4     C     3.21309  3.21309  0.00000 -0.42618
       5     O     4.27145  4.27145  0.00000 -0.54289
       6     C     3.15453  3.15453  0.00000 -0.30906
       7     H     0.39579  0.39579  0.00000  0.20842
       8     H     0.40139  0.40139  0.00000  0.19721
       9     C     3.15543  3.15543  0.00000 -0.31085
      10     H     0.41236  0.41236  0.00000  0.17528
      11     H     0.40806  0.40806  0.00000  0.18388
      12     C     3.15490  3.15490  0.00000 -0.30979
      13     H     0.41792  0.41792  0.00000  0.16416
      14     H     0.42404  0.42404  0.00000  0.15193
      15     C     3.23922  3.23922  0.00000 -0.47843
      16     H     0.42128  0.42128  0.00000  0.15743
      17     H     0.42260  0.42260  0.00000  0.15479
      18     H     0.41828  0.41828  0.00000  0.16345
      19     H     0.42068  0.42068  0.00000  0.15864
      20     H     0.42147  0.42147  0.00000  0.15705

   Total alpha = 32.00000, Total beta = 32.00000, Total charge = -0.00000
