  ==> Input File <==

--------------------------------------------------------------------------
set {
	reference rhf
	basis cc-pvtz
}

set_num_threads( 4 )
memory 2 gb

molecule MOL {
0 1

H	 3.889604	 0.356866	 -0.089510
N	 3.091268	 -0.241216	 -0.065538
C	 1.860978	 0.530248	 0.016256
H	 3.192566	 -0.835836	 0.730398
C	 0.644130	 -0.381765	 -0.031064
H	 1.835721	 1.204666	 -0.833114
H	 1.808789	 1.151975	 0.911067
C	 -0.678115	 0.376691	 0.025731
H	 0.693998	 -0.977147	 -0.936845
H	 0.693309	 -1.082142	 0.800523
C	 -0.505415	 1.893057	 0.029271
H	 -1.225586	 0.078546	 0.916988
H	 -1.298019	 0.090667	 -0.820898
C	 -1.829203	 2.647543	 0.092588
H	 0.114044	 2.180845	 0.874103
H	 0.038077	 2.194014	 -0.862251
H	 -2.381425	 2.394287	 0.991560
H	 -1.670863	 3.719893	 0.093622
H	 -2.458110	 2.407173	 -0.758314

	symmetry c1
}
set optking {
	frozen_dihedral = ("
		12 8 5 9
	")
}

ee = optimize('scf')
oeprop('DIPOLE', 'QUADRUPOLE', 'MULLIKEN_CHARGES')
f=open( 'psi4out.xyz', 'w' )
f.write( "19  " )
f.write( str(ee) + "\n" )
f.write( MOL.save_string_xyz() )
f.close()
--------------------------------------------------------------------------

    Molecular point group: c1
  Charge       = 0
  Multiplicity = 1
  Basis Set: CC-PVTZ
  Basis Set:
  @DF-RHF Final Energy:  -251.43315103668670
    Total Energy =                       -251.4331510366869225
    Molecular point group: c1
  Basis Set: CC-PVTZ
  Basis Set:
  Basis Set: CC-PVTZ
  Basis Set:
  @DF-RHF Final Energy:  -251.43369874660641
    Total Energy =                       -251.4336987466065239
  Basis Set: CC-PVTZ
  Basis Set:
  Basis Set: CC-PVTZ
  Basis Set:
  @DF-RHF Final Energy:  -251.43743831617871
    Total Energy =                       -251.4374383161784863
  Basis Set: CC-PVTZ
  Basis Set:
  Basis Set: CC-PVTZ
  Basis Set:
  @DF-RHF Final Energy:  -251.43805789080085
    Total Energy =                       -251.4380578908008488
  Basis Set: CC-PVTZ
  Basis Set:
  Basis Set: CC-PVTZ
  Basis Set:
  @DF-RHF Final Energy:  -251.43812531366868
    Total Energy =                       -251.4381253136688770
  Basis Set: CC-PVTZ
  Basis Set:
  Basis Set: CC-PVTZ
  Basis Set:
  @DF-RHF Final Energy:  -251.43815196633241
    Total Energy =                       -251.4381519663324980
  Basis Set: CC-PVTZ
  Basis Set:
  Basis Set: CC-PVTZ
  Basis Set:
  @DF-RHF Final Energy:  -251.43815926590813
    Total Energy =                       -251.4381592659082116
  Basis Set: CC-PVTZ
  Basis Set:
  Charge       = 0
  Multiplicity = 1
  Basis Set: CC-PVTZ
  Basis Set:

    Orbital Energies (a.u.)
    -----------------------

    Doubly Occupied:

       1A    -15.526012     2A    -11.237492     3A    -11.212632
       4A    -11.211067     5A    -11.208237     6A    -11.205856
       7A     -1.177926     8A     -1.070564     9A     -0.995358
      10A     -0.900422    11A     -0.836635    12A     -0.768139
      13A     -0.663586    14A     -0.642225    15A     -0.617561
      16A     -0.587524    17A     -0.573146    18A     -0.549034
      19A     -0.525031    20A     -0.503413    21A     -0.492020
      22A     -0.459909    23A     -0.452692    24A     -0.445391
      25A     -0.383044

  @DF-RHF Final Energy:  -251.43815961846235

   => Energetics <=

    Nuclear Repulsion Energy =            249.6045083395105166
    One-Electron Energy =                -833.5955057540360258
    Two-Electron Energy =                 332.5528377960632724
    DFT Exchange-Correlation Energy =       0.0000000000000000
    Empirical Dispersion Energy =           0.0000000000000000
    PCM Polarization Energy =               0.0000000000000000
    EFP Energy =                            0.0000000000000000
    Total Energy =                       -251.4381596184622367
    Molecular point group: c1
  Basis Set: CC-PVTZ
  Basis Set:

  -Total Gradient:
     Atom            X                  Y                   Z
    ------   -----------------  -----------------  -----------------
       1       -0.000002327285     0.000002042162     0.000005058520
       2       -0.000007709901    -0.000005527529     0.000021655865
       3        0.000003320130     0.000004021598    -0.000072044154
       4        0.000006050867    -0.000004807312     0.000000853905
       5        0.001054082590     0.001970734456    -0.001810467420
       6        0.000003349662     0.000005031659     0.000003041349
       7       -0.000008462984    -0.000008969121     0.000008306468
       8        0.001137680646     0.001782103189     0.001887607756
       9       -0.001023469738    -0.001932356921     0.001224371807
      10       -0.000008360404    -0.000002845142    -0.000003951723
      11       -0.000007056456     0.000000071688     0.000041751382
      12       -0.001146693156    -0.001800669380    -0.001297457265
      13       -0.000002452247    -0.000000637891     0.000008609976
      14       -0.000001114099    -0.000004873228    -0.000015172504
      15        0.000003356014     0.000003688358     0.000005070502
      16       -0.000000921968    -0.000008386773    -0.000001574432
      17        0.000006969312     0.000000628298    -0.000001929897
      18        0.000000296980     0.000002400560    -0.000006160294
      19       -0.000006537962    -0.000001648669     0.000002430157

  **** Optimization is complete! (in 8 steps) ****
    Final optimized geometry and variables:
    Molecular point group: c1

    Geometry (in Angstrom), charge = 0, multiplicity = 1:

    H            3.516740704989    -0.686235887493    -0.095361978771
    N            2.661965547317    -1.200952813295    -0.107200567895
    C            1.516017324225    -0.313480887224     0.023355795416
    H            2.698613302605    -1.850073878643     0.650946050108
    C            0.226914389654    -1.122879983439    -0.053418597505
    H            1.560405897811     0.398448460265    -0.791632014228
    H            1.536646779417     0.262585952435     0.947430237376
    C           -1.111178287920    -0.344695922773     0.033499121072
    H            0.253403910047    -1.708729043432    -0.964085212354
    H            0.252501634838    -1.852708592327     0.751629107544
    C           -1.050514935099     1.182781842239    -0.006897381378
    H           -1.641852133672    -0.647886840608     0.930544291789
    H           -1.744344430618    -0.669414537236    -0.786480755068
    C           -2.438454182447     1.812192564402     0.062799539334
    H           -0.451523218981     1.558187865352     0.815822528024
    H           -0.560533444240     1.509587559834    -0.918510355364
    H           -2.948108028000     1.535579821221     0.979850673124
    H           -2.380456930001     2.894203025829     0.030382444357
    H           -3.057398008775     1.489006081897    -0.767585856506

  Mulliken Charges: (a.u.)
   Center  Symbol    Alpha    Beta     Spin     Total
       1     H     0.43041  0.43041  0.00000  0.13917
       2     N     3.69016  3.69016  0.00000 -0.38032
       3     C     3.02853  3.02853  0.00000 -0.05706
       4     H     0.43104  0.43104  0.00000  0.13792
       5     C     3.09090  3.09090  0.00000 -0.18180
       6     H     0.45417  0.45417  0.00000  0.09166
       7     H     0.46515  0.46515  0.00000  0.06970
       8     C     3.09677  3.09677  0.00000 -0.19355
       9     H     0.44613  0.44613  0.00000  0.10774
      10     H     0.45796  0.45796  0.00000  0.08409
      11     C     3.09151  3.09151  0.00000 -0.18303
      12     H     0.45252  0.45252  0.00000  0.09497
      13     H     0.45131  0.45131  0.00000  0.09739
      14     C     3.15000  3.15000  0.00000 -0.30001
      15     H     0.45273  0.45273  0.00000  0.09454
      16     H     0.45226  0.45226  0.00000  0.09548
      17     H     0.45529  0.45529  0.00000  0.08941
      18     H     0.44838  0.44838  0.00000  0.10325
      19     H     0.45478  0.45478  0.00000  0.09044

   Total alpha = 25.00000, Total beta = 25.00000, Total charge = -0.00000
