                              Psi4 1.0.54 Driver

  ==> Input File <==

--------------------------------------------------------------------------
set {
	reference rhf
	basis cc-pvtz
}

set_num_threads( 4 )
memory 2 gb

molecule MOL {
0 1

O	 0.623971	 1.347241	 -0.000777
C	 0.485107	 0.171416	 -0.000134
C	 1.606966	 -0.836201	 0.000174
O	 -0.695554	 -0.422406	 0.000602
C	 2.988788	 -0.202529	 -0.000115
H	 1.465110	 -1.474645	 -0.864821
H	 1.465209	 -1.474077	 0.865596
H	 3.131767	 0.419673	 -0.873407
H	 3.750876	 -0.972315	 0.000098
H	 3.131883	 0.420264	 0.872742
C	 -1.189375	 -0.914405	 1.238489
C	 -2.539964	 -1.540474	 0.980740
H	 -1.258899	 -0.096000	 1.941146
H	 -0.488141	 -1.633648	 1.637594
H	 -3.233182	 -0.811343	 0.580502
H	 -2.946525	 -1.927221	 1.907760
H	 -2.458049	 -2.357781	 0.275284

	symmetry c1
}
set optking {
	frozen_dihedral = ("
		11 4 2 3
	")
}

ee,wfn = optimize('scf', return_wfn=True)
oeprop( wfn, 'DIPOLE', 'QUADRUPOLE', 'MULLIKEN_CHARGES')
f=open( 'psi4out.xyz', 'w' )
f.write( "17  " )
f.write( str(ee) + "\n" )
f.write( MOL.save_string_xyz() )
f.close()
--------------------------------------------------------------------------

    Molecular point group: c1
  Charge       = 0
  Multiplicity = 1
  Basis Set: CC-PVTZ
  Basis Set:
  @DF-RHF Final Energy:  -345.01908816380950
    Total Energy =                       -345.0190881638093288
    Molecular point group: c1
  Basis Set: CC-PVTZ
  Basis Set:
  Basis Set: CC-PVTZ
  Basis Set:
  @DF-RHF Final Energy:  -345.02016120193360
    Total Energy =                       -345.0201612019336608
  Basis Set: CC-PVTZ
  Basis Set:
  Basis Set: CC-PVTZ
  Basis Set:
  @DF-RHF Final Energy:  -345.02009351409362
    Total Energy =                       -345.0200935140934462
  Basis Set: CC-PVTZ
  Basis Set:
  Basis Set: CC-PVTZ
  Basis Set:
  @DF-RHF Final Energy:  -345.02101610176885
    Total Energy =                       -345.0210161017687938
  Basis Set: CC-PVTZ
  Basis Set:
  Basis Set: CC-PVTZ
  Basis Set:
  @DF-RHF Final Energy:  -345.02106129655624
    Total Energy =                       -345.0210612965558425
  Basis Set: CC-PVTZ
  Basis Set:
  Basis Set: CC-PVTZ
  Basis Set:
  @DF-RHF Final Energy:  -345.02106602315337
    Total Energy =                       -345.0210660231532529
  Basis Set: CC-PVTZ
  Basis Set:
  Charge       = 0
  Multiplicity = 1
  Basis Set: CC-PVTZ
  Basis Set:

    Orbital Energies (a.u.)
    -----------------------

    Doubly Occupied:

       1A    -20.575721     2A    -20.543492     3A    -11.366456
       4A    -11.294213     5A    -11.241065     6A    -11.222845
       7A    -11.217293     8A     -1.459881     9A     -1.368870
      10A     -1.065474    11A     -1.039023    12A     -0.904306
      13A     -0.867703    14A     -0.770981    15A     -0.703650
      16A     -0.686899    17A     -0.658226    18A     -0.640211
      19A     -0.604143    20A     -0.564401    21A     -0.557454
      22A     -0.533013    23A     -0.527870    24A     -0.521128
      25A     -0.507870    26A     -0.489074    27A     -0.453846
      28A     -0.437085

  @DF-RHF Final Energy:  -345.02106630162177

   => Energetics <=

    Nuclear Repulsion Energy =            314.8737452782821720
    One-Electron Energy =               -1094.1452360250050333
    Two-Electron Energy =                 434.2504244451013733
    DFT Exchange-Correlation Energy =       0.0000000000000000
    Empirical Dispersion Energy =           0.0000000000000000
    PCM Polarization Energy =               0.0000000000000000
    EFP Energy =                            0.0000000000000000
    Total Energy =                       -345.0210663016214880
    Molecular point group: c1
  Basis Set: CC-PVTZ
  Basis Set:

  -Total Gradient:
     Atom            X                  Y                   Z
    ------   -----------------  -----------------  -----------------
       1       -0.000021099337    -0.000012919730     0.000003160129
       2        0.000182190435    -0.000309687052    -0.000976843252
       3        0.000016585399     0.000020190886     0.000616840432
       4       -0.000462641655     0.000932941761     0.000441446907
       5       -0.000005654236    -0.000008566731    -0.000000102431
       6        0.000006876968    -0.000011036422     0.000001355794
       7        0.000002376537    -0.000004091520     0.000008947144
       8        0.000000471379     0.000001019946    -0.000001988548
       9       -0.000004254671    -0.000002130492    -0.000000685558
      10       -0.000004325522     0.000000220158     0.000002315715
      11        0.000301972297    -0.000598152540    -0.000110723300
      12       -0.000011373220     0.000004967344     0.000012226983
      13       -0.000016137631    -0.000008450050     0.000011193205
      14        0.000003814718    -0.000000736777    -0.000013542720
      15        0.000005672283    -0.000000812263     0.000000606138
      16       -0.000002912232    -0.000006428100     0.000003753556
      17        0.000008438486     0.000003671585     0.000002039807

  **** Optimization is complete! (in 7 steps) ****
    Final optimized geometry and variables:
    Molecular point group: c1

    Geometry (in Angstrom), charge = 0, multiplicity = 1:

    O            0.423246440141     1.643397349322    -0.382737480616
    C            0.332285111504     0.472648189226    -0.315598705476
    C            1.507236002899    -0.474503959894    -0.298415174098
    O           -0.872684231643    -0.132212482952    -0.310796958600
    C            2.856767197801     0.224927232491    -0.330472467160
    H            1.384718848142    -1.136215247067    -1.149716696507
    H            1.420186944518    -1.106008876122     0.579055916114
    H            2.955948688411     0.835065261246    -1.217811489413
    H            3.656220740087    -0.505983401244    -0.325418404064
    H            2.980181587103     0.872261719249     0.527645093731
    C           -1.383957108529    -0.611188946988     0.919733431739
    C           -2.785015627370    -1.122361579913     0.678718903158
    H           -1.390331355411     0.198415348026     1.640975549340
    H           -0.751772135343    -1.405015010324     1.302190402827
    H           -3.418374391571    -0.328212449769     0.306451600815
    H           -3.205321372875    -1.497812780124     1.604441237710
    H           -2.777209882273    -1.925079574815    -0.047579360683

  Mulliken Charges: (a.u.)
   Center  Symbol    Alpha    Beta     Spin     Total
       1     O     4.16881  4.16881  0.00000 -0.33761
       2     C     2.79824  2.79824  0.00000  0.40353
       3     C     3.11009  3.11009  0.00000 -0.22019
       4     O     4.16707  4.16707  0.00000 -0.33413
       5     C     3.13880  3.13880  0.00000 -0.27761
       6     H     0.43939  0.43939  0.00000  0.12122
       7     H     0.44611  0.44611  0.00000  0.10779
       8     H     0.44539  0.44539  0.00000  0.10922
       9     H     0.45086  0.45086  0.00000  0.09828
      10     H     0.44897  0.44897  0.00000  0.10206
      11     C     2.97865  2.97865  0.00000  0.04270
      12     C     3.13370  3.13370  0.00000 -0.26740
      13     H     0.45813  0.45813  0.00000  0.08373
      14     H     0.46345  0.46345  0.00000  0.07310
      15     H     0.44527  0.44527  0.00000  0.10947
      16     H     0.45700  0.45700  0.00000  0.08601
      17     H     0.45009  0.45009  0.00000  0.09981

   Total alpha = 28.00000, Total beta = 28.00000, Total charge = -0.00000

*** Psi4 exiting successfully. Buy a developer a beer!
