  ==> Input File <==

--------------------------------------------------------------------------
set {
	reference rhf
	basis 6-31G*
}

set_num_threads( 4 )
memory 2 gb

molecule MOL {
0 1

H	 -2.698709	 -0.000305	 0.034435
C	 -1.693833	 0.000034	 0.434417
O	 -0.828952	 -0.000968	 -0.659236
H	 -1.574200	 0.882896	 1.055746
H	 -1.574147	 -0.881698	 1.057355
C	 0.559449	 -0.000018	 -0.420814
C	 0.906810	 -0.385119	 1.015833
C	 1.330191	 -0.828774	 -1.446522
H	 0.832702	 1.039067	 -0.561050
H	 0.305519	 0.186688	 1.714427
H	 1.952807	 -0.173472	 1.214154
H	 0.745604	 -1.441040	 1.208725
H	 1.021439	 -0.564589	 -2.452174
H	 2.394548	 -0.635650	 -1.355353
H	 1.179551	 -1.894891	 -1.310347

	symmetry c1
}
set optking {
	frozen_dihedral = ("
		9 6 3 2
	")
}

ee = optimize('scf')
oeprop('DIPOLE', 'QUADRUPOLE', 'MULLIKEN_CHARGES')
f=open( 'psi4out.xyz', 'w' )
f.write( "15  " )
f.write( str(ee) + "\n" )
f.write( MOL.save_string_xyz() )
f.close()
--------------------------------------------------------------------------

    Molecular point group: c1
  Charge       = 0
  Multiplicity = 1
  Basis Set: 6-31G*
  Basis Set:
  @DF-RHF Final Energy:  -232.12976329877353
    Total Energy =                       -232.1297632987733550
    Molecular point group: c1
  Basis Set: 6-31G*
  Basis Set:
  Basis Set: 6-31G*
  Basis Set:
  @DF-RHF Final Energy:  -232.13192850517331
    Total Energy =                       -232.1319285051733914
  Basis Set: 6-31G*
  Basis Set:
  Basis Set: 6-31G*
  Basis Set:
  @DF-RHF Final Energy:  -232.13483361170654
    Total Energy =                       -232.1348336117065401
  Basis Set: 6-31G*
  Basis Set:
  Basis Set: 6-31G*
  Basis Set:
  @DF-RHF Final Energy:  -232.13518394064928
    Total Energy =                       -232.1351839406492559
  Basis Set: 6-31G*
  Basis Set:
  Basis Set: 6-31G*
  Basis Set:
  @DF-RHF Final Energy:  -232.13522460915817
    Total Energy =                       -232.1352246091581719
  Basis Set: 6-31G*
  Basis Set:
  Basis Set: 6-31G*
  Basis Set:
  @DF-RHF Final Energy:  -232.13522656015380
    Total Energy =                       -232.1352265601537965
  Basis Set: 6-31G*
  Basis Set:
  Charge       = 0
  Multiplicity = 1
  Basis Set: 6-31G*
  Basis Set:

    Orbital Energies (a.u.)
    -----------------------

    Doubly Occupied:

       1A    -20.546672     2A    -11.274756     3A    -11.262453
       4A    -11.215471     5A    -11.204497     6A     -1.368391
       7A     -1.053243     8A     -0.949818     9A     -0.913571
      10A     -0.784183    11A     -0.676072    12A     -0.641755
      13A     -0.629761    14A     -0.590730    15A     -0.551923
      16A     -0.542348    17A     -0.526905    18A     -0.504494
      19A     -0.493769    20A     -0.448578    21A     -0.400846

  @DF-RHF Final Energy:  -232.13522712876966

   => Energetics <=

    Nuclear Repulsion Energy =            197.8535483023323991
    One-Electron Energy =                -706.8170799511327687
    Two-Electron Energy =                 276.8283045200305423
    DFT Exchange-Correlation Energy =       0.0000000000000000
    Empirical Dispersion Energy =           0.0000000000000000
    PCM Polarization Energy =               0.0000000000000000
    EFP Energy =                            0.0000000000000000
    Total Energy =                       -232.1352271287698272
    Molecular point group: c1
  Basis Set: 6-31G*
  Basis Set:

  -Total Gradient:
     Atom            X                  Y                   Z
    ------   -----------------  -----------------  -----------------
       1       -0.000005835610     0.000005985877     0.000008139159
       2        0.000177330701    -0.003865067795     0.000203103530
       3       -0.000090930577     0.005623611053    -0.001320999394
       4       -0.000022203740    -0.000021501694    -0.000004951893
       5        0.000018649997    -0.000015351360    -0.000000482501
       6       -0.001131926000    -0.000798539415     0.005449437053
       7        0.000038670388    -0.000010086580     0.000019992226
       8        0.000041492874     0.000051752925     0.000003433457
       9        0.000980866916    -0.000974478369    -0.004352539507
      10        0.000017094605    -0.000001957748    -0.000010229381
      11        0.000000707053    -0.000014001816     0.000007515226
      12       -0.000013837006     0.000008273562     0.000006797011
      13       -0.000000595154    -0.000016235075    -0.000012783626
      14        0.000014526517    -0.000003740683    -0.000019527692
      15       -0.000024010962     0.000031337117     0.000023096331

  **** Optimization is complete! (in 7 steps) ****
    Final optimized geometry and variables:
    Molecular point group: c1

    Geometry (in Angstrom), charge = 0, multiplicity = 1:

    H           -2.751375476246     0.153243237056     0.099362424120
    C           -1.778552728173     0.206063637594     0.569600623371
    O           -0.841842890986     0.201385586994    -0.460753384531
    H           -1.736330973989     1.116612147838     1.163777510474
    H           -1.672002366473    -0.646127428068     1.233106379814
    C            0.538108716518     0.294124251723    -0.173610053829
    C            0.943397142467    -0.124875972927     1.236248834408
    C            1.242106937896    -0.555790704752    -1.224503984731
    H            0.838152767534     1.327735584138    -0.339704875720
    H            0.484721663001     0.490768949564     2.001383140657
    H            2.018793742567    -0.023848675256     1.338285808296
    H            0.687176238298    -1.161841694947     1.428991428464
    H            0.926326197657    -0.255428514276    -2.216776073564
    H            2.320222251205    -0.444444989794    -1.157428409508
    H            0.992305212843    -1.603874009699    -1.093342544941

  Mulliken Charges: (a.u.)
   Center  Symbol    Alpha    Beta     Spin     Total
       1     H     0.41235  0.41235  0.00000  0.17529
       2     C     3.07693  3.07693  0.00000 -0.15386
       3     O     4.31809  4.31809  0.00000 -0.63618
       4     H     0.43159  0.43159  0.00000  0.13681
       5     H     0.42860  0.42860  0.00000  0.14281
       6     C     2.90051  2.90051  0.00000  0.19897
       7     C     3.26375  3.26375  0.00000 -0.52750
       8     C     3.23904  3.23904  0.00000 -0.47809
       9     H     0.42763  0.42763  0.00000  0.14473
      10     H     0.41506  0.41506  0.00000  0.16987
      11     H     0.41432  0.41432  0.00000  0.17137
      12     H     0.41591  0.41591  0.00000  0.16818
      13     H     0.41094  0.41094  0.00000  0.17813
      14     H     0.42559  0.42559  0.00000  0.14881
      15     H     0.41967  0.41967  0.00000  0.16065

   Total alpha = 21.00000, Total beta = 21.00000, Total charge =  0.00000
