  ==> Input File <==

--------------------------------------------------------------------------
set {
	reference rhf
	basis cc-pvtz
}

set_num_threads( 4 )
memory 2 gb

molecule MOL {
0 1

H	 1.967149	 -0.381576	 0.499879
C	 1.126156	 -0.420253	 -0.176838
O	 -0.000000	 0.000000	 0.518769
H	 1.332181	 0.224648	 -1.028608
H	 1.013899	 -1.440494	 -0.537894
C	 -1.165153	 0.000000	 -0.236961
H	 -1.229451	 0.882440	 -0.870223
H	 -2.002557	 0.000000	 0.445289
H	 -1.229451	 -0.882440	 -0.870223

	symmetry c1
}
set optking {
	frozen_dihedral = ("
		2 3 6 7
	")
}

ee = optimize('scf')
oeprop('DIPOLE', 'QUADRUPOLE', 'MULLIKEN_CHARGES')
f=open( 'psi4out.xyz', 'w' )
f.write( "9  " )
f.write( str(ee) + "\n" )
f.write( MOL.save_string_xyz() )
f.close()
--------------------------------------------------------------------------

    Molecular point group: c1
  Charge       = 0
  Multiplicity = 1
  Basis Set: CC-PVTZ
  Basis Set:
  @DF-RHF Final Energy:  -154.12628735903414
    Total Energy =                       -154.1262873590341940
    Molecular point group: c1
  Basis Set: CC-PVTZ
  Basis Set:
  Basis Set: CC-PVTZ
  Basis Set:
  @DF-RHF Final Energy:  -154.12632979939212
    Total Energy =                       -154.1263297993921526
  Basis Set: CC-PVTZ
  Basis Set:
  Charge       = 0
  Multiplicity = 1
  Basis Set: CC-PVTZ
  Basis Set:

    Orbital Energies (a.u.)
    -----------------------

    Doubly Occupied:

       1A    -20.549592     2A    -11.263303     3A    -11.263002
       4A     -1.381640     5A     -0.975991     6A     -0.872512
       7A     -0.663343     8A     -0.655154     9A     -0.646475
      10A     -0.553820    11A     -0.528895    12A     -0.476426
      13A     -0.419236

  @DF-RHF Final Energy:  -154.12633419223917

   => Energetics <=

    Nuclear Repulsion Energy =             84.7841687628433078
    One-Electron Energy =                -377.3222289740972428
    Two-Electron Energy =                 138.4117260190147931
    DFT Exchange-Correlation Energy =       0.0000000000000000
    Empirical Dispersion Energy =           0.0000000000000000
    PCM Polarization Energy =               0.0000000000000000
    EFP Energy =                            0.0000000000000000
    Total Energy =                       -154.1263341922391419
    Molecular point group: c1
  Basis Set: CC-PVTZ
  Basis Set:

  -Total Gradient:
     Atom            X                  Y                   Z
    ------   -----------------  -----------------  -----------------
       1       -0.000043548619     0.000028714392     0.000031132804
       2       -0.000358532063    -0.001912183844     0.000444510855
       3        0.000141587073     0.002951898699    -0.000218086551
       4        0.000010074836     0.000008333700     0.000015279729
       5        0.000023554558    -0.000007532333     0.000003721296
       6        0.001366605197    -0.002244753032    -0.002090821142
       7       -0.001186113053     0.001208251717     0.001800298058
       8        0.000035792087    -0.000002538543    -0.000001390255
       9        0.000010579981    -0.000030190753     0.000015355208

  **** Optimization is complete! (in 3 steps) ****
    Final optimized geometry and variables:
    Molecular point group: c1

    Geometry (in Angstrom), charge = 0, multiplicity = 1:

    H            1.981867743276    -0.228496029376     0.484901959251
    C            1.144160210655    -0.272854226392    -0.195926177282
    O            0.012540310457     0.139526981463     0.496084279100
    H            1.353062983964     0.372466315846    -1.047115042473
    H            1.038804843034    -1.293631409882    -0.556463618181
    C           -1.154957178688     0.145465401818    -0.258443452369
    H           -1.219116428833     1.033596446338    -0.883205086917
    H           -1.991650331710     0.155977252546     0.426229229568
    H           -1.233434988292    -0.737510113110    -0.887463610732

  Mulliken Charges: (a.u.)
   Center  Symbol    Alpha    Beta     Spin     Total
       1     H     0.44880  0.44880  0.00000  0.10240
       2     C     3.02174  3.02174  0.00000 -0.04348
       3     O     4.16850  4.16850  0.00000 -0.33700
       4     H     0.47380  0.47380  0.00000  0.05239
       5     H     0.47207  0.47207  0.00000  0.05585
       6     C     3.02076  3.02076  0.00000 -0.04151
       7     H     0.46899  0.46899  0.00000  0.06201
       8     H     0.45020  0.45020  0.00000  0.09959
       9     H     0.47513  0.47513  0.00000  0.04975

   Total alpha = 13.00000, Total beta = 13.00000, Total charge = -0.00000
