  ==> Input File <==

--------------------------------------------------------------------------
set {
	reference rhf
	basis 6-31G*
}

set_num_threads( 4 )
memory 2 gb

molecule MOL {
0 1

H	 -2.172150	 0.880146	 0.502514
C	 -2.018062	 -0.000025	 -0.114509
O	 -0.774054	 0.001095	 -0.743181
H	 -2.760490	 0.003458	 -0.901350
H	 -2.173624	 -0.884374	 0.496163
C	 -0.228623	 1.219690	 -1.216532
C	 1.111467	 0.805147	 -1.820125
C	 -1.118917	 1.840471	 -2.297826
C	 -0.001046	 2.206890	 -0.067288
H	 0.955713	 0.085978	 -2.616347
H	 1.733717	 0.340300	 -1.063754
H	 1.639670	 1.662236	 -2.225168
H	 -1.333467	 1.111127	 -3.071813
H	 -0.618703	 2.687406	 -2.756180
H	 -2.060661	 2.199002	 -1.896418
H	 0.570011	 1.735166	 0.725444
H	 0.552622	 3.071522	 -0.418565
H	 -0.933681	 2.568208	 0.352559

	symmetry c1
}
set optking {
	frozen_dihedral = ("
		6 3 2 5
	")
}

ee = optimize('scf')
oeprop('DIPOLE', 'QUADRUPOLE', 'MULLIKEN_CHARGES')
f=open( 'psi4out.xyz', 'w' )
f.write( "18  " )
f.write( str(ee) + "\n" )
f.write( MOL.save_string_xyz() )
f.close()
--------------------------------------------------------------------------

    Molecular point group: c1
  Charge       = 0
  Multiplicity = 1
  Basis Set: 6-31G*
  Basis Set:
  @DF-RHF Final Energy:  -271.17253783841386
    Total Energy =                       -271.1725378384139731
    Molecular point group: c1
  Basis Set: 6-31G*
  Basis Set:
  Basis Set: 6-31G*
  Basis Set:
  @DF-RHF Final Energy:  -271.17450702114684
    Total Energy =                       -271.1745070211467237
  Basis Set: 6-31G*
  Basis Set:
  Basis Set: 6-31G*
  Basis Set:
  @DF-RHF Final Energy:  -271.17509184116369
    Total Energy =                       -271.1750918411636917
  Basis Set: 6-31G*
  Basis Set:
  Basis Set: 6-31G*
  Basis Set:
  @DF-RHF Final Energy:  -271.17509555936107
    Total Energy =                       -271.1750955593611252
  Basis Set: 6-31G*
  Basis Set:
  @DF-RHF Final Energy:  -271.17509584876132
    Total Energy =                       -271.1750958487611456
  @DF-RHF Final Energy:  -271.17511220174595
    Total Energy =                       -271.1751122017459465
  @DF-RHF Final Energy:  -271.17511731585876
    Total Energy =                       -271.1751173158586425
  Basis Set: 6-31G*
  Basis Set:
  @DF-RHF Final Energy:  -271.17511841115493
    Total Energy =                       -271.1751184111549833
  Basis Set: 6-31G*
  Basis Set:
  Basis Set: 6-31G*
  Basis Set:
  @DF-RHF Final Energy:  -271.17511738004453
    Total Energy =                       -271.1751173800444121
  Basis Set: 6-31G*
  Basis Set:
  Basis Set: 6-31G*
  Basis Set:
  @DF-RHF Final Energy:  -271.17511879932272
    Total Energy =                       -271.1751187993226040
  Basis Set: 6-31G*
  Basis Set:
  Charge       = 0
  Multiplicity = 1
  Basis Set: 6-31G*
  Basis Set:

    Orbital Energies (a.u.)
    -----------------------

    Doubly Occupied:

       1A    -20.546246     2A    -11.281406     3A    -11.260869
       4A    -11.209737     5A    -11.207688     6A    -11.203292
       7A     -1.369672     8A     -1.072826     9A     -0.946275
      10A     -0.939439    11A     -0.912511    12A     -0.752452
      13A     -0.655175    14A     -0.644546    15A     -0.637836
      16A     -0.591773    17A     -0.573000    18A     -0.552569
      19A     -0.535460    20A     -0.524075    21A     -0.514838
      22A     -0.488795    23A     -0.486632    24A     -0.438801
      25A     -0.403341

  @DF-RHF Final Energy:  -271.17511878690414

   => Energetics <=

    Nuclear Repulsion Energy =            272.3457370088542575
    One-Electron Energy =                -907.5432056043563307
    Two-Electron Energy =                 364.0223498085979372
    DFT Exchange-Correlation Energy =       0.0000000000000000
    Empirical Dispersion Energy =           0.0000000000000000
    PCM Polarization Energy =               0.0000000000000000
    EFP Energy =                            0.0000000000000000
    Total Energy =                       -271.1751187869041360
    Molecular point group: c1
  Basis Set: 6-31G*
  Basis Set:

  -Total Gradient:
     Atom            X                  Y                   Z
    ------   -----------------  -----------------  -----------------
       1        0.000003802480     0.000003805997     0.000001597053
       2       -0.000292945031    -0.000794507266    -0.000795157971
       3       -0.000502788493    -0.000231613123    -0.001311687058
       4       -0.000001833592    -0.000000877242     0.000001317831
       5        0.000402516428     0.000758572601     0.001064772928
       6        0.000394573254     0.000265925987     0.001038760184
       7        0.000000674633     0.000001694820    -0.000002325552
       8        0.000003852791     0.000006532248    -0.000002867281
       9       -0.000006231356    -0.000009560341     0.000005094647
      10        0.000003418078    -0.000004102512     0.000001804200
      11       -0.000003000074     0.000005421052     0.000003033556
      12       -0.000000803561    -0.000000554326    -0.000005081993
      13       -0.000002591307     0.000000338476     0.000003663411
      14       -0.000000383235     0.000002170368    -0.000004629061
      15        0.000003656697     0.000001756149     0.000000805388
      16        0.000004693940     0.000000291403     0.000001186504
      17       -0.000004138189    -0.000004057121    -0.000003404021
      18       -0.000002473464    -0.000001237171     0.000003117232

  **** Optimization is complete! (in 11 steps) ****
    Final optimized geometry and variables:
    Molecular point group: c1

    Geometry (in Angstrom), charge = 0, multiplicity = 1:

    H           -1.771516335411    -0.122996541829     1.433631870179
    C           -1.537246682033    -1.002415764231     0.842450822891
    O           -0.233803308797    -0.988501888037     0.346346546135
    H           -2.271554018718    -1.088191485776     0.046564053632
    H           -1.619943720395    -1.866946906999     1.488098346460
    C            0.303511119880     0.216207644249    -0.170046252860
    C            1.628980193998    -0.212035541142    -0.795496378930
    C           -0.610762685385     0.820425714968    -1.239964139970
    C            0.561052404248     1.218818297689     0.959518422289
    H            1.454533836476    -0.936671147233    -1.582809090230
    H            2.262205215120    -0.674400584885    -0.046767836153
    H            2.155177778356     0.638552528967    -1.216735426796
    H           -0.830612736411     0.085841741788    -2.007684411362
    H           -0.128968055742     1.670834116585    -1.711192510274
    H           -1.550006024252     1.167890229342    -0.822305881745
    H            1.170069218029     0.761175045644     1.731493581704
    H            1.085885007136     2.089879761775     0.580353385831
    H           -0.358860304908     1.568262698529     1.415435090526

  Mulliken Charges: (a.u.)
   Center  Symbol    Alpha    Beta     Spin     Total
       1     H     0.43105  0.43105  0.00000  0.13790
       2     C     3.07883  3.07883  0.00000 -0.15765
       3     O     4.31928  4.31928  0.00000 -0.63855
       4     H     0.42723  0.42723  0.00000  0.14555
       5     H     0.41357  0.41357  0.00000  0.17285
       6     C     2.84354  2.84354  0.00000  0.31291
       7     C     3.23304  3.23304  0.00000 -0.46608
       8     C     3.24908  3.24908  0.00000 -0.49816
       9     C     3.24356  3.24356  0.00000 -0.48712
      10     H     0.41470  0.41470  0.00000  0.17060
      11     H     0.41367  0.41367  0.00000  0.17266
      12     H     0.42510  0.42510  0.00000  0.14980
      13     H     0.41363  0.41363  0.00000  0.17273
      14     H     0.41867  0.41867  0.00000  0.16266
      15     H     0.41993  0.41993  0.00000  0.16013
      16     H     0.41328  0.41328  0.00000  0.17345
      17     H     0.42109  0.42109  0.00000  0.15781
      18     H     0.42074  0.42074  0.00000  0.15852

   Total alpha = 25.00000, Total beta = 25.00000, Total charge = -0.00000
