                              Psi4 1.0.54 Driver

  ==> Input File <==

--------------------------------------------------------------------------
set {
	reference rhf
	basis cc-pvtz
}

set_num_threads( 4 )
memory 2 gb

molecule MOL {
0 1

H	 2.826305	 0.170403	 -0.212536
C	 1.948180	 -0.217873	 0.320185
C	 0.692262	 0.592428	 0.156232
O	 2.036784	 -1.203928	 0.966312
C	 -0.554654	 -0.292621	 0.086567
H	 0.791858	 1.203694	 -0.731051
H	 0.617379	 1.254358	 1.016534
C	 -1.846385	 0.513195	 -0.016346
H	 -0.473986	 -0.956115	 -0.769708
H	 -0.597929	 -0.929215	 0.966651
C	 -3.089953	 -0.365049	 -0.098564
H	 -1.798267	 1.154820	 -0.891143
H	 -1.925398	 1.173265	 0.842889
H	 -3.055079	 -1.012299	 -0.968245
H	 -3.988403	 0.236438	 -0.170014
H	 -3.183055	 -0.995885	 0.779079

	symmetry c1
}
set optking {
	frozen_dihedral = ("
		4 2 3 6
	")
}

ee,wfn = optimize('scf', return_wfn=True)
oeprop( wfn, 'DIPOLE', 'QUADRUPOLE', 'MULLIKEN_CHARGES')
f=open( 'psi4out.xyz', 'w' )
f.write( "16  " )
f.write( str(ee) + "\n" )
f.write( MOL.save_string_xyz() )
f.close()
--------------------------------------------------------------------------

    Molecular point group: c1
  Charge       = 0
  Multiplicity = 1
  Basis Set: CC-PVTZ
  Basis Set:
  @DF-RHF Final Energy:  -270.11797278659981
    Total Energy =                       -270.1179727865998643
    Molecular point group: c1
  Basis Set: CC-PVTZ
  Basis Set:
  Basis Set: CC-PVTZ
  Basis Set:
  @DF-RHF Final Energy:  -270.11795694069122
    Total Energy =                       -270.1179569406913288
  Basis Set: CC-PVTZ
  Basis Set:
  Basis Set: CC-PVTZ
  Basis Set:
  @DF-RHF Final Energy:  -270.11778458972685
    Total Energy =                       -270.1177845897268526
  Basis Set: CC-PVTZ
  Basis Set:
  Basis Set: CC-PVTZ
  Basis Set:
  @DF-RHF Final Energy:  -270.11852217862179
    Total Energy =                       -270.1185221786217312
  Basis Set: CC-PVTZ
  Basis Set:
  Basis Set: CC-PVTZ
  Basis Set:
  @DF-RHF Final Energy:  -270.11852839201003
    Total Energy =                       -270.1185283920100915
  Basis Set: CC-PVTZ
  Basis Set:
  Charge       = 0
  Multiplicity = 1
  Basis Set: CC-PVTZ
  Basis Set:

    Orbital Energies (a.u.)
    -----------------------

    Doubly Occupied:

       1A    -20.552227     2A    -11.322827     3A    -11.235453
       4A    -11.223083     5A    -11.221677     6A    -11.211474
       7A     -1.407831     8A     -1.090840     9A     -1.016148
      10A     -0.908841    11A     -0.814603    12A     -0.775307
      13A     -0.681535    14A     -0.652249    15A     -0.632331
      16A     -0.600476    17A     -0.584281    18A     -0.542342
      19A     -0.529352    20A     -0.501035    21A     -0.484353
      22A     -0.479953    23A     -0.473384    24A     -0.411712

  @DF-RHF Final Energy:  -270.11852820270076

   => Energetics <=

    Nuclear Repulsion Energy =            231.8030494479982906
    One-Electron Energy =                -825.1365291057851437
    Two-Electron Energy =                 323.2149514550861227
    DFT Exchange-Correlation Energy =       0.0000000000000000
    Empirical Dispersion Energy =           0.0000000000000000
    PCM Polarization Energy =               0.0000000000000000
    EFP Energy =                            0.0000000000000000
    Total Energy =                       -270.1185282027007020
    Molecular point group: c1
  Basis Set: CC-PVTZ
  Basis Set:

  -Total Gradient:
     Atom            X                  Y                   Z
    ------   -----------------  -----------------  -----------------
       1       -0.000103102993    -0.000031637999     0.000027489842
       2       -0.000401008034    -0.001357023286    -0.002649012717
       3       -0.000863840683    -0.001596397092    -0.000872426037
       4        0.000493377955     0.001201659011     0.002050070673
       5        0.000032970659     0.000046736588     0.000074016032
       6        0.000827370802     0.001730847859     0.001344852480
       7        0.000022528707     0.000011938468     0.000060059791
       8       -0.000003548654    -0.000020005284    -0.000031886686
       9        0.000008881611    -0.000002433951    -0.000017163678
      10       -0.000005445064     0.000023658744     0.000037616676
      11       -0.000014798161     0.000006088224    -0.000018840230
      12       -0.000000719964     0.000011607123    -0.000002955821
      13        0.000010746693    -0.000020751281     0.000003005836
      14       -0.000003461010    -0.000006689435    -0.000009053278
      15       -0.000005331136     0.000001316206    -0.000004278393
      16        0.000005379273     0.000001086104     0.000008505511

  **** Optimization is complete! (in 6 steps) ****
    Final optimized geometry and variables:
    Molecular point group: c1

    Geometry (in Angstrom), charge = 0, multiplicity = 1:

    H            3.006561148805     0.405715073489    -0.335504416824
    C            2.109263840005    -0.037874234781     0.111909998671
    C            0.830694807836     0.738416860231    -0.083725311765
    O            2.195811075997    -1.035429930018     0.741015977056
    C           -0.423584281360    -0.125571494991    -0.156700263264
    H            0.936150762900     1.378387834471    -0.953991709134
    H            0.769603846862     1.415111246803     0.768262876619
    C           -1.701291276243     0.699237760022    -0.279266936413
    H           -0.343594253969    -0.798962657694    -1.005230860020
    H           -0.470482980371    -0.751967275108     0.725402260294
    C           -2.956228702038    -0.162559530385    -0.365854700045
    H           -1.640025895329     1.335272568830    -1.158358527857
    H           -1.780874248439     1.366576739077     0.574650064393
    H           -2.922618745775    -0.816578261213    -1.230658028347
    H           -3.846710138516     0.449616638076    -0.448441310276
    H           -3.062870746542    -0.786366011367     0.514974109545

  Mulliken Charges: (a.u.)
   Center  Symbol    Alpha    Beta     Spin     Total
       1     H     0.45297  0.45297  0.00000  0.09407
       2     C     2.92209  2.92209  0.00000  0.15583
       3     C     3.08966  3.08966  0.00000 -0.17932
       4     O     4.16615  4.16615  0.00000 -0.33230
       5     C     3.08600  3.08600  0.00000 -0.17200
       6     H     0.44738  0.44738  0.00000  0.10525
       7     H     0.44570  0.44570  0.00000  0.10860
       8     C     3.08441  3.08441  0.00000 -0.16883
       9     H     0.45129  0.45129  0.00000  0.09742
      10     H     0.44048  0.44048  0.00000  0.11903
      11     C     3.14905  3.14905  0.00000 -0.29809
      12     H     0.45537  0.45537  0.00000  0.08927
      13     H     0.45400  0.45400  0.00000  0.09201
      14     H     0.45430  0.45430  0.00000  0.09139
      15     H     0.44810  0.44810  0.00000  0.10381
      16     H     0.45306  0.45306  0.00000  0.09388

   Total alpha = 24.00000, Total beta = 24.00000, Total charge = -0.00000

*** Psi4 exiting successfully. Buy a developer a beer!
