  ==> Input File <==

--------------------------------------------------------------------------
set {
	reference rhf
	basis 6-31G*
}

set_num_threads( 4 )
memory 2 gb

molecule MOL {
0 1

O	 -2.042549	 -1.228399	 -0.269030
C	 -1.653912	 -0.146171	 0.050137
C	 -0.332303	 0.024011	 0.778412
C	 -2.438579	 1.106236	 -0.272369
C	 -0.146316	 -1.069992	 1.841633
H	 0.495849	 0.001191	 0.075542
H	 -0.343425	 0.996936	 1.257178
C	 1.160692	 -0.917522	 2.621064
H	 -0.169397	 -2.050320	 1.368868
H	 -0.988838	 -1.034587	 2.525771
C	 1.344024	 -1.998899	 3.685123
H	 1.999657	 -0.944568	 1.929087
H	 1.183673	 0.062034	 3.092772
H	 1.359357	 -2.989592	 3.239764
H	 0.536287	 -1.975203	 4.410687
H	 2.276791	 -1.864044	 4.223441
H	 -3.277823	 0.863061	 -0.908988
H	 -1.806773	 1.843019	 -0.759671
H	 -2.802853	 1.554979	 0.648059

	symmetry c1
}
set optking {
	frozen_dihedral = ("
		5 3 2 4
	")
}

ee = optimize('scf')
oeprop('DIPOLE', 'QUADRUPOLE', 'MULLIKEN_CHARGES')
f=open( 'psi4out.xyz', 'w' )
f.write( "19  " )
f.write( str(ee) + "\n" )
f.write( MOL.save_string_xyz() )
f.close()
--------------------------------------------------------------------------

    Molecular point group: c1
  Charge       = 0
  Multiplicity = 1
  Basis Set: 6-31G*
  Basis Set:
  @DF-RHF Final Energy:  -309.06485751068988
    Total Energy =                       -309.0648575106895350
    Molecular point group: c1
  Basis Set: 6-31G*
  Basis Set:
  Basis Set: 6-31G*
  Basis Set:
  @DF-RHF Final Energy:  -309.06446788246109
    Total Energy =                       -309.0644678824610310
  Basis Set: 6-31G*
  Basis Set:
  Basis Set: 6-31G*
  Basis Set:
  @DF-RHF Final Energy:  -309.06507494099066
    Total Energy =                       -309.0650749409903710
  Basis Set: 6-31G*
  Basis Set:
  Basis Set: 6-31G*
  Basis Set:
  @DF-RHF Final Energy:  -309.06577512593185
    Total Energy =                       -309.0657751259321913
  Basis Set: 6-31G*
  Basis Set:
  Basis Set: 6-31G*
  Basis Set:
  @DF-RHF Final Energy:  -309.06580835170996
    Total Energy =                       -309.0658083517097907
  Basis Set: 6-31G*
  Basis Set:
  Basis Set: 6-31G*
  Basis Set:
  @DF-RHF Final Energy:  -309.06581633449395
    Total Energy =                       -309.0658163344940590
  Basis Set: 6-31G*
  Basis Set:
  Basis Set: 6-31G*
  Basis Set:
  @DF-RHF Final Energy:  -309.06582047076660
    Total Energy =                       -309.0658204707663117
  Basis Set: 6-31G*
  Basis Set:
  Charge       = 0
  Multiplicity = 1
  Basis Set: 6-31G*
  Basis Set:

    Orbital Energies (a.u.)
    -----------------------

    Doubly Occupied:

       1A    -20.548810     2A    -11.326248     3A    -11.231134
       4A    -11.228847     5A    -11.221325     6A    -11.220603
       7A    -11.211333     8A     -1.394763     9A     -1.086693
      10A     -1.029175    11A     -0.984171    12A     -0.886923
      13A     -0.802564    14A     -0.731631    15A     -0.659608
      16A     -0.647491    17A     -0.623550    18A     -0.611430
      19A     -0.581778    20A     -0.572471    21A     -0.553371
      22A     -0.532676    23A     -0.513926    24A     -0.489668
      25A     -0.476522    26A     -0.473042    27A     -0.467925
      28A     -0.398426

  @DF-RHF Final Energy:  -309.06582022387346

   => Energetics <=

    Nuclear Repulsion Energy =            300.8026261197222198
    One-Electron Energy =               -1014.7246862250217418
    Two-Electron Energy =                 404.8562398814259495
    DFT Exchange-Correlation Energy =       0.0000000000000000
    Empirical Dispersion Energy =           0.0000000000000000
    PCM Polarization Energy =               0.0000000000000000
    EFP Energy =                            0.0000000000000000
    Total Energy =                       -309.0658202238736294
    Molecular point group: c1
  Basis Set: 6-31G*
  Basis Set:

  -Total Gradient:
     Atom            X                  Y                   Z
    ------   -----------------  -----------------  -----------------
       1       -0.000001951336    -0.000039637460     0.000004609136
       2        0.000607075226     0.000353902953    -0.001054715036
       3        0.000448246072    -0.000797200445    -0.000527834954
       4       -0.000517592944    -0.000091261564     0.000908950291
       5       -0.000506516861     0.000538491664     0.000642561073
       6       -0.000037040872    -0.000005511092     0.000011045606
       7        0.000012197039     0.000047536735    -0.000006623849
       8       -0.000006621817     0.000011699682     0.000004872635
       9        0.000006325157    -0.000037641736     0.000046450737
      10       -0.000009681608     0.000016789367    -0.000028762905
      11        0.000011791737    -0.000021807512    -0.000023156934
      12        0.000002125183     0.000015583528     0.000002248687
      13       -0.000012780710     0.000000463789     0.000009188433
      14       -0.000004163843    -0.000008921193     0.000007240205
      15        0.000003635977     0.000008468749    -0.000003778524
      16        0.000003229625    -0.000004054139    -0.000006726994
      17        0.000017961563    -0.000010145322     0.000004647858
      18       -0.000007103064     0.000007189908     0.000003760909
      19       -0.000009134526     0.000016054087     0.000006023625

  **** Optimization is complete! (in 8 steps) ****
    Final optimized geometry and variables:
    Molecular point group: c1

    Geometry (in Angstrom), charge = 0, multiplicity = 1:

    O           -1.430535219614    -0.613863971582    -1.534366298760
    C           -1.061495753470     0.464725440605    -1.182001444100
    C            0.222071179320     0.639683828097    -0.384792828392
    C           -1.846981936101     1.715419346211    -1.506573479865
    C            0.424573753835    -0.450124140989     0.670072957882
    H            1.041244346263     0.619803672091    -1.102262089549
    H            0.241475859463     1.624183238151     0.074515142573
    C            1.750891968194    -0.307898349467     1.417852195742
    H            0.371990690064    -1.419272888661     0.187275183902
    H           -0.397800699689    -0.416024772988     1.381496308940
    C            1.953230870893    -1.395016180168     2.472658248109
    H            2.571767691594    -0.340568661383     0.704462973679
    H            1.798781570914     0.669559589032     1.893662808665
    H            1.942787236693    -2.383380495595     2.022675155238
    H            1.167252522489    -1.365337517854     3.221864933157
    H            2.902837229817    -1.273548849493     2.984335882541
    H           -2.673905434651     1.474700408618    -2.159980246312
    H           -1.208888851726     2.458328966090    -1.976636912093
    H           -2.227011038669     2.154670376457    -0.587924470055

  Mulliken Charges: (a.u.)
   Center  Symbol    Alpha    Beta     Spin     Total
       1     O     4.26310  4.26310  0.00000 -0.52619
       2     C     2.73403  2.73403  0.00000  0.53194
       3     C     3.20824  3.20824  0.00000 -0.41648
       4     C     3.28850  3.28850  0.00000 -0.57699
       5     C     3.15281  3.15281  0.00000 -0.30562
       6     H     0.40359  0.40359  0.00000  0.19282
       7     H     0.41516  0.41516  0.00000  0.16968
       8     C     3.15300  3.15300  0.00000 -0.30599
       9     H     0.40334  0.40334  0.00000  0.19333
      10     H     0.42019  0.42019  0.00000  0.15961
      11     C     3.23967  3.23967  0.00000 -0.47934
      12     H     0.42209  0.42209  0.00000  0.15581
      13     H     0.42394  0.42394  0.00000  0.15213
      14     H     0.41907  0.41907  0.00000  0.16186
      15     H     0.42093  0.42093  0.00000  0.15813
      16     H     0.41873  0.41873  0.00000  0.16254
      17     H     0.39716  0.39716  0.00000  0.20568
      18     H     0.40930  0.40930  0.00000  0.18140
      19     H     0.40715  0.40715  0.00000  0.18569

   Total alpha = 28.00000, Total beta = 28.00000, Total charge = -0.00000
