  ==> Input File <==

--------------------------------------------------------------------------
set {
	reference rhf
	basis 6-31G*
}

set_num_threads( 4 )
memory 2 gb

molecule MOL {
0 1

H	 3.893188	 0.355400	 -0.101367
N	 3.092854	 -0.246221	 -0.068770
C	 1.865559	 0.531981	 0.018834
H	 3.199514	 -0.826043	 0.741946
C	 0.645745	 -0.382037	 -0.029944
H	 1.841966	 1.207024	 -0.831236
H	 1.815756	 1.155410	 0.915079
C	 -0.679275	 0.379305	 0.025956
H	 0.698998	 -0.976915	 -0.937203
H	 0.693479	 -1.083846	 0.802235
C	 -1.781821	 -0.383201	 0.763080
H	 -1.012702	 0.598036	 -0.987371
H	 -0.526044	 1.342525	 0.510285
C	 -3.105182	 0.379517	 0.812964
H	 -1.937578	 -1.345357	 0.280163
H	 -1.452503	 -0.600913	 1.776888
H	 -3.478471	 0.582728	 -0.186875
H	 -3.866293	 -0.186627	 1.340974
H	 -2.989737	 1.332641	 1.321508

	symmetry c1
}
set optking {
	frozen_dihedral = ("
		12 8 5 9
	")
}

ee = optimize('scf')
oeprop('DIPOLE', 'QUADRUPOLE', 'MULLIKEN_CHARGES')
f=open( 'psi4out.xyz', 'w' )
f.write( "19  " )
f.write( str(ee) + "\n" )
f.write( MOL.save_string_xyz() )
f.close()
--------------------------------------------------------------------------

    Molecular point group: c1
  Charge       = 0
  Multiplicity = 1
  Basis Set: 6-31G*
  Basis Set:
  @DF-RHF Final Energy:  -251.34868376433778
    Total Energy =                       -251.3486837643379204
    Molecular point group: c1
  Basis Set: 6-31G*
  Basis Set:
  Basis Set: 6-31G*
  Basis Set:
  @DF-RHF Final Energy:  -251.34890359730787
    Total Energy =                       -251.3489035973077534
  Basis Set: 6-31G*
  Basis Set:
  Basis Set: 6-31G*
  Basis Set:
  @DF-RHF Final Energy:  -251.34898496791007
    Total Energy =                       -251.3489849679102690
  Basis Set: 6-31G*
  Basis Set:
  Basis Set: 6-31G*
  Basis Set:
  @DF-RHF Final Energy:  -251.34898617027676
    Total Energy =                       -251.3489861702766461
  Basis Set: 6-31G*
  Basis Set:
  Charge       = 0
  Multiplicity = 1
  Basis Set: 6-31G*
  Basis Set:

    Orbital Energies (a.u.)
    -----------------------

    Doubly Occupied:

       1A    -15.532371     2A    -11.239702     3A    -11.214173
       4A    -11.212680     5A    -11.209269     6A    -11.207491
       7A     -1.176562     8A     -1.072023     9A     -0.997727
      10A     -0.900055    11A     -0.813351    12A     -0.789139
      13A     -0.663527    14A     -0.641560    15A     -0.615204
      16A     -0.592648    17A     -0.561184    18A     -0.547881
      19A     -0.535310    20A     -0.492187    21A     -0.485925
      22A     -0.465036    23A     -0.459065    24A     -0.447563
      25A     -0.381003

  @DF-RHF Final Energy:  -251.34898699855819

   => Energetics <=

    Nuclear Repulsion Energy =            245.7359501796242398
    One-Electron Energy =                -825.6645951670468548
    Two-Electron Energy =                 328.5796579888644260
    DFT Exchange-Correlation Energy =       0.0000000000000000
    Empirical Dispersion Energy =           0.0000000000000000
    PCM Polarization Energy =               0.0000000000000000
    EFP Energy =                            0.0000000000000000
    Total Energy =                       -251.3489869985581322
    Molecular point group: c1
  Basis Set: 6-31G*
  Basis Set:

  -Total Gradient:
     Atom            X                  Y                   Z
    ------   -----------------  -----------------  -----------------
       1        0.000015410646    -0.000003931729    -0.000006412960
       2        0.000032083974     0.000001108951    -0.000029274740
       3        0.000000898551    -0.000031273949     0.000080631434
       4       -0.000013415805     0.000011624050    -0.000002051815
       5       -0.002514567933    -0.004406347441     0.002257108375
       6       -0.000003157144    -0.000018020383    -0.000000823971
       7       -0.000002934105     0.000009832532     0.000001595657
       8        0.002798428153     0.004754562349    -0.000317381888
       9        0.001662665799     0.002938448091    -0.001833585386
      10        0.000009601318     0.000017062076    -0.000023283670
      11        0.000008640641     0.000028314508    -0.000005021642
      12       -0.001969604581    -0.003303452664    -0.000082304915
      13       -0.000012554753    -0.000010734793    -0.000016546929
      14       -0.000021288794     0.000000027352     0.000002387764
      15       -0.000001109003     0.000012143430    -0.000013461333
      16        0.000023716223    -0.000001459182    -0.000010468504
      17       -0.000007379957     0.000002821103     0.000000580249
      18       -0.000008476715     0.000004874147     0.000003722839
      19        0.000003043491    -0.000005598449    -0.000005408565

  **** Optimization is complete! (in 5 steps) ****
    Final optimized geometry and variables:
    Molecular point group: c1

    Geometry (in Angstrom), charge = 0, multiplicity = 1:

    H            3.856633923493     0.301087722236    -0.452441062112
    N            3.057348387094    -0.300327122180    -0.397725171381
    C            1.836855001513     0.475311489597    -0.234362196878
    H            3.200247553497    -0.900855275971     0.392171111631
    C            0.612461436600    -0.436888803909    -0.240328199977
    H            1.770952156105     1.167607658561    -1.068644870746
    H            1.830652909232     1.080780533049     0.675488154005
    C           -0.710772654413     0.343061649949    -0.186274973236
    H            0.662285940612    -1.031611270443    -1.146534516257
    H            0.679190312241    -1.123395086799     0.601706757149
    C           -1.834466760837    -0.426294853535     0.514383398053
    H           -1.037729988890     0.565017143513    -1.199467665754
    H           -0.567543712877     1.296617815828     0.318013750120
    C           -3.166662637636     0.321906585120     0.508702484498
    H           -1.960879098493    -1.393712273152     0.032612675141
    H           -1.540629327467    -0.633838575066     1.541182098017
    H           -3.507907555116     0.508048494211    -0.505788912652
    H           -3.939576290083    -0.245254106790     1.018300129708
    H           -3.078518223884     1.283022050137     1.007828288744

  Mulliken Charges: (a.u.)
   Center  Symbol    Alpha    Beta     Spin     Total
       1     H     0.33244  0.33244  0.00000  0.33511
       2     N     3.92210  3.92210  0.00000 -0.84420
       3     C     3.06202  3.06202  0.00000 -0.12404
       4     H     0.33537  0.33537  0.00000  0.32927
       5     C     3.15326  3.15326  0.00000 -0.30652
       6     H     0.42078  0.42078  0.00000  0.15845
       7     H     0.43483  0.43483  0.00000  0.13033
       8     C     3.15601  3.15601  0.00000 -0.31202
       9     H     0.41099  0.41099  0.00000  0.17802
      10     H     0.42622  0.42622  0.00000  0.14756
      11     C     3.15238  3.15238  0.00000 -0.30475
      12     H     0.42090  0.42090  0.00000  0.15820
      13     H     0.42371  0.42371  0.00000  0.15258
      14     C     3.23969  3.23969  0.00000 -0.47938
      15     H     0.42200  0.42200  0.00000  0.15600
      16     H     0.42387  0.42387  0.00000  0.15227
      17     H     0.42169  0.42169  0.00000  0.15661
      18     H     0.41945  0.41945  0.00000  0.16110
      19     H     0.42229  0.42229  0.00000  0.15542

   Total alpha = 25.00000, Total beta = 25.00000, Total charge =  0.00000
