  ==> Input File <==

--------------------------------------------------------------------------
set {
	reference rhf
	basis cc-pvtz
}

set_num_threads( 4 )
memory 2 gb

molecule MOL {
0 1

H	 2.401653	 0.774344	 -0.287168
O	 2.063695	 -0.083403	 -0.105237
C	 0.742924	 0.005675	 0.350750
H	 0.731380	 0.039219	 1.440080
C	 -0.064076	 -1.193495	 -0.124425
C	 -0.047832	 1.190568	 -0.194462
H	 0.194729	 -1.376165	 -1.161308
H	 0.163013	 -2.094508	 0.429933
C	 -1.533112	 -0.752002	 0.006102
H	 0.148003	 1.266545	 -1.259275
H	 0.226235	 2.136493	 0.259722
C	 -1.506634	 0.799189	 0.067162
H	 -2.124360	 -1.110499	 -0.826089
H	 -1.983103	 -1.158030	 0.903403
H	 -2.183808	 1.252169	 -0.644677
H	 -1.813926	 1.138698	 1.049457

	symmetry c1
}
set optking {
	frozen_dihedral = ("
		1 2 3 6
	")
}

ee = optimize('scf')
oeprop('DIPOLE', 'QUADRUPOLE', 'MULLIKEN_CHARGES')
f=open( 'psi4out.xyz', 'w' )
f.write( "16  " )
f.write( str(ee) + "\n" )
f.write( MOL.save_string_xyz() )
f.close()
--------------------------------------------------------------------------

    Molecular point group: c1
  Charge       = 0
  Multiplicity = 1
  Basis Set: CC-PVTZ
  Basis Set:
  @DF-RHF Final Energy:  -270.11545231426453
    Total Energy =                       -270.1154523142646440
    Molecular point group: c1
  Basis Set: CC-PVTZ
  Basis Set:
  Basis Set: CC-PVTZ
  Basis Set:
  @DF-RHF Final Energy:  -270.11556232962801
    Total Energy =                       -270.1155623296281760
  Basis Set: CC-PVTZ
  Basis Set:
  Basis Set: CC-PVTZ
  Basis Set:
  @DF-RHF Final Energy:  -270.11559098912642
    Total Energy =                       -270.1155909891264173
  Basis Set: CC-PVTZ
  Basis Set:
  Basis Set: CC-PVTZ
  Basis Set:
  @DF-RHF Final Energy:  -270.11559384809294
    Total Energy =                       -270.1155938480927148
  Basis Set: CC-PVTZ
  Basis Set:
  @DF-RHF Final Energy:  -270.11559975082525
    Total Energy =                       -270.1155997508251971
  @DF-RHF Final Energy:  -270.11560678268165
    Total Energy =                       -270.1156067826818798
  Basis Set: CC-PVTZ
  Basis Set:
  @DF-RHF Final Energy:  -270.11561299912779
    Total Energy =                       -270.1156129991278476
  Basis Set: CC-PVTZ
  Basis Set:
  Basis Set: CC-PVTZ
  Basis Set:
  @DF-RHF Final Energy:  -270.11561696888873
    Total Energy =                       -270.1156169688885029
  Basis Set: CC-PVTZ
  Basis Set:
  Basis Set: CC-PVTZ
  Basis Set:
  @DF-RHF Final Energy:  -270.11561969505175
    Total Energy =                       -270.1156196950516915
  Basis Set: CC-PVTZ
  Basis Set:
  Charge       = 0
  Multiplicity = 1
  Basis Set: CC-PVTZ
  Basis Set:

    Orbital Energies (a.u.)
    -----------------------

    Doubly Occupied:

       1A    -20.544330     2A    -11.266962     3A    -11.217529
       4A    -11.215697     5A    -11.214513     6A    -11.207143
       7A     -1.364653     8A     -1.116563     9A     -0.969231
      10A     -0.949756    11A     -0.796148    12A     -0.780527
      13A     -0.691656    14A     -0.664758    15A     -0.616199
      16A     -0.598987    17A     -0.573790    18A     -0.528736
      19A     -0.502557    20A     -0.484308    21A     -0.472821
      22A     -0.458113    23A     -0.446028    24A     -0.426047

  @DF-RHF Final Energy:  -270.11562028739183

   => Energetics <=

    Nuclear Repulsion Energy =            255.6425697896108034
    One-Electron Energy =                -873.3022802555392445
    Two-Electron Energy =                 347.5440901785365213
    DFT Exchange-Correlation Energy =       0.0000000000000000
    Empirical Dispersion Energy =           0.0000000000000000
    PCM Polarization Energy =               0.0000000000000000
    EFP Energy =                            0.0000000000000000
    Total Energy =                       -270.1156202873919483
    Molecular point group: c1
  Basis Set: CC-PVTZ
  Basis Set:

  -Total Gradient:
     Atom            X                  Y                   Z
    ------   -----------------  -----------------  -----------------
       1       -0.000548619057    -0.000059375524    -0.001717642701
       2        0.000824734103     0.000358929978     0.002554010506
       3       -0.000599761714    -0.000899323555    -0.001745059494
       4        0.000013091958    -0.000003100491    -0.000002028755
       5       -0.000024623716    -0.000000135448     0.000010696431
       6        0.000301844467     0.000593053398     0.000923148748
       7       -0.000000470696    -0.000001206153    -0.000004511693
       8        0.000000995609     0.000001252442     0.000003172460
       9        0.000021042240    -0.000006162047    -0.000017764024
      10       -0.000001151851    -0.000001333016    -0.000007994282
      11       -0.000002454101     0.000001925386    -0.000003311145
      12        0.000016853524     0.000009747423    -0.000002824784
      13        0.000003460889     0.000004664300    -0.000005566226
      14       -0.000004921622     0.000002371308     0.000003549749
      15       -0.000003886568     0.000001666799     0.000002299008
      16        0.000003866536    -0.000002974801     0.000009826202

  **** Optimization is complete! (in 10 steps) ****
    Final optimized geometry and variables:
    Molecular point group: c1

    Geometry (in Angstrom), charge = 0, multiplicity = 1:

    H            2.420245904033     0.780719628277    -0.218319870382
    O            2.075407623489    -0.081511126022    -0.078897075724
    C            0.741679344852    -0.010669548157     0.344456813237
    H            0.716630609914    -0.003850349410     1.433874638294
    C           -0.072646179805    -1.190691672573    -0.161603424115
    C           -0.039593105866     1.192804140101    -0.171825597759
    H            0.136394836310    -1.315944424193    -1.218620126410
    H            0.178478208765    -2.119390888553     0.333951787224
    C           -1.527752230424    -0.755468555224     0.063780460546
    H            0.179856708925     1.315646948614    -1.228629807427
    H            0.223378758843     2.117600686751     0.329356623189
    C           -1.511303928373     0.797701621233     0.031510507464
    H           -2.191020758013    -1.171868500846    -0.682559574940
    H           -1.883484047517    -1.104396978235     1.025578345943
    H           -2.140412109260     1.196203853961    -0.753214262662
    H           -1.887407091375     1.197946556087     0.964816839395

  Mulliken Charges: (a.u.)
   Center  Symbol    Alpha    Beta     Spin     Total
       1     H     0.39207  0.39207  0.00000  0.21586
       2     O     4.20499  4.20499  0.00000 -0.40998
       3     C     2.92252  2.92252  0.00000  0.15496
       4     H     0.46335  0.46335  0.00000  0.07330
       5     C     3.09469  3.09469  0.00000 -0.18939
       6     C     3.11654  3.11654  0.00000 -0.23308
       7     H     0.45462  0.45462  0.00000  0.09077
       8     H     0.44293  0.44293  0.00000  0.11414
       9     C     3.11322  3.11322  0.00000 -0.22645
      10     H     0.45351  0.45351  0.00000  0.09298
      11     H     0.44428  0.44428  0.00000  0.11144
      12     C     3.11174  3.11174  0.00000 -0.22348
      13     H     0.44398  0.44398  0.00000  0.11203
      14     H     0.44916  0.44916  0.00000  0.10168
      15     H     0.44423  0.44423  0.00000  0.11155
      16     H     0.44817  0.44817  0.00000  0.10367

   Total alpha = 24.00000, Total beta = 24.00000, Total charge = -0.00000
