                              Psi4 1.0.54 Driver

  ==> Input File <==

--------------------------------------------------------------------------
set {
	reference rhf
	basis cc-pvtz
}

set_num_threads( 4 )
memory 2 gb

molecule MOL {
0 1

H	 -2.498963	 -0.741158	 -0.729149
O	 -2.346257	 -0.289210	 0.080372
C	 -1.183935	 0.486039	 -0.009831
C	 0.062853	 -0.375310	 0.027457
H	 -1.178881	 1.094526	 -0.908634
H	 -1.184406	 1.155156	 0.838676
O	 0.195193	 -1.005853	 -1.203946
H	 -0.017923	 -1.112526	 0.828009
H	 0.928457	 0.247310	 0.243438
C	 1.321416	 -1.811035	 -1.324469
H	 1.315195	 -2.615290	 -0.592068
H	 1.315655	 -2.242273	 -2.314765
H	 2.235932	 -1.236614	 -1.197102

	symmetry c1
}
set optking {
	frozen_dihedral = ("
		8 4 3 5
	")
}

ee,wfn = optimize('scf', return_wfn=True)
oeprop( wfn, 'DIPOLE', 'QUADRUPOLE', 'MULLIKEN_CHARGES')
f=open( 'psi4out.xyz', 'w' )
f.write( "13  " )
f.write( str(ee) + "\n" )
f.write( MOL.save_string_xyz() )
f.close()
--------------------------------------------------------------------------

    Molecular point group: c1
  Charge       = 0
  Multiplicity = 1
  Basis Set: CC-PVTZ
  Basis Set:
  @DF-RHF Final Energy:  -268.06413178610069
    Total Energy =                       -268.0641317861008588
    Molecular point group: c1
  Basis Set: CC-PVTZ
  Basis Set:
  Basis Set: CC-PVTZ
  Basis Set:
  @DF-RHF Final Energy:  -268.06480748470346
    Total Energy =                       -268.0648074847033513
  Basis Set: CC-PVTZ
  Basis Set:
  Basis Set: CC-PVTZ
  Basis Set:
  @DF-RHF Final Energy:  -268.06492604041921
    Total Energy =                       -268.0649260404191523
  Basis Set: CC-PVTZ
  Basis Set:
  Basis Set: CC-PVTZ
  Basis Set:
  @DF-RHF Final Energy:  -268.06494118159213
    Total Energy =                       -268.0649411815921894
  Basis Set: CC-PVTZ
  Basis Set:
  Charge       = 0
  Multiplicity = 1
  Basis Set: CC-PVTZ
  Basis Set:

    Orbital Energies (a.u.)
    -----------------------

    Doubly Occupied:

       1A    -20.559114     2A    -20.543892     3A    -11.270844
       4A    -11.270046     5A    -11.267073     6A     -1.395389
       7A     -1.360194     8A     -1.021237     9A     -0.919966
      10A     -0.837781    11A     -0.706325    12A     -0.682763
      13A     -0.664314    14A     -0.635997    15A     -0.592278
      16A     -0.577892    17A     -0.541451    18A     -0.492605
      19A     -0.489376    20A     -0.437327    21A     -0.429104

  @DF-RHF Final Energy:  -268.06494261729870

   => Energetics <=

    Nuclear Repulsion Energy =            194.0860970157407621
    One-Electron Energy =                -750.9121443642172835
    Two-Electron Energy =                 288.7611047311778520
    DFT Exchange-Correlation Energy =       0.0000000000000000
    Empirical Dispersion Energy =           0.0000000000000000
    PCM Polarization Energy =               0.0000000000000000
    EFP Energy =                            0.0000000000000000
    Total Energy =                       -268.0649426172986978
    Molecular point group: c1
  Basis Set: CC-PVTZ
  Basis Set:

  -Total Gradient:
     Atom            X                  Y                   Z
    ------   -----------------  -----------------  -----------------
       1        0.000026131792     0.000066559684     0.000068119590
       2       -0.000046835533    -0.000013084747    -0.000058700712
       3        0.001486669816     0.002240661354     0.001464788940
       4        0.001324289733     0.001938605876     0.002137827529
       5       -0.001472926542    -0.002290353438    -0.001629254462
       6        0.000015032497    -0.000013947197    -0.000000558621
       7       -0.000044511886     0.000041699955     0.000028141255
       8       -0.001295506335    -0.002011723192    -0.002063665378
       9        0.000019710858     0.000008097679     0.000006826888
      10        0.000007433090     0.000017565493     0.000046566243
      11       -0.000000991799    -0.000000147637    -0.000000776275
      12       -0.000022241864     0.000022338531     0.000005486345
      13        0.000003746172    -0.000006272361    -0.000004801345

  **** Optimization is complete! (in 5 steps) ****
    Final optimized geometry and variables:
    Molecular point group: c1

    Geometry (in Angstrom), charge = 0, multiplicity = 1:

    H           -1.908200855054    -0.283778684766    -0.212275392938
    O           -1.921228871688     0.272975061326     0.546179799916
    C           -0.783424869455     1.086739498888     0.526004829640
    C            0.490933761032     0.274871777024     0.527929997855
    H           -0.794251320503     1.720264094144    -0.356071404028
    H           -0.826357622671     1.711256084927     1.407773551904
    O            0.607680082427    -0.342885885022    -0.719708785462
    H            0.433293033275    -0.485580730704     1.303439813716
    H            1.350985326342     0.914229442779     0.719479185209
    C            1.690856367160    -1.205813317162    -0.840270300769
    H            1.631936740448    -2.020492664133    -0.122522452915
    H            1.676658441026    -1.618380307700    -1.838519991721
    H            2.632813188558    -0.683041333553    -0.691339297246

  Mulliken Charges: (a.u.)
   Center  Symbol    Alpha    Beta     Spin     Total
       1     H     0.38723  0.38723  0.00000  0.22555
       2     O     4.20915  4.20915  0.00000 -0.41830
       3     C     2.96200  2.96200  0.00000  0.07599
       4     C     2.97919  2.97919  0.00000  0.04162
       5     H     0.46797  0.46797  0.00000  0.06406
       6     H     0.45686  0.45686  0.00000  0.08627
       7     O     4.18266  4.18266  0.00000 -0.36532
       8     H     0.46761  0.46761  0.00000  0.06478
       9     H     0.47094  0.47094  0.00000  0.05813
      10     C     3.03025  3.03025  0.00000 -0.06051
      11     H     0.46941  0.46941  0.00000  0.06117
      12     H     0.44667  0.44667  0.00000  0.10665
      13     H     0.47005  0.47005  0.00000  0.05990

   Total alpha = 21.00000, Total beta = 21.00000, Total charge = -0.00000

*** Psi4 exiting successfully. Buy a developer a beer!
