  ==> Input File <==

--------------------------------------------------------------------------
set {
	reference rhf
	basis 6-31G*
}

set_num_threads( 4 )
memory 2 gb

molecule MOL {
0 1

O	 0.391030	 1.298905	 0.000133
C	 0.503002	 0.111612	 0.000005
C	 -0.702327	 -0.811998	 -0.000075
C	 1.863306	 -0.554493	 0.000030
C	 -1.087446	 -1.313136	 -1.386688
H	 -0.484656	 -1.645101	 0.665755
H	 -1.531107	 -0.279460	 0.462842
H	 -0.273037	 -1.864989	 -1.839915
H	 -1.951676	 -1.966323	 -1.325785
H	 -1.328767	 -0.487242	 -2.044626
H	 1.974395	 -1.189404	 -0.874166
H	 2.638695	 0.198920	 -0.000196
H	 1.974487	 -1.188655	 0.874727

	symmetry c1
}
set optking {
	frozen_dihedral = ("
		6 3 2 1
	")
}

ee = optimize('scf')
oeprop('DIPOLE', 'QUADRUPOLE', 'MULLIKEN_CHARGES')
f=open( 'psi4out.xyz', 'w' )
f.write( "13  " )
f.write( str(ee) + "\n" )
f.write( MOL.save_string_xyz() )
f.close()
--------------------------------------------------------------------------

    Molecular point group: c1
  Charge       = 0
  Multiplicity = 1
  Basis Set: 6-31G*
  Basis Set:
  @DF-RHF Final Energy:  -230.99456224772095
    Total Energy =                       -230.9945622477208076
    Molecular point group: c1
  Basis Set: 6-31G*
  Basis Set:
  Basis Set: 6-31G*
  Basis Set:
  @DF-RHF Final Energy:  -230.99504743862138
    Total Energy =                       -230.9950474386214410
  Basis Set: 6-31G*
  Basis Set:
  Basis Set: 6-31G*
  Basis Set:
  @DF-RHF Final Energy:  -230.99516954601006
    Total Energy =                       -230.9951695460102030
  Basis Set: 6-31G*
  Basis Set:
  Basis Set: 6-31G*
  Basis Set:
  @DF-RHF Final Energy:  -230.99523221006925
    Total Energy =                       -230.9952322100693038
  Basis Set: 6-31G*
  Basis Set:
  @DF-RHF Final Energy:  -230.99525459740045
    Total Energy =                       -230.9952545974005318
  Basis Set: 6-31G*
  Basis Set:
  @DF-RHF Final Energy:  -230.99527117586010
    Total Energy =                       -230.9952711758605801
  Basis Set: 6-31G*
  Basis Set:
  Basis Set: 6-31G*
  Basis Set:
  @DF-RHF Final Energy:  -230.99528091088743
    Total Energy =                       -230.9952809108874590
  Basis Set: 6-31G*
  Basis Set:
  Basis Set: 6-31G*
  Basis Set:
  @DF-RHF Final Energy:  -230.99528330659001
    Total Energy =                       -230.9952833065900109
  Basis Set: 6-31G*
  Basis Set:
  Charge       = 0
  Multiplicity = 1
  Basis Set: 6-31G*
  Basis Set:

    Orbital Energies (a.u.)
    -----------------------

    Doubly Occupied:

       1A    -20.549169     2A    -11.325511     3A    -11.233172
       4A    -11.229913     5A    -11.228804     6A     -1.394557
       7A     -1.066650     8A     -0.996430     9A     -0.885287
      10A     -0.733943    11A     -0.654329    12A     -0.647333
      13A     -0.609217    14A     -0.593894    15A     -0.563541
      16A     -0.540434    17A     -0.529436    18A     -0.503028
      19A     -0.481906    20A     -0.399822

  @DF-RHF Final Energy:  -230.99528335087822

   => Energetics <=

    Nuclear Repulsion Energy =            176.8525209573687391
    One-Electron Energy =                -663.3628569644969275
    Two-Electron Energy =                 255.5150526562499920
    DFT Exchange-Correlation Energy =       0.0000000000000000
    Empirical Dispersion Energy =           0.0000000000000000
    PCM Polarization Energy =               0.0000000000000000
    EFP Energy =                            0.0000000000000000
    Total Energy =                       -230.9952833508782248
    Molecular point group: c1
  Basis Set: 6-31G*
  Basis Set:

  -Total Gradient:
     Atom            X                  Y                   Z
    ------   -----------------  -----------------  -----------------
       1        0.000016158495    -0.000020296423     0.000607147204
       2       -0.000067558710     0.000101188544    -0.000737237645
       3        0.000284861434    -0.000387038219    -0.000351215687
       4       -0.000002263512     0.000012205567    -0.000002828011
       5       -0.000002833233     0.000003830252     0.000005863495
       6       -0.000230531060     0.000293357075     0.000482297824
       7        0.000002201709    -0.000000031272    -0.000003221456
       8       -0.000000119845    -0.000000406983     0.000000150660
       9        0.000000158322    -0.000000793014    -0.000001251855
      10        0.000000638233     0.000000750503    -0.000001656997
      11       -0.000002770065     0.000000686529     0.000000116607
      12        0.000003159625    -0.000003728386     0.000001368534
      13       -0.000001101396     0.000000275826     0.000000467327

  **** Optimization is complete! (in 9 steps) ****
    Final optimized geometry and variables:
    Molecular point group: c1

    Geometry (in Angstrom), charge = 0, multiplicity = 1:

    O            0.171493980801     1.539712251968     0.336360490550
    C            0.302446529339     0.354375837878     0.298634644427
    C           -0.902446423240    -0.569535305174     0.293053921060
    C            1.673283402544    -0.287280592227     0.258317231854
    C           -1.261160232675    -1.026091480301    -1.128035145471
    H           -0.707287521993    -1.434642915015     0.921055115886
    H           -1.732035258207    -0.021277149218     0.722038446399
    H           -0.460055039274    -1.598630638431    -1.584180404642
    H           -2.144512068614    -1.654473187066    -1.108531951232
    H           -1.470436797008    -0.171996701012    -1.762619249737
    H            1.733566811123    -1.049630679117    -0.511429592181
    H            2.426575427966     0.468745757174     0.085838974016
    H            1.869466487290    -0.774482085389     1.209991402893

  Mulliken Charges: (a.u.)
   Center  Symbol    Alpha    Beta     Spin     Total
       1     O     4.25984  4.25984  0.00000 -0.51969
       2     C     2.73760  2.73760  0.00000  0.52480
       3     C     3.20057  3.20057  0.00000 -0.40114
       4     C     3.28967  3.28967  0.00000 -0.57933
       5     C     3.24960  3.24960  0.00000 -0.49920
       6     H     0.41521  0.41521  0.00000  0.16958
       7     H     0.39900  0.39900  0.00000  0.20201
       8     H     0.41795  0.41795  0.00000  0.16410
       9     H     0.41065  0.41065  0.00000  0.17870
      10     H     0.40722  0.40722  0.00000  0.18556
      11     H     0.41000  0.41000  0.00000  0.17999
      12     H     0.39644  0.39644  0.00000  0.20712
      13     H     0.40625  0.40625  0.00000  0.18750

   Total alpha = 20.00000, Total beta = 20.00000, Total charge =  0.00000
