                              Psi4 1.0.54 Driver

  ==> Input File <==

--------------------------------------------------------------------------
set {
	reference rhf
	basis cc-pvtz
}

set_num_threads( 4 )
memory 2 gb

molecule MOL {
0 1

H	 -3.436473	 1.252944	 -1.023892
O	 -3.458596	 0.315260	 -0.960865
C	 -3.176635	 -0.080824	 0.355601
C	 -1.763371	 0.265266	 0.799691
H	 -3.321825	 -1.153438	 0.379502
H	 -3.895468	 0.357385	 1.043382
C	 -0.673390	 -0.426948	 -0.013392
H	 -1.631049	 1.344913	 0.747560
H	 -1.664587	 -0.001624	 1.849167
C	 0.575379	 -0.746041	 0.804364
H	 -0.405531	 0.198643	 -0.857667
H	 -1.074886	 -1.346976	 -0.431550
C	 1.660368	 -1.443247	 -0.014019
H	 0.964327	 0.175277	 1.227193
H	 0.303301	 -1.377652	 1.647512
C	 2.900523	 -1.856313	 0.780487
H	 1.960942	 -0.796645	 -0.835245
H	 1.232957	 -2.331761	 -0.470619
C	 3.725647	 -0.693331	 1.326186
H	 3.534133	 -2.459798	 0.137743
H	 2.601257	 -2.502099	 1.601962
H	 4.034286	 -0.026653	 0.527212
H	 4.621690	 -1.055030	 1.817634
H	 3.172288	 -0.107513	 2.050214

	symmetry c1
}
set optking {
	frozen_dihedral = ("
		11 7 4 3
	")
}

ee,wfn = optimize('scf', return_wfn=True)
oeprop( wfn, 'DIPOLE', 'QUADRUPOLE', 'MULLIKEN_CHARGES')
f=open( 'psi4out.xyz', 'w' )
f.write( "24  " )
f.write( str(ee) + "\n" )
f.write( MOL.save_string_xyz() )
f.close()
--------------------------------------------------------------------------

    Molecular point group: c1
  Charge       = 0
  Multiplicity = 1
  Basis Set: CC-PVTZ
  Basis Set:
  @DF-RHF Final Energy:  -349.37740280877318
    Total Energy =                       -349.3774028087731267
    Molecular point group: c1
  Basis Set: CC-PVTZ
  Basis Set:
  Basis Set: CC-PVTZ
  Basis Set:
  @DF-RHF Final Energy:  -349.37403210211562
    Total Energy =                       -349.3740321021156205
  Basis Set: CC-PVTZ
  Basis Set:
  Basis Set: CC-PVTZ
  Basis Set:
  @DF-RHF Final Energy:  -349.37769567401500
    Total Energy =                       -349.3776956740147739
  Basis Set: CC-PVTZ
  Basis Set:
  Basis Set: CC-PVTZ
  Basis Set:
  @DF-RHF Final Energy:  -349.37775246062478
    Total Energy =                       -349.3777524606247198
  Basis Set: CC-PVTZ
  Basis Set:
  Basis Set: CC-PVTZ
  Basis Set:
  @DF-RHF Final Energy:  -349.37775566401689
    Total Energy =                       -349.3777556640167177
  Basis Set: CC-PVTZ
  Basis Set:
  Basis Set: CC-PVTZ
  Basis Set:
  @DF-RHF Final Energy:  -349.37775735717906
    Total Energy =                       -349.3777573571790072
  Basis Set: CC-PVTZ
  Basis Set:
  Charge       = 0
  Multiplicity = 1
  Basis Set: CC-PVTZ
  Basis Set:

    Orbital Energies (a.u.)
    -----------------------

    Doubly Occupied:

       1A    -20.545529     2A    -11.265292     3A    -11.215116
       4A    -11.212188     5A    -11.210525     6A    -11.209955
       7A    -11.209398     8A    -11.205408     9A     -1.363397
      10A     -1.089636    11A     -1.048851    12A     -0.986799
      13A     -0.916120    14A     -0.851491    15A     -0.801478
      16A     -0.776950    17A     -0.680445    18A     -0.652861
      19A     -0.630256    20A     -0.617754    21A     -0.603220
      22A     -0.582629    23A     -0.553120    24A     -0.548369
      25A     -0.517925    26A     -0.505107    27A     -0.499889
      28A     -0.475065    29A     -0.469435    30A     -0.461250
      31A     -0.454179    32A     -0.450537    33A     -0.420948

  @DF-RHF Final Energy:  -349.37775733018975

   => Energetics <=

    Nuclear Repulsion Energy =            384.5272847382379950
    One-Electron Energy =               -1235.7478369456839573
    Two-Electron Energy =                 501.8427948772566651
    DFT Exchange-Correlation Energy =       0.0000000000000000
    Empirical Dispersion Energy =           0.0000000000000000
    PCM Polarization Energy =               0.0000000000000000
    EFP Energy =                            0.0000000000000000
    Total Energy =                       -349.3777573301892971
    Molecular point group: c1
  Basis Set: CC-PVTZ
  Basis Set:

  -Total Gradient:
     Atom            X                  Y                   Z
    ------   -----------------  -----------------  -----------------
       1       -0.000003244680    -0.000044876602     0.000018421111
       2        0.000017901968     0.000049932920     0.000050487148
       3       -0.000066826028    -0.001780044431     0.002110661386
       4        0.000663948917     0.002971737727    -0.002555446267
       5        0.000011888551     0.000035275943    -0.000009988011
       6        0.000028628211    -0.000027171247    -0.000043979532
       7       -0.003359158294    -0.003163237011    -0.001250230100
       8       -0.000002902612     0.000004983660    -0.000002654845
       9       -0.000017588311    -0.000003566045    -0.000003215622
      10        0.000020964563     0.000009009305    -0.000012712626
      11        0.002702280628     0.001952575467     0.001728625592
      12        0.000001976512    -0.000011737466    -0.000007981550
      13        0.000013355718     0.000026131393    -0.000000647284
      14       -0.000023395054    -0.000026257723    -0.000019324850
      15       -0.000004974586     0.000010641485    -0.000026967720
      16       -0.000014672979     0.000000382794     0.000019619866
      17       -0.000003964816     0.000007405063     0.000007982618
      18        0.000004250068     0.000004977771    -0.000005039256
      19        0.000011981182    -0.000002371836    -0.000002383639
      20       -0.000001545673    -0.000007228908     0.000002659453
      21       -0.000002111345     0.000002536754     0.000011986472
      22        0.000000233792     0.000007796120    -0.000004408448
      23        0.000002811341    -0.000000702239    -0.000004527502
      24        0.000020162921    -0.000016192894    -0.000000936401

  **** Optimization is complete! (in 7 steps) ****
    Final optimized geometry and variables:
    Molecular point group: c1

    Geometry (in Angstrom), charge = 0, multiplicity = 1:

    H           -3.317264597352     1.485984761233    -1.673661901352
    O           -3.393711021049     0.591746913339    -1.394150170568
    C           -3.110011418861     0.494304576638    -0.023186679664
    C           -1.681270184135     0.877059841576     0.326982968060
    H           -3.286618236045    -0.540255931300     0.241477735727
    H           -3.807058667274     1.099259714791     0.551585180866
    C           -0.616877400817     0.025287204967    -0.375772434347
    H           -1.519285357704     1.931041143945     0.113130867014
    H           -1.580293118220     0.771680271633     1.404573289008
    C            0.659169309303    -0.129092185168     0.451193791149
    H           -0.350522509514     0.484121089596    -1.321914214576
    H           -1.021231697229    -0.955218845043    -0.604960660830
    C            1.747756253094    -0.917130051195    -0.274157815237
    H            1.028518539549     0.857085108818     0.717016133162
    H            0.420955433342    -0.627925985661     1.388139859575
    C            3.007455423597    -1.184897690621     0.551395654644
    H            2.023382656570    -0.392760308167    -1.186349972041
    H            1.333299739755    -1.871132646400    -0.588597535423
    C            3.813461760255     0.061720487070     0.908433569396
    H            3.645750985251    -1.862810793129    -0.006978238482
    H            2.733716149182    -1.709911873510     1.462880871866
    H            4.094720096039     0.612079397173     0.016163663081
    H            4.724865228404    -0.206227276156     1.430709398138
    H            3.257402067627     0.734515106867     1.550094566039

  Mulliken Charges: (a.u.)
   Center  Symbol    Alpha    Beta     Spin     Total
       1     H     0.39525  0.39525  0.00000  0.20950
       2     O     4.20454  4.20454  0.00000 -0.40909
       3     C     2.97534  2.97534  0.00000  0.04933
       4     C     3.10958  3.10958  0.00000 -0.21916
       5     H     0.45900  0.45900  0.00000  0.08199
       6     H     0.46181  0.46181  0.00000  0.07637
       7     C     3.07999  3.07999  0.00000 -0.15998
       8     H     0.45441  0.45441  0.00000  0.09117
       9     H     0.45443  0.45443  0.00000  0.09113
      10     C     3.09350  3.09350  0.00000 -0.18701
      11     H     0.45358  0.45358  0.00000  0.09285
      12     H     0.44933  0.44933  0.00000  0.10135
      13     C     3.09546  3.09546  0.00000 -0.19092
      14     H     0.45289  0.45289  0.00000  0.09421
      15     H     0.45595  0.45595  0.00000  0.08811
      16     C     3.09001  3.09001  0.00000 -0.18002
      17     H     0.45406  0.45406  0.00000  0.09189
      18     H     0.44899  0.44899  0.00000  0.10202
      19     C     3.15232  3.15232  0.00000 -0.30465
      20     H     0.44860  0.44860  0.00000  0.10281
      21     H     0.45508  0.45508  0.00000  0.08983
      22     H     0.45512  0.45512  0.00000  0.08977
      23     H     0.44667  0.44667  0.00000  0.10667
      24     H     0.45408  0.45408  0.00000  0.09184

   Total alpha = 33.00000, Total beta = 33.00000, Total charge = -0.00000

*** Psi4 exiting successfully. Buy a developer a beer!
