                              Psi4 1.0.54 Driver

  ==> Input File <==

--------------------------------------------------------------------------
set {
	reference rhf
	basis cc-pvtz
}

set_num_threads( 4 )
memory 2 gb

molecule MOL {
0 1

O	 0.964813	 4.333706	 -0.750170
C	 -0.076828	 4.734772	 -1.155436
C	 -1.332981	 3.887618	 -1.139857
C	 -0.218408	 6.130788	 -1.718746
C	 -1.144096	 2.490158	 -0.566921
H	 -2.089503	 4.434197	 -0.581293
H	 -1.707499	 3.838640	 -2.159829
C	 -2.434206	 1.674864	 -0.571669
H	 -0.761932	 2.569259	 0.444419
H	 -0.379460	 1.973233	 -1.135477
C	 -2.258482	 0.271340	 0.000669
H	 -3.197177	 2.200486	 -0.001693
H	 -2.812731	 1.601393	 -1.588813
C	 -3.544441	 -0.550271	 -0.000253
H	 -1.880368	 0.343744	 1.017478
H	 -1.496567	 -0.255147	 -0.568914
C	 -4.804551	 0.308747	 0.000556
H	 -3.553737	 -1.201524	 -0.870151
H	 -3.553831	 -1.203282	 0.868313
H	 -4.842050	 0.949078	 -0.874436
H	 -5.698404	 -0.304480	 -0.000254
H	 -4.842277	 0.947103	 0.876982
H	 -0.955635	 6.689567	 -1.152787
H	 0.732273	 6.639741	 -1.679186
H	 -0.566231	 6.086298	 -2.744944

	symmetry c1
}
set optking {
	frozen_dihedral = ("
		15 11 14 18
	")
}

ee,wfn = optimize('scf', return_wfn=True)
oeprop( wfn, 'DIPOLE', 'QUADRUPOLE', 'MULLIKEN_CHARGES')
f=open( 'psi4out.xyz', 'w' )
f.write( "25  " )
f.write( str(ee) + "\n" )
f.write( MOL.save_string_xyz() )
f.close()
--------------------------------------------------------------------------

    Molecular point group: c1
  Charge       = 0
  Multiplicity = 1
  Basis Set: CC-PVTZ
  Basis Set:
  @DF-RHF Final Energy:  -387.26457373326633
    Total Energy =                       -387.2645737332661611
    Molecular point group: c1
  Basis Set: CC-PVTZ
  Basis Set:
  Basis Set: CC-PVTZ
  Basis Set:
  @DF-RHF Final Energy:  -387.20995237759121
    Total Energy =                       -387.2099523775913212
  Basis Set: CC-PVTZ
  Basis Set:
  Basis Set: CC-PVTZ
  Basis Set:
  @DF-RHF Final Energy:  -387.26482843597557
    Total Energy =                       -387.2648284359758009
  Basis Set: CC-PVTZ
  Basis Set:
  Basis Set: CC-PVTZ
  Basis Set:
  @DF-RHF Final Energy:  -387.26782741320841
    Total Energy =                       -387.2678274132085789
  Basis Set: CC-PVTZ
  Basis Set:
  @DF-RHF Final Energy:  -387.26804136454035
    Total Energy =                       -387.2680413645405224
  Basis Set: CC-PVTZ
  Basis Set:
  @DF-RHF Final Energy:  -387.26660159810547
    Total Energy =                       -387.2666015981055807
  Basis Set: CC-PVTZ
  Basis Set:
  Basis Set: CC-PVTZ
  Basis Set:
  @DF-RHF Final Energy:  -387.26806559493650
    Total Energy =                       -387.2680655949360471
  Basis Set: CC-PVTZ
  Basis Set:
  Basis Set: CC-PVTZ
  Basis Set:
  @DF-RHF Final Energy:  -387.26807220776027
    Total Energy =                       -387.2680722077602695
  Basis Set: CC-PVTZ
  Basis Set:
  Charge       = 0
  Multiplicity = 1
  Basis Set: CC-PVTZ
  Basis Set:

    Orbital Energies (a.u.)
    -----------------------

    Doubly Occupied:

       1A    -20.538814     2A    -11.320452     3A    -11.230072
       4A    -11.226534     5A    -11.215056     6A    -11.214442
       7A    -11.213958     8A    -11.211777     9A    -11.207583
      10A     -1.398849    11A     -1.094223    12A     -1.055437
      13A     -1.014330    14A     -0.968003    15A     -0.898701
      16A     -0.827555    17A     -0.774039    18A     -0.730306
      19A     -0.660624    20A     -0.654250    21A     -0.628869
      22A     -0.625934    23A     -0.602023    24A     -0.593977
      25A     -0.561707    26A     -0.557640    27A     -0.549699
      28A     -0.521988    29A     -0.513002    30A     -0.495887
      31A     -0.493716    32A     -0.478061    33A     -0.459182
      34A     -0.453886    35A     -0.449696    36A     -0.401473

  @DF-RHF Final Energy:  -387.26807239500505

   => Energetics <=

    Nuclear Repulsion Energy =            443.8560122675120851
    One-Electron Energy =               -1404.5646819082089678
    Two-Electron Energy =                 573.4405972456913787
    DFT Exchange-Correlation Energy =       0.0000000000000000
    Empirical Dispersion Energy =           0.0000000000000000
    PCM Polarization Energy =               0.0000000000000000
    EFP Energy =                            0.0000000000000000
    Total Energy =                       -387.2680723950054471
    Molecular point group: c1
  Basis Set: CC-PVTZ
  Basis Set:

  -Total Gradient:
     Atom            X                  Y                   Z
    ------   -----------------  -----------------  -----------------
       1        0.000021316544     0.000019730726     0.000005345885
       2       -0.000025016932     0.000002129142    -0.000017372524
       3        0.000014074356     0.000007465103     0.000011777713
       4        0.000008981746    -0.000006164500     0.000001244580
       5       -0.000003318199    -0.000010114532    -0.000005301884
       6       -0.000012491541    -0.000001680715    -0.000004447350
       7       -0.000006118889    -0.000002846278     0.000006081540
       8        0.000011922961    -0.000010020897    -0.000019064957
       9        0.000004220433    -0.000001510266    -0.000002611466
      10       -0.000006366213     0.000004682340    -0.000004212979
      11       -0.004796244112     0.004498479420     0.000012211337
      12       -0.000003607861     0.000000171287    -0.000004758935
      13        0.000005081496    -0.000001147732    -0.000003657691
      14       -0.002264166151     0.002929068603    -0.005418627674
      15        0.004386600058    -0.004259095228     0.000868643038
      16       -0.000005216187     0.000003068678    -0.000001874519
      17       -0.000009992609     0.000004547424    -0.000000255656
      18        0.002673389574    -0.003178345642     0.004566929210
      19        0.000005120390    -0.000002244408     0.000000362138
      20       -0.000002719393     0.000002474733    -0.000000873132
      21        0.000002221618     0.000001239171    -0.000001928981
      22       -0.000003387111    -0.000002357584     0.000000300962
      23        0.000000025609    -0.000001084790    -0.000000792221
      24        0.000008900129     0.000005865615     0.000003881787
      25       -0.000003209715    -0.000002309670     0.000009001781

  **** Optimization is complete! (in 9 steps) ****
    Final optimized geometry and variables:
    Molecular point group: c1

    Geometry (in Angstrom), charge = 0, multiplicity = 1:

    O            2.333046311294     2.136260001789     0.207399017482
    C            1.405158025218     2.301094944001    -0.514994450113
    C            0.292737959957     1.281270815079    -0.651578749385
    C            1.272120953282     3.552181093719    -1.353743245859
    C            0.465613898037     0.039924872688     0.212180699579
    H           -0.643155608113     1.784893216387    -0.420318978126
    H            0.222877248319     1.012446167716    -1.703220279660
    C           -0.677281753942    -0.957474364118     0.040752865031
    H            0.540798579312     0.337940828403     1.251826691827
    H            1.409449130685    -0.434086146345    -0.031443233687
    C           -0.504680774980    -2.195262806389     0.915868632796
    H           -1.617546126838    -0.466098817528     0.271349717219
    H           -0.738785500113    -1.258666004060    -1.002834644438
    C           -1.555931030707    -3.311101266930     0.753228763345
    H           -0.435490548071    -1.911742567932     1.962216465867
    H            0.467608414934    -2.628362689225     0.695736621817
    C           -2.973943123714    -2.870386960909     0.404567403907
    H           -1.198457457794    -4.042600064547     0.035098200687
    H           -1.595623854301    -3.859219118709     1.690229680966
    H           -3.026041238911    -2.390535497202    -0.565160393882
    H           -3.638584666555    -3.726330687521     0.381723418540
    H           -3.362946590145    -2.173756442105     1.139958776446
    H            0.354284156113     4.073191338617    -1.104362243588
    H            2.116689932002     4.201088900423    -1.180185168181
    H            1.220179186501     3.293658091246    -2.405619545190

  Mulliken Charges: (a.u.)
   Center  Symbol    Alpha    Beta     Spin     Total
       1     O     4.17094  4.17094  0.00000 -0.34187
       2     C     2.86224  2.86224  0.00000  0.27552
       3     C     3.11318  3.11318  0.00000 -0.22636
       4     C     3.15124  3.15124  0.00000 -0.30248
       5     C     3.08346  3.08346  0.00000 -0.16692
       6     H     0.44581  0.44581  0.00000  0.10838
       7     H     0.44572  0.44572  0.00000  0.10856
       8     C     3.09299  3.09299  0.00000 -0.18598
       9     H     0.44613  0.44613  0.00000  0.10774
      10     H     0.44535  0.44535  0.00000  0.10930
      11     C     3.09717  3.09717  0.00000 -0.19434
      12     H     0.45243  0.45243  0.00000  0.09513
      13     H     0.45456  0.45456  0.00000  0.09087
      14     C     3.08874  3.08874  0.00000 -0.17747
      15     H     0.45062  0.45062  0.00000  0.09876
      16     H     0.45154  0.45154  0.00000  0.09692
      17     C     3.15714  3.15714  0.00000 -0.31427
      18     H     0.45210  0.45210  0.00000  0.09579
      19     H     0.45141  0.45141  0.00000  0.09718
      20     H     0.45304  0.45304  0.00000  0.09391
      21     H     0.44458  0.44458  0.00000  0.11083
      22     H     0.45345  0.45345  0.00000  0.09311
      23     H     0.45035  0.45035  0.00000  0.09930
      24     H     0.43537  0.43537  0.00000  0.12926
      25     H     0.45044  0.45044  0.00000  0.09913

   Total alpha = 36.00000, Total beta = 36.00000, Total charge =  0.00000

*** Psi4 exiting successfully. Buy a developer a beer!
