  ==> Input File <==

--------------------------------------------------------------------------
set {
	reference rhf
	basis 6-31G*
}

set_num_threads( 4 )
memory 2 gb

molecule MOL {
0 1

H	 -2.698709	 -0.000305	 0.034435
C	 -1.693833	 0.000034	 0.434417
O	 -0.828952	 -0.000968	 -0.659236
H	 -1.574200	 0.882896	 1.055746
H	 -1.574147	 -0.881698	 1.057355
C	 -1.153977	 -0.797037	 -1.775093
C	 -1.164194	 -2.288690	 -1.446788
C	 -2.441204	 -0.344924	 -2.461823
H	 -0.332057	 -0.612994	 -2.456714
H	 -0.258879	 -2.563294	 -0.916179
H	 -1.211867	 -2.869821	 -2.362347
H	 -2.017484	 -2.569606	 -0.837569
H	 -2.420100	 0.725905	 -2.633102
H	 -2.543717	 -0.841313	 -3.421799
H	 -3.324120	 -0.581407	 -1.876693

	symmetry c1
}
set optking {
	frozen_dihedral = ("
		6 3 2 1
	")
}

ee = optimize('scf')
oeprop('DIPOLE', 'QUADRUPOLE', 'MULLIKEN_CHARGES')
f=open( 'psi4out.xyz', 'w' )
f.write( "15  " )
f.write( str(ee) + "\n" )
f.write( MOL.save_string_xyz() )
f.close()
--------------------------------------------------------------------------

    Molecular point group: c1
  Charge       = 0
  Multiplicity = 1
  Basis Set: 6-31G*
  Basis Set:
  @DF-RHF Final Energy:  -232.13448504433444
    Total Energy =                       -232.1344850443344967
    Molecular point group: c1
  Basis Set: 6-31G*
  Basis Set:
  Basis Set: 6-31G*
  Basis Set:
  @DF-RHF Final Energy:  -232.13646009178871
    Total Energy =                       -232.1364600917885923
  Basis Set: 6-31G*
  Basis Set:
  Basis Set: 6-31G*
  Basis Set:
  @DF-RHF Final Energy:  -232.13724500706539
    Total Energy =                       -232.1372450070654736
  Basis Set: 6-31G*
  Basis Set:
  Basis Set: 6-31G*
  Basis Set:
  @DF-RHF Final Energy:  -232.13726774575090
    Total Energy =                       -232.1372677457511600
  Basis Set: 6-31G*
  Basis Set:
  Basis Set: 6-31G*
  Basis Set:
  @DF-RHF Final Energy:  -232.13727786678174
    Total Energy =                       -232.1372778667816874
  Basis Set: 6-31G*
  Basis Set:
  Charge       = 0
  Multiplicity = 1
  Basis Set: 6-31G*
  Basis Set:

    Orbital Energies (a.u.)
    -----------------------

    Doubly Occupied:

       1A    -20.547621     2A    -11.274494     3A    -11.261388
       4A    -11.211493     5A    -11.209626     6A     -1.369914
       7A     -1.050228     8A     -0.940297     9A     -0.930745
      10A     -0.781382    11A     -0.675265    12A     -0.639866
      13A     -0.632633    14A     -0.571721    15A     -0.563762
      16A     -0.553175    17A     -0.535437    18A     -0.499510
      19A     -0.497033    20A     -0.443111    21A     -0.405040

  @DF-RHF Final Energy:  -232.13727741110867

   => Energetics <=

    Nuclear Repulsion Energy =            198.8275034991612813
    One-Electron Energy =                -708.7420772742868849
    Two-Electron Energy =                 277.7772963640169905
    DFT Exchange-Correlation Energy =       0.0000000000000000
    Empirical Dispersion Energy =           0.0000000000000000
    PCM Polarization Energy =               0.0000000000000000
    EFP Energy =                            0.0000000000000000
    Total Energy =                       -232.1372774111086414
    Molecular point group: c1
  Basis Set: 6-31G*
  Basis Set:

  -Total Gradient:
     Atom            X                  Y                   Z
    ------   -----------------  -----------------  -----------------
       1        0.000248219201    -0.001509380126    -0.000110266028
       2       -0.000391838207     0.002443369234    -0.000002426714
       3        0.000961610419    -0.001856497498     0.000559021211
       4       -0.000066041184    -0.000007469696     0.000055797949
       5       -0.000019473897    -0.000006917022    -0.000022039616
       6       -0.000709845849     0.000889585814    -0.000517799389
       7       -0.000026474788     0.000037587068     0.000056758926
       8        0.000015646743    -0.000036834890    -0.000036054601
       9        0.000006709522    -0.000004401098    -0.000017617650
      10       -0.000010452567     0.000010246101     0.000024487674
      11        0.000008462638     0.000031864079     0.000006634668
      12       -0.000018546000    -0.000016728571     0.000012451451
      13       -0.000022904787     0.000011327890     0.000028490493
      14       -0.000001535326     0.000025259011     0.000000316662
      15        0.000026464080    -0.000011010295    -0.000037755034

  **** Optimization is complete! (in 6 steps) ****
    Final optimized geometry and variables:
    Molecular point group: c1

    Geometry (in Angstrom), charge = 0, multiplicity = 1:

    H           -1.263650479698     0.509435683286     1.369922206457
    C           -0.213412092572     0.621589055354     1.619452237848
    O            0.601837334593     0.717733280650     0.490986959182
    H           -0.087910772550     1.535459291905     2.184566921226
    H            0.074741245825    -0.215662280032     2.249746415917
    C            0.317764690025    -0.105735813400    -0.615992878984
    C            0.292031557171    -1.588858520928    -0.253692502374
    C           -0.944403890216     0.339127053736    -1.352402315479
    H            1.161136677135     0.062240603180    -1.275204917642
    H            1.190670307667    -1.860859916785     0.289632278250
    H            0.243880364053    -2.192396754771    -1.154562709452
    H           -0.567890554246    -1.843784198417     0.358134533680
    H           -0.900060373950     1.402873643554    -1.557924292471
    H           -1.030776546385    -0.188387935595    -2.297433950377
    H           -1.846558003465     0.138296156169    -0.783718659346

  Mulliken Charges: (a.u.)
   Center  Symbol    Alpha    Beta     Spin     Total
       1     H     0.43071  0.43071  0.00000  0.13859
       2     C     3.08088  3.08088  0.00000 -0.16176
       3     O     4.31273  4.31273  0.00000 -0.62545
       4     H     0.41330  0.41330  0.00000  0.17340
       5     H     0.42732  0.42732  0.00000  0.14536
       6     C     2.90980  2.90980  0.00000  0.18039
       7     C     3.25462  3.25462  0.00000 -0.50924
       8     C     3.24994  3.24994  0.00000 -0.49989
       9     H     0.41543  0.41543  0.00000  0.16914
      10     H     0.41172  0.41172  0.00000  0.17656
      11     H     0.41852  0.41852  0.00000  0.16297
      12     H     0.42118  0.42118  0.00000  0.15764
      13     H     0.41126  0.41126  0.00000  0.17749
      14     H     0.42064  0.42064  0.00000  0.15871
      15     H     0.42196  0.42196  0.00000  0.15608

   Total alpha = 21.00000, Total beta = 21.00000, Total charge =  0.00000
