                              Psi4 1.0.54 Driver

  ==> Input File <==

--------------------------------------------------------------------------
set {
	reference rhf
	basis cc-pvtz
}

set_num_threads( 4 )
memory 2 gb

molecule MOL {
0 1

H	 -1.756164	 2.052335	 0.881862
C	 -1.933803	 1.070314	 1.299353
C	 -0.648268	 0.259580	 1.353425
H	 -2.674736	 0.582356	 0.680377
H	 -2.344424	 1.190472	 2.294770
C	 0.000000	 0.039916	 0.000014
H	 -0.825754	 -0.716966	 1.795868
H	 0.084851	 0.740204	 1.995632
C	 1.286532	 -0.763243	 0.000268
O	 -0.471910	 0.471272	 -1.000792
C	 2.547023	 0.087626	 -0.000114
H	 1.264245	 -1.421103	 -0.864380
H	 1.264290	 -1.420353	 0.865489
H	 2.584452	 0.725630	 -0.872909
H	 3.427035	 -0.544422	 0.000125
H	 2.584484	 0.726356	 0.872143

	symmetry c1
}
set optking {
	frozen_dihedral = ("
		3 6 9 12
	")
}

ee,wfn = optimize('scf', return_wfn=True)
oeprop( wfn, 'DIPOLE', 'QUADRUPOLE', 'MULLIKEN_CHARGES')
f=open( 'psi4out.xyz', 'w' )
f.write( "16  " )
f.write( str(ee) + "\n" )
f.write( MOL.save_string_xyz() )
f.close()
--------------------------------------------------------------------------

    Molecular point group: c1
  Charge       = 0
  Multiplicity = 1
  Basis Set: CC-PVTZ
  Basis Set:
  @DF-RHF Final Energy:  -270.12904208671779
    Total Energy =                       -270.1290420867178455
    Molecular point group: c1
  Basis Set: CC-PVTZ
  Basis Set:
  Basis Set: CC-PVTZ
  Basis Set:
  @DF-RHF Final Energy:  -270.12966261243355
    Total Energy =                       -270.1296626124333784
  Basis Set: CC-PVTZ
  Basis Set:
  Basis Set: CC-PVTZ
  Basis Set:
  @DF-RHF Final Energy:  -270.12955949903983
    Total Energy =                       -270.1295594990397717
  Basis Set: CC-PVTZ
  Basis Set:
  Basis Set: CC-PVTZ
  Basis Set:
  @DF-RHF Final Energy:  -270.12986667566048
    Total Energy =                       -270.1298666756609919
  Basis Set: CC-PVTZ
  Basis Set:
  Basis Set: CC-PVTZ
  Basis Set:
  @DF-RHF Final Energy:  -270.12991662708635
    Total Energy =                       -270.1299166270864021
  Basis Set: CC-PVTZ
  Basis Set:
  Basis Set: CC-PVTZ
  Basis Set:
  @DF-RHF Final Energy:  -270.12998923850347
    Total Energy =                       -270.1299892385034696
  Basis Set: CC-PVTZ
  Basis Set:
  Basis Set: CC-PVTZ
  Basis Set:
  @DF-RHF Final Energy:  -270.12999320652261
    Total Energy =                       -270.1299932065226699
  Basis Set: CC-PVTZ
  Basis Set:
  Charge       = 0
  Multiplicity = 1
  Basis Set: CC-PVTZ
  Basis Set:

    Orbital Energies (a.u.)
    -----------------------

    Doubly Occupied:

       1A    -20.537328     2A    -11.317243     3A    -11.232932
       4A    -11.230357     5A    -11.224419     6A    -11.211828
       7A     -1.397737     8A     -1.071979     9A     -1.037790
      10A     -0.913337    11A     -0.855096    12A     -0.727831
      13A     -0.666357    14A     -0.644644    15A     -0.625207
      16A     -0.602857    17A     -0.567745    18A     -0.539644
      19A     -0.532437    20A     -0.512480    21A     -0.503544
      22A     -0.499154    23A     -0.480483    24A     -0.398240

  @DF-RHF Final Energy:  -270.12999351439851

   => Energetics <=

    Nuclear Repulsion Energy =            240.9331268544135298
    One-Electron Energy =                -843.4649051969745415
    Two-Electron Energy =                 332.4017848281627039
    DFT Exchange-Correlation Energy =       0.0000000000000000
    Empirical Dispersion Energy =           0.0000000000000000
    PCM Polarization Energy =               0.0000000000000000
    EFP Energy =                            0.0000000000000000
    Total Energy =                       -270.1299935143982793
    Molecular point group: c1
  Basis Set: CC-PVTZ
  Basis Set:

  -Total Gradient:
     Atom            X                  Y                   Z
    ------   -----------------  -----------------  -----------------
       1       -0.000001103355     0.000006673733    -0.000003215725
       2        0.000011806618     0.000001897971     0.000003959698
       3       -0.000000843935     0.000014842081    -0.000028558419
       4        0.000015121342    -0.000006811790     0.000005259226
       5       -0.000001512003    -0.000001376473     0.000004960616
       6       -0.000020867853    -0.000004297743    -0.000030244752
       7       -0.000000064924    -0.000005356675     0.000004816565
       8       -0.000009794864     0.000006154321     0.000005656917
       9       -0.000012658207    -0.000021388828     0.000021967771
      10        0.000000951094    -0.000010330974     0.000023546948
      11        0.000004623037     0.000002458435     0.000002733768
      12        0.000013188495     0.000027221226    -0.000010288434
      13        0.000006014660    -0.000007741022     0.000003303957
      14       -0.000003338966     0.000004442952    -0.000006316909
      15       -0.000003787483    -0.000005452327     0.000001796203
      16        0.000002266344    -0.000000934885     0.000000622567

  **** Optimization is complete! (in 7 steps) ****
    Final optimized geometry and variables:
    Molecular point group: c1

    Geometry (in Angstrom), charge = 0, multiplicity = 1:

    H           -1.734858243952     1.924433882434     0.660402212194
    C           -2.026272429156     0.940293669305     1.003447762951
    C           -0.826619155303     0.009176561525     1.070516296006
    H           -2.770560089068     0.562954833601     0.315549625211
    H           -2.481493357610     1.040184297825     1.981554382225
    C           -0.130609025947    -0.203984121989    -0.256866453613
    H           -1.117607637743    -0.973024076165     1.436010799111
    H           -0.087097265507     0.372106529006     1.779791095389
    C            1.159221204051    -1.003290944639    -0.237677117714
    O           -0.554266607956     0.242445681896    -1.273153271909
    C            2.376512815726    -0.075280024201    -0.286664748755
    H            1.156807436661    -1.646961077142    -1.107750182223
    H            1.204300467763    -1.627768828395     0.647025663316
    H            2.353372241345     0.532609445004    -1.181361555678
    H            3.292103840112    -0.653142069160    -0.289752955778
    H            2.406297298825     0.586802517956     0.571776133342

  Mulliken Charges: (a.u.)
   Center  Symbol    Alpha    Beta     Spin     Total
       1     H     0.44917  0.44917  0.00000  0.10166
       2     C     3.14101  3.14101  0.00000 -0.28201
       3     C     3.10541  3.10541  0.00000 -0.21082
       4     H     0.44626  0.44626  0.00000  0.10748
       5     H     0.45074  0.45074  0.00000  0.09852
       6     C     2.86263  2.86263  0.00000  0.27475
       7     H     0.44480  0.44480  0.00000  0.11039
       8     H     0.44526  0.44526  0.00000  0.10948
       9     C     3.09594  3.09594  0.00000 -0.19189
      10     O     4.17819  4.17819  0.00000 -0.35637
      11     C     3.14785  3.14785  0.00000 -0.29569
      12     H     0.43956  0.43956  0.00000  0.12088
      13     H     0.44912  0.44912  0.00000  0.10177
      14     H     0.44237  0.44237  0.00000  0.11525
      15     H     0.44683  0.44683  0.00000  0.10635
      16     H     0.45487  0.45487  0.00000  0.09026

   Total alpha = 24.00000, Total beta = 24.00000, Total charge = -0.00000

*** Psi4 exiting successfully. Buy a developer a beer!
