  ==> Input File <==

--------------------------------------------------------------------------
set {
	reference rhf
	basis 6-31G*
}

set_num_threads( 1 )
memory 2 gb

molecule MOL {
0 1

H	 2.465338	 -2.224223	 0.000000
O	 2.784187	 -1.332015	 0.000000
C	 1.765313	 -0.449364	 0.000000
C	 1.282608	 -0.031197	 -1.236154
C	 1.203031	 0.037741	 1.163917
H	 1.736402	 -0.424318	 -2.126313
C	 0.241126	 0.871040	 -1.302109
H	 1.555032	 -0.267197	 2.129647
C	 0.158661	 0.942479	 1.061162
H	 -0.125315	 1.188488	 -2.260652
C	 -0.340811	 1.375172	 -0.146668
N	 -0.432574	 1.454667	 2.295500
H	 -1.149289	 2.075557	 -0.181717
O	 0.018564	 1.063846	 3.329795
O	 -1.330963	 2.232941	 2.198288

	symmetry c1
}
set optking {
	frozen_dihedral = ("
		11 9 12 14
	")
}

ee = energy('scf')
oeprop('DIPOLE', 'QUADRUPOLE', 'MULLIKEN_CHARGES')
f=open( 'psi4out.xyz', 'w' )
f.write( "15  " )
f.write( str(ee) + "\n" )
f.write( MOL.save_string_xyz() )
f.close()
--------------------------------------------------------------------------

    Molecular point group: c1

    Geometry (in Angstrom), charge = 0, multiplicity = 1:

       Center              X                  Y                   Z               Mass
    ------------   -----------------  -----------------  -----------------  -----------------
           H          1.935080100571    -2.836317696918    -0.809835309595     1.007825032070
           O          2.253929100571    -1.944109696918    -0.809835309595    15.994914619560
           C          1.235055100571    -1.061458696918    -0.809835309595    12.000000000000
           C          0.752350100571    -0.643291696918    -2.045989309595    12.000000000000
           C          0.672773100571    -0.574353696918     0.354081690405    12.000000000000
           H          1.206144100571    -1.036412696918    -2.936148309595     1.007825032070
           C         -0.289131899429     0.258945303082    -2.111944309595    12.000000000000
           H          1.024774100571    -0.879291696918     1.319811690405     1.007825032070
           C         -0.371596899429     0.330384303082     0.251326690405    12.000000000000
           H         -0.655572899429     0.576393303082    -3.070487309595     1.007825032070
           C         -0.871068899429     0.763077303082    -0.956503309595    12.000000000000
           N         -0.962831899429     0.842572303082     1.485664690405    14.003074004780
           H         -1.679546899429     1.463462303082    -0.991552309595     1.007825032070
           O         -0.511693899429     0.451751303082     2.519959690405    15.994914619560
           O         -1.861220899429     1.620846303082     1.388452690405    15.994914619560

  Charge       = 0
  Multiplicity = 1
  Basis Set: 6-31G*
  Basis Set:

    Orbital Energies (a.u.)
    -----------------------

    Doubly Occupied:

       1A    -20.603592     2A    -20.602969     3A    -20.601153
       4A    -15.858101     5A    -11.320656     6A    -11.308638
       7A    -11.269213     8A    -11.267346     9A    -11.265117
      10A    -11.262819    11A     -1.636867    12A     -1.426142
      13A     -1.420111    14A     -1.200092    15A     -1.093653
      16A     -1.045571    17A     -0.963473    18A     -0.869172
      19A     -0.832993    20A     -0.793131    21A     -0.737212
      22A     -0.735682    23A     -0.722640    24A     -0.709923
      25A     -0.681064    26A     -0.642306    27A     -0.626766
      28A     -0.568214    29A     -0.557443    30A     -0.527495
      31A     -0.509199    32A     -0.489626    33A     -0.483720
      34A     -0.453598    35A     -0.376629    36A     -0.357086

  @DF-RHF Final Energy:  -509.02235609360378

   => Energetics <=

    Nuclear Repulsion Energy =            503.2342231937075212
    One-Electron Energy =               -1692.8741544854519816
    Two-Electron Energy =                 680.6175751981420490
    DFT Exchange-Correlation Energy =       0.0000000000000000
    Empirical Dispersion Energy =           0.0000000000000000
    PCM Polarization Energy =               0.0000000000000000
    EFP Energy =                            0.0000000000000000
    Total Energy =                       -509.0223560936024114

  Mulliken Charges: (a.u.)
   Center  Symbol    Alpha    Beta     Spin     Total
       1     H     0.26635  0.26635  0.00000  0.46729
       2     O     4.38363  4.38363  0.00000 -0.76726
       3     C     2.81752  2.81752  0.00000  0.36495
       4     C     3.10381  3.10381  0.00000 -0.20763
       5     C     3.11191  3.11191  0.00000 -0.22382
       6     H     0.38396  0.38396  0.00000  0.23208
       7     C     3.10598  3.10598  0.00000 -0.21196
       8     H     0.35946  0.35946  0.00000  0.28107
       9     C     2.91813  2.91813  0.00000  0.16375
      10     H     0.38768  0.38768  0.00000  0.22464
      11     C     3.09050  3.09050  0.00000 -0.18100
      12     N     3.24015  3.24015  0.00000  0.51970
      13     H     0.36390  0.36390  0.00000  0.27219
      14     O     4.23369  4.23369  0.00000 -0.46737
      15     O     4.23332  4.23332  0.00000 -0.46664

   Total alpha = 36.00000, Total beta = 36.00000, Total charge =  0.00000
