                              Psi4 1.0.54 Driver

  ==> Input File <==

--------------------------------------------------------------------------
set {
	reference rhf
	basis cc-pvtz
}

set_num_threads( 4 )
memory 2 gb

molecule MOL {
0 1

O	 -0.266223	 -0.214780	 -2.986288
C	 -0.843227	 0.257750	 -2.061511
C	 -0.881910	 -0.448129	 -0.720509
C	 -1.549425	 1.588675	 -2.164917
C	 0.376695	 -0.140025	 0.100361
H	 -0.939333	 -1.512180	 -0.911846
H	 -1.765874	 -0.152925	 -0.165236
C	 1.630207	 -0.772146	 -0.501001
H	 0.486632	 0.935267	 0.162725
H	 0.248225	 -0.501310	 1.117842
C	 2.907848	 -0.545876	 0.309149
H	 1.772784	 -0.391628	 -1.509394
H	 1.468529	 -1.842059	 -0.599744
C	 3.373802	 0.906639	 0.372125
H	 3.699140	 -1.146831	 -0.127906
H	 2.764321	 -0.923458	 1.318191
H	 3.519798	 1.311927	 -0.623875
H	 4.316899	 0.983758	 0.900700
H	 2.661122	 1.540651	 0.885346
H	 -2.620265	 1.431598	 -2.083502
H	 -1.324938	 2.056417	 -3.111168
H	 -1.258601	 2.240891	 -1.349059

	symmetry c1
}
set optking {
	frozen_dihedral = ("
		6 3 5 8
	")
}

ee,wfn = optimize('scf', return_wfn=True)
oeprop( wfn, 'DIPOLE', 'QUADRUPOLE', 'MULLIKEN_CHARGES')
f=open( 'psi4out.xyz', 'w' )
f.write( "22  " )
f.write( str(ee) + "\n" )
f.write( MOL.save_string_xyz() )
f.close()
--------------------------------------------------------------------------

    Molecular point group: c1
  Charge       = 0
  Multiplicity = 1
  Basis Set: CC-PVTZ
  Basis Set:
  @DF-RHF Final Energy:  -348.22116840624193
    Total Energy =                       -348.2211684062417589
    Molecular point group: c1
  Basis Set: CC-PVTZ
  Basis Set:
  Basis Set: CC-PVTZ
  Basis Set:
  @DF-RHF Final Energy:  -348.22176742706637
    Total Energy =                       -348.2217674270669932
  Basis Set: CC-PVTZ
  Basis Set:
  Basis Set: CC-PVTZ
  Basis Set:
  @DF-RHF Final Energy:  -348.22182109635924
    Total Energy =                       -348.2218210963593492
  Basis Set: CC-PVTZ
  Basis Set:
  Basis Set: CC-PVTZ
  Basis Set:
  @DF-RHF Final Energy:  -348.22196496378439
    Total Energy =                       -348.2219649637841599
  Basis Set: CC-PVTZ
  Basis Set:
  @DF-RHF Final Energy:  -348.22205749378224
    Total Energy =                       -348.2220574937824722
  @DF-RHF Final Energy:  -348.22207660904957
    Total Energy =                       -348.2220766090499637
  Basis Set: CC-PVTZ
  Basis Set:
  @DF-RHF Final Energy:  -348.22210310871992
    Total Energy =                       -348.2221031087199776
  Basis Set: CC-PVTZ
  Basis Set:
  Basis Set: CC-PVTZ
  Basis Set:
  @DF-RHF Final Energy:  -348.22211901331934
    Total Energy =                       -348.2221190133196842
  Basis Set: CC-PVTZ
  Basis Set:
  Basis Set: CC-PVTZ
  Basis Set:
  @DF-RHF Final Energy:  -348.22212259899243
    Total Energy =                       -348.2221225989927689
  Basis Set: CC-PVTZ
  Basis Set:
  Charge       = 0
  Multiplicity = 1
  Basis Set: CC-PVTZ
  Basis Set:

    Orbital Energies (a.u.)
    -----------------------

    Doubly Occupied:

       1A    -20.537355     2A    -11.319350     3A    -11.229382
       4A    -11.228276     5A    -11.226536     6A    -11.216510
       7A    -11.214461     8A    -11.209424     9A     -1.397135
      10A     -1.095742    11A     -1.044490    12A     -0.998514
      13A     -0.937741    14A     -0.860022    15A     -0.787878
      16A     -0.732642    17A     -0.660512    18A     -0.646164
      19A     -0.628350    20A     -0.615072    21A     -0.600566
      22A     -0.581576    23A     -0.566695    24A     -0.545249
      25A     -0.534453    26A     -0.515957    27A     -0.508738
      28A     -0.490255    29A     -0.469352    30A     -0.461813
      31A     -0.454469    32A     -0.399247

  @DF-RHF Final Energy:  -348.22212298183530

   => Energetics <=

    Nuclear Repulsion Energy =            381.4419329727385843
    One-Electron Energy =               -1227.9002590861296085
    Two-Electron Energy =                 498.2362031315558397
    DFT Exchange-Correlation Energy =       0.0000000000000000
    Empirical Dispersion Energy =           0.0000000000000000
    PCM Polarization Energy =               0.0000000000000000
    EFP Energy =                            0.0000000000000000
    Total Energy =                       -348.2221229818351276
    Molecular point group: c1
  Basis Set: CC-PVTZ
  Basis Set:

  -Total Gradient:
     Atom            X                  Y                   Z
    ------   -----------------  -----------------  -----------------
       1       -0.000012285798    -0.000001286722    -0.000016248818
       2        0.000053215545    -0.000009388643    -0.000011734768
       3       -0.000503991588    -0.000281491550     0.000823237742
       4       -0.000053266800    -0.000000672780    -0.000010096826
       5        0.000225168235     0.000633635442    -0.000520275043
       6        0.000372990764     0.000079096766    -0.000578113503
       7       -0.000000707525    -0.000006641236     0.000002251540
       8       -0.000088047241    -0.000456239323     0.000321684694
       9        0.000001734651     0.000001554058     0.000010450203
      10        0.000021994944     0.000000327026    -0.000007038696
      11        0.000006373964     0.000011043201    -0.000041002033
      12       -0.000001617577     0.000023432104     0.000024178033
      13       -0.000000824746    -0.000020505045    -0.000018166481
      14       -0.000010112604     0.000005723979     0.000018796199
      15       -0.000013987890    -0.000025869221    -0.000005362477
      16       -0.000011235546     0.000013609790    -0.000001071305
      17       -0.000001491356    -0.000004502303    -0.000002700346
      18        0.000008491766     0.000002934430     0.000004293904
      19       -0.000006990874     0.000012300463    -0.000000854285
      20       -0.000007328275     0.000013198219     0.000008676902
      21        0.000008251077    -0.000002802845    -0.000000738392
      22        0.000013666871     0.000012544190    -0.000000166244

  **** Optimization is complete! (in 10 steps) ****
    Final optimized geometry and variables:
    Molecular point group: c1

    Geometry (in Angstrom), charge = 0, multiplicity = 1:

    O           -1.095473538909    -0.451842200413    -2.137227698373
    C           -1.457102816435     0.124320940186    -1.162937102225
    C           -1.470895322672    -0.546774522149     0.196657280042
    C           -1.934753429732     1.557154171028    -1.231256400712
    C           -0.228327274112    -0.214735803895     1.039892947678
    H           -1.529018026508    -1.614222251371     0.029922901782
    H           -2.359369868650    -0.233960813862     0.735142043438
    C            1.059139286080    -0.847276432745     0.512440483381
    H           -0.118828400902     0.861390816035     1.117143886673
    H           -0.407922614367    -0.571721759881     2.049162930591
    C            2.286060848718    -0.598505964855     1.391501919224
    H            1.260202155011    -0.493976903887    -0.493776135385
    H            0.903962866089    -1.918505977768     0.427399988346
    C            2.754793377658     0.854018722642     1.438158884290
    H            3.099556942519    -1.213353451465     1.019980400557
    H            2.082681510077    -0.944794195379     2.401618090016
    H            2.960090793234     1.228303919366     0.440457740065
    H            3.666106217534     0.944968238251     2.017898845593
    H            2.017440955272     1.506142116394     1.891360100139
    H           -3.008537812275     1.577636772537    -1.073967536107
    H           -1.708796410751     1.974550587074    -2.200435177866
    H           -1.484582404529     2.160772125220    -0.452520868494

  Mulliken Charges: (a.u.)
   Center  Symbol    Alpha    Beta     Spin     Total
       1     O     4.17642  4.17642  0.00000 -0.35285
       2     C     2.85710  2.85710  0.00000  0.28580
       3     C     3.10536  3.10536  0.00000 -0.21071
       4     C     3.15452  3.15452  0.00000 -0.30903
       5     C     3.11410  3.11410  0.00000 -0.22819
       6     H     0.43933  0.43933  0.00000  0.12134
       7     H     0.44056  0.44056  0.00000  0.11889
       8     C     3.09202  3.09202  0.00000 -0.18404
       9     H     0.44882  0.44882  0.00000  0.10236
      10     H     0.44440  0.44440  0.00000  0.11120
      11     C     3.09010  3.09010  0.00000 -0.18021
      12     H     0.44437  0.44437  0.00000  0.11126
      13     H     0.44689  0.44689  0.00000  0.10622
      14     C     3.15403  3.15403  0.00000 -0.30806
      15     H     0.44661  0.44661  0.00000  0.10677
      16     H     0.45523  0.45523  0.00000  0.08954
      17     H     0.45273  0.45273  0.00000  0.09454
      18     H     0.44534  0.44534  0.00000  0.10933
      19     H     0.45605  0.45605  0.00000  0.08790
      20     H     0.44863  0.44863  0.00000  0.10275
      21     H     0.43630  0.43630  0.00000  0.12739
      22     H     0.45110  0.45110  0.00000  0.09781

   Total alpha = 32.00000, Total beta = 32.00000, Total charge =  0.00000

*** Psi4 exiting successfully. Buy a developer a beer!
