                              Psi4 1.0.54 Driver

  ==> Input File <==

--------------------------------------------------------------------------
set {
	reference rhf
	basis cc-pvtz
}

set_num_threads( 4 )
memory 2 gb

molecule MOL {
0 1

H	 -1.910173	 -0.878781	 -0.339344
O	 -2.041679	 -0.058866	 0.103463
C	 -0.959304	 0.780994	 -0.094939
C	 0.354905	 0.037902	 -0.006215
H	 -0.985899	 1.279578	 -1.057596
H	 -0.969809	 1.529522	 0.682889
F	 0.412060	 -0.931028	 -0.902708
F	 1.359641	 0.856111	 -0.239961
F	 0.545380	 -0.506387	 1.171682

	symmetry c1
}
set optking {
	frozen_dihedral = ("
		1 2 3 5
	")
}

ee,wfn = optimize('scf', return_wfn=True)
oeprop( wfn, 'DIPOLE', 'QUADRUPOLE', 'MULLIKEN_CHARGES')
f=open( 'psi4out.xyz', 'w' )
f.write( "9  " )
f.write( str(ee) + "\n" )
f.write( MOL.save_string_xyz() )
f.close()
--------------------------------------------------------------------------

    Molecular point group: c1
  Charge       = 0
  Multiplicity = 1
  Basis Set: CC-PVTZ
  Basis Set:
  @DF-RHF Final Energy:  -450.84601519048488
    Total Energy =                       -450.8460151904847635
    Molecular point group: c1
  Basis Set: CC-PVTZ
  Basis Set:
  Basis Set: CC-PVTZ
  Basis Set:
  @DF-RHF Final Energy:  -450.84609465987614
    Total Energy =                       -450.8460946598760870
  Basis Set: CC-PVTZ
  Basis Set:
  Basis Set: CC-PVTZ
  Basis Set:
  @DF-RHF Final Energy:  -450.84611403846935
    Total Energy =                       -450.8461140384694090
  Basis Set: CC-PVTZ
  Basis Set:
  Charge       = 0
  Multiplicity = 1
  Basis Set: CC-PVTZ
  Basis Set:

    Orbital Energies (a.u.)
    -----------------------

    Doubly Occupied:

       1A    -26.344492     2A    -26.343500     3A    -26.339776
       4A    -20.582404     5A    -11.498624     6A    -11.309735
       7A     -1.752263     8A     -1.649641     9A     -1.646824
      10A     -1.405778    11A     -1.052406    12A     -0.933006
      13A     -0.841842    14A     -0.840499    15A     -0.818977
      16A     -0.728725    17A     -0.723078    18A     -0.697417
      19A     -0.675449    20A     -0.671002    21A     -0.653543
      22A     -0.636744    23A     -0.626698    24A     -0.530721
      25A     -0.483710

  @DF-RHF Final Energy:  -450.84611505577874

   => Energetics <=

    Nuclear Repulsion Energy =            277.9215444906948846
    One-Electron Energy =               -1177.9616149463847705
    Two-Electron Energy =                 449.1939553999111467
    DFT Exchange-Correlation Energy =       0.0000000000000000
    Empirical Dispersion Energy =           0.0000000000000000
    PCM Polarization Energy =               0.0000000000000000
    EFP Energy =                            0.0000000000000000
    Total Energy =                       -450.8461150557786823
    Molecular point group: c1
  Basis Set: CC-PVTZ
  Basis Set:

  -Total Gradient:
     Atom            X                  Y                   Z
    ------   -----------------  -----------------  -----------------
       1        0.001257082847    -0.001075546604     0.002288628131
       2       -0.001955094617     0.001892717806    -0.002495380872
       3        0.001991400033    -0.002728196993    -0.000896110424
       4       -0.000111289823    -0.000075336548     0.000102783667
       5       -0.001224125748     0.001867448389     0.001079549600
       6        0.000005933443    -0.000008456294     0.000010070642
       7       -0.000001912030     0.000053046413     0.000135771135
       8        0.000091338131     0.000109125203    -0.000076785180
       9       -0.000053332238    -0.000034801374    -0.000148526698

  **** Optimization is complete! (in 4 steps) ****
    Final optimized geometry and variables:
    Molecular point group: c1

    Geometry (in Angstrom), charge = 0, multiplicity = 1:

    H           -1.934850660696    -0.872026259282    -0.369782189116
    O           -2.051303350879    -0.058959062549     0.090228251396
    C           -0.961943925262     0.776976593325    -0.095411804420
    C            0.355210831257     0.042827625186    -0.007705872461
    H           -0.996754015477     1.293729012525    -1.048252111385
    H           -0.973768631561     1.519434360620     0.689175240235
    F            0.406054993660    -0.944883225706    -0.885611948150
    F            1.354392841879     0.857567041215    -0.264128121498
    F            0.556965451473    -0.483833500918     1.177573006172

  Mulliken Charges: (a.u.)
   Center  Symbol    Alpha    Beta     Spin     Total
       1     H     0.38660  0.38660  0.00000  0.22680
       2     O     4.19374  4.19374  0.00000 -0.38747
       3     C     2.98002  2.98002  0.00000  0.03995
       4     C     2.68728  2.68728  0.00000  0.62544
       5     H     0.46461  0.46461  0.00000  0.07078
       6     H     0.45225  0.45225  0.00000  0.09550
       7     F     4.61807  4.61807  0.00000 -0.23613
       8     F     4.60959  4.60959  0.00000 -0.21918
       9     F     4.60784  4.60784  0.00000 -0.21569

   Total alpha = 25.00000, Total beta = 25.00000, Total charge = -0.00000

*** Psi4 exiting successfully. Buy a developer a beer!
