                              Psi4 1.0.54 Driver

  ==> Input File <==

--------------------------------------------------------------------------
set {
	reference rhf
	basis cc-pvtz
}

set_num_threads( 4 )
memory 2 gb

molecule MOL {
0 1

H	 -1.766177	 0.465300	 -2.649872
O	 -1.985567	 0.230401	 -1.766928
C	 -1.019035	 0.721403	 -0.880997
C	 0.267506	 -0.075861	 -0.964501
H	 -0.808902	 1.770910	 -1.061296
H	 -1.431097	 0.636169	 0.114303
O	 1.172093	 0.457955	 -0.054438
H	 0.670326	 -0.027323	 -1.977554
H	 0.062121	 -1.121393	 -0.744828
C	 2.395478	 -0.199028	 -0.000366
H	 2.505946	 -0.901710	 -0.823354
H	 3.174616	 0.545641	 -0.071768
H	 2.513730	 -0.742241	 0.934223

	symmetry c1
}
set optking {
	frozen_dihedral = ("
		4 7 10 13
	")
}

ee,wfn = optimize('scf', return_wfn=True)
oeprop( wfn, 'DIPOLE', 'QUADRUPOLE', 'MULLIKEN_CHARGES')
f=open( 'psi4out.xyz', 'w' )
f.write( "13  " )
f.write( str(ee) + "\n" )
f.write( MOL.save_string_xyz() )
f.close()
--------------------------------------------------------------------------

    Molecular point group: c1
  Charge       = 0
  Multiplicity = 1
  Basis Set: CC-PVTZ
  Basis Set:
  @DF-RHF Final Energy:  -268.05865419060387
    Total Energy =                       -268.0586541906038747
    Molecular point group: c1
  Basis Set: CC-PVTZ
  Basis Set:
  Basis Set: CC-PVTZ
  Basis Set:
  @DF-RHF Final Energy:  -268.04890129827345
    Total Energy =                       -268.0489012982732220
  Basis Set: CC-PVTZ
  Basis Set:
  Basis Set: CC-PVTZ
  Basis Set:
  @DF-RHF Final Energy:  -268.05890564868480
    Total Energy =                       -268.0589056486849699
  Basis Set: CC-PVTZ
  Basis Set:
  Basis Set: CC-PVTZ
  Basis Set:
  @DF-RHF Final Energy:  -268.05896331360998
    Total Energy =                       -268.0589633136100929
  Basis Set: CC-PVTZ
  Basis Set:
  Charge       = 0
  Multiplicity = 1
  Basis Set: CC-PVTZ
  Basis Set:

    Orbital Energies (a.u.)
    -----------------------

    Doubly Occupied:

       1A    -20.552704     2A    -20.552540     3A    -11.269694
       4A    -11.267360     5A    -11.266946     6A     -1.387826
       7A     -1.368393     8A     -1.019391     9A     -0.914223
      10A     -0.842411    11A     -0.711044    12A     -0.673572
      13A     -0.661305    14A     -0.637714    15A     -0.598329
      16A     -0.569742    17A     -0.550594    18A     -0.491135
      19A     -0.483408    20A     -0.441146    21A     -0.419226

  @DF-RHF Final Energy:  -268.05896391105233

   => Energetics <=

    Nuclear Repulsion Energy =            190.1765526946205114
    One-Electron Energy =                -743.1136400780460463
    Two-Electron Energy =                 284.8781234723733178
    DFT Exchange-Correlation Energy =       0.0000000000000000
    Empirical Dispersion Energy =           0.0000000000000000
    PCM Polarization Energy =               0.0000000000000000
    EFP Energy =                            0.0000000000000000
    Total Energy =                       -268.0589639110521603
    Molecular point group: c1
  Basis Set: CC-PVTZ
  Basis Set:

  -Total Gradient:
     Atom            X                  Y                   Z
    ------   -----------------  -----------------  -----------------
       1        0.000006445975     0.000011736033    -0.000028866985
       2       -0.000093224990    -0.000013183900     0.000021302291
       3        0.000025984219    -0.000030888201    -0.000059990590
       4        0.000400920069     0.000480185029    -0.001018432128
       5       -0.000004011497     0.000022832190     0.000002404498
       6       -0.000014754565    -0.000005403094    -0.000002050883
       7       -0.000318627470    -0.000334790342     0.001607708539
       8        0.000019275825     0.000012625354     0.000006834747
       9        0.000017473467    -0.000004634922     0.000006929403
      10       -0.000693904515    -0.001436489897    -0.000800135080
      11        0.000002014751    -0.000037302714    -0.000022374479
      12       -0.000008502885     0.000010642539    -0.000008171378
      13        0.000660911621     0.001324671925     0.000294842046

  **** Optimization is complete! (in 5 steps) ****
    Final optimized geometry and variables:
    Molecular point group: c1

    Geometry (in Angstrom), charge = 0, multiplicity = 1:

    H           -1.957700399559    -0.189073632009    -1.868646041150
    O           -2.164407105413    -0.174098182814    -0.952139097907
    C           -1.158094667849     0.490120381912    -0.240136766802
    C            0.093242661256    -0.357509934000    -0.125198919529
    H           -0.910470503128     1.444099771005    -0.694900662846
    H           -1.549411361321     0.689906767197     0.747108765704
    O            1.038780627092     0.363020287994     0.596712783292
    H            0.470981282597    -0.596836588890    -1.119947459256
    H           -0.150679736240    -1.295936214167     0.367478199942
    C            2.256241871104    -0.277814498174     0.829302198766
    H            2.358334061234    -1.182171046886     0.239013930917
    H            3.064596258277     0.393676031483     0.567298533720
    H            2.353184443871    -0.533076243681     1.879098493894

  Mulliken Charges: (a.u.)
   Center  Symbol    Alpha    Beta     Spin     Total
       1     H     0.39415  0.39415  0.00000  0.21169
       2     O     4.20213  4.20213  0.00000 -0.40427
       3     C     2.97527  2.97527  0.00000  0.04947
       4     C     2.96479  2.96479  0.00000  0.07041
       5     H     0.46715  0.46715  0.00000  0.06569
       6     H     0.45278  0.45278  0.00000  0.09444
       7     O     4.18011  4.18011  0.00000 -0.36021
       8     H     0.48142  0.48142  0.00000  0.03716
       9     H     0.46981  0.46981  0.00000  0.06037
      10     C     3.02747  3.02747  0.00000 -0.05493
      11     H     0.47145  0.47145  0.00000  0.05710
      12     H     0.45476  0.45476  0.00000  0.09048
      13     H     0.45870  0.45870  0.00000  0.08260

   Total alpha = 21.00000, Total beta = 21.00000, Total charge =  0.00000

*** Psi4 exiting successfully. Buy a developer a beer!
