  ==> Input File <==

--------------------------------------------------------------------------
set {
	reference rhf
	basis cc-pvtz
}

set_num_threads( 4 )
memory 2 gb

molecule MOL {
0 1

H	 -3.412771	 -0.933096	 0.386883
O	 -3.112535	 -0.152320	 -0.042771
C	 -1.774743	 -0.061958	 -0.012028
C	 -0.983314	 -1.030559	 0.592860
C	 -1.193968	 1.043636	 -0.610815
H	 -1.441233	 -1.885462	 1.055329
C	 0.384000	 -0.888658	 0.595842
H	 -1.822417	 1.778924	 -1.071708
C	 0.176694	 1.170815	 -0.599177
H	 1.005627	 -1.628935	 1.059177
C	 0.981121	 0.213562	 0.000000
H	 0.628335	 2.028144	 -1.063425
C	 2.447402	 0.371303	 0.000000
O	 3.227427	 -0.521847	 0.000000
H	 2.796538	 1.409525	 0.000000

	symmetry c1
}
set optking {
	frozen_dihedral = ("
		7 11 13 14
	")
}

ee = optimize('scf')
oeprop('DIPOLE', 'QUADRUPOLE', 'MULLIKEN_CHARGES')
f=open( 'psi4out.xyz', 'w' )
f.write( "15  " )
f.write( str(ee) + "\n" )
f.write( MOL.save_string_xyz() )
f.close()
--------------------------------------------------------------------------

    Molecular point group: c1
  Charge       = 0
  Multiplicity = 1
  Basis Set: CC-PVTZ
  Basis Set:
  @DF-RHF Final Energy:  -418.43891844713528
    Total Energy =                       -418.4389184471353929
    Molecular point group: c1
  Basis Set: CC-PVTZ
  Basis Set:
  Basis Set: CC-PVTZ
  Basis Set:
  @DF-RHF Final Energy:  -418.43760233788799
    Total Energy =                       -418.4376023378881655
  Basis Set: CC-PVTZ
  Basis Set:
  Basis Set: CC-PVTZ
  Basis Set:
  @DF-RHF Final Energy:  -418.43928322377769
    Total Energy =                       -418.4392832237780340
  Basis Set: CC-PVTZ
  Basis Set:
  Basis Set: CC-PVTZ
  Basis Set:
  @DF-RHF Final Energy:  -418.43939467608556
    Total Energy =                       -418.4393946760860672
  Basis Set: CC-PVTZ
  Basis Set:
  Basis Set: CC-PVTZ
  Basis Set:
  @DF-RHF Final Energy:  -418.43939666315322
    Total Energy =                       -418.4393966631535022
  Basis Set: CC-PVTZ
  Basis Set:
  Charge       = 0
  Multiplicity = 1
  Basis Set: CC-PVTZ
  Basis Set:

    Orbital Energies (a.u.)
    -----------------------

    Doubly Occupied:

       1A    -20.603306     2A    -20.548692     3A    -11.324166
       4A    -11.320515     5A    -11.257005     6A    -11.254678
       7A    -11.241781     8A    -11.237982     9A    -11.236577
      10A     -1.436240    11A     -1.404360    12A     -1.174926
      13A     -1.044072    14A     -1.042210    15A     -0.891616
      16A     -0.870142    17A     -0.798291    18A     -0.761428
      19A     -0.717235    20A     -0.672145    21A     -0.648763
      22A     -0.631656    23A     -0.613976    24A     -0.610370
      25A     -0.589995    26A     -0.564778    27A     -0.548554
      28A     -0.508751    29A     -0.491793    30A     -0.422710
      31A     -0.361609    32A     -0.330904

  @DF-RHF Final Energy:  -418.43939812236619

   => Energetics <=

    Nuclear Repulsion Energy =            402.0550422143510900
    One-Electron Energy =               -1366.6664222885108302
    Two-Electron Energy =                 546.1719819517938959
    DFT Exchange-Correlation Energy =       0.0000000000000000
    Empirical Dispersion Energy =           0.0000000000000000
    PCM Polarization Energy =               0.0000000000000000
    EFP Energy =                            0.0000000000000000
    Total Energy =                       -418.4393981223659011
    Molecular point group: c1
  Basis Set: CC-PVTZ
  Basis Set:

  -Total Gradient:
     Atom            X                  Y                   Z
    ------   -----------------  -----------------  -----------------
       1       -0.000002850050     0.000005553092     0.000006673548
       2        0.000003060303    -0.000032020608    -0.000015759666
       3       -0.000019525480     0.000124410611     0.000006584884
       4        0.000084401943    -0.000028242404     0.000018143962
       5       -0.000062258226    -0.000087827879    -0.000046289009
       6       -0.000010340005    -0.000003462093    -0.000011934259
       7       -0.000524824470     0.002691120278     0.004487086832
       8        0.000006454275    -0.000001258653    -0.000003815950
       9        0.000073615383    -0.000006995798     0.000100845623
      10        0.000005393456     0.000006201103    -0.000003675999
      11        0.000744329490    -0.004029788507    -0.009576611816
      12       -0.000001006150    -0.000008059137    -0.000012700172
      13       -0.000526196911     0.001581213740     0.011488792620
      14        0.000224220412    -0.000202627158    -0.006442721284
      15        0.000005526041    -0.000008216588     0.000005380689

  **** Optimization is complete! (in 6 steps) ****
    Final optimized geometry and variables:
    Molecular point group: c1

    Geometry (in Angstrom), charge = 0, multiplicity = 1:

    H           -3.416554867965    -0.930354731723     0.386233944994
    O           -3.116038889585    -0.147709130487    -0.039964391396
    C           -1.776979305692    -0.062129884770    -0.013493509943
    C           -0.986344883125    -1.027977241275     0.593031254942
    C           -1.194440936033     1.044021303996    -0.610327444887
    H           -1.444129268112    -1.874684321375     1.070606723996
    C            0.383420641206    -0.893659717635     0.582472339459
    H           -1.822100629157     1.784277685951    -1.064580892033
    C            0.175554731041     1.175484902335    -0.591920315759
    H            1.002285794568    -1.638647498801     1.042811773674
    C            0.981385676478     0.198301727114    -0.027390484324
    H            0.624943072549     2.045635076716    -1.034274203194
    C            2.449006798927     0.375328393137     0.011501243594
    O            3.235060738409    -0.509928306179     0.060479022150
    H            2.790304578915     1.413933370118    -0.058085840300

  Mulliken Charges: (a.u.)
   Center  Symbol    Alpha    Beta     Spin     Total
       1     H     0.38556  0.38556  0.00000  0.22889
       2     O     4.16710  4.16710  0.00000 -0.33420
       3     C     2.84724  2.84724  0.00000  0.30552
       4     C     3.13008  3.13008  0.00000 -0.26016
       5     C     3.10607  3.10607  0.00000 -0.21214
       6     H     0.43131  0.43131  0.00000  0.13737
       7     C     3.07426  3.07426  0.00000 -0.14852
       8     H     0.41664  0.41664  0.00000  0.16672
       9     C     3.07010  3.07010  0.00000 -0.14021
      10     H     0.40937  0.40937  0.00000  0.18127
      11     C     2.98660  2.98660  0.00000  0.02679
      12     H     0.42196  0.42196  0.00000  0.15607
      13     C     2.91737  2.91737  0.00000  0.16526
      14     O     4.17515  4.17515  0.00000 -0.35029
      15     H     0.46119  0.46119  0.00000  0.07763

   Total alpha = 32.00000, Total beta = 32.00000, Total charge =  0.00000
