  ==> Input File <==

--------------------------------------------------------------------------
set {
	reference rhf
	basis 6-31G*
}

set_num_threads( 4 )
memory 2 gb

molecule MOL {
0 1

O	 -2.219505	 -0.430936	 1.797735
C	 -1.144145	 -0.009412	 2.098324
C	 0.121295	 -0.631441	 1.534367
C	 -0.986530	 1.176888	 3.023108
C	 0.379448	 -0.143569	 0.099626
H	 -0.014148	 -1.707523	 1.531770
H	 0.975013	 -0.399425	 2.164732
C	 1.631333	 -0.777471	 -0.511575
H	 -0.495418	 -0.373122	 -0.498120
H	 0.487912	 0.939925	 0.095000
C	 2.915987	 -0.544314	 0.291766
H	 1.766672	 -0.399098	 -1.523130
H	 1.471257	 -1.849544	 -0.605828
C	 3.373361	 0.914346	 0.347591
H	 3.708709	 -1.142521	 -0.150311
H	 2.780642	 -0.921148	 1.303579
H	 3.506512	 1.320010	 -0.651625
H	 4.322697	 0.999599	 0.867103
H	 2.660624	 1.545032	 0.868198
H	 -0.511858	 0.858783	 3.947640
H	 -1.954360	 1.604419	 3.245157
H	 -0.344047	 1.930060	 2.576173

	symmetry c1
}
set optking {
	frozen_dihedral = ("
		3 5 8 12
	")
}

ee = optimize('scf')
oeprop('DIPOLE', 'QUADRUPOLE', 'MULLIKEN_CHARGES')
f=open( 'psi4out.xyz', 'w' )
f.write( "22  " )
f.write( str(ee) + "\n" )
f.write( MOL.save_string_xyz() )
f.close()
--------------------------------------------------------------------------

    Molecular point group: c1
  Charge       = 0
  Multiplicity = 1
  Basis Set: 6-31G*
  Basis Set:
  @DF-RHF Final Energy:  -348.09559151785697
    Total Energy =                       -348.0955915178567466
    Molecular point group: c1
  Basis Set: 6-31G*
  Basis Set:
  Basis Set: 6-31G*
  Basis Set:
  @DF-RHF Final Energy:  -348.09630143176713
    Total Energy =                       -348.0963014317669035
  Basis Set: 6-31G*
  Basis Set:
  Basis Set: 6-31G*
  Basis Set:
  @DF-RHF Final Energy:  -348.09665093393471
    Total Energy =                       -348.0966509339347112
  Basis Set: 6-31G*
  Basis Set:
  Basis Set: 6-31G*
  Basis Set:
  @DF-RHF Final Energy:  -348.09671236941148
    Total Energy =                       -348.0967123694113070
  Basis Set: 6-31G*
  Basis Set:
  @DF-RHF Final Energy:  -348.09674118330719
    Total Energy =                       -348.0967411833073015
  @DF-RHF Final Energy:  -348.09675468702449
    Total Energy =                       -348.0967546870241449
  @DF-RHF Final Energy:  -348.09675710228942
    Total Energy =                       -348.0967571022890752
  Basis Set: 6-31G*
  Basis Set:
  @DF-RHF Final Energy:  -348.09674841130260
    Total Energy =                       -348.0967484113024852
  Basis Set: 6-31G*
  Basis Set:
  Basis Set: 6-31G*
  Basis Set:
  @DF-RHF Final Energy:  -348.09675438042382
    Total Energy =                       -348.0967543804237607
  Basis Set: 6-31G*
  Basis Set:
  Basis Set: 6-31G*
  Basis Set:
  @DF-RHF Final Energy:  -348.09675920955578
    Total Energy =                       -348.0967592095560121
  Basis Set: 6-31G*
  Basis Set:
  Charge       = 0
  Multiplicity = 1
  Basis Set: 6-31G*
  Basis Set:

    Orbital Energies (a.u.)
    -----------------------

    Doubly Occupied:

       1A    -20.547322     2A    -11.324530     3A    -11.229819
       4A    -11.228837     5A    -11.228338     6A    -11.222994
       7A    -11.222314     8A    -11.216042     9A     -1.393133
      10A     -1.096667    11A     -1.042927    12A     -0.999432
      13A     -0.941930    14A     -0.864804    15A     -0.778454
      16A     -0.734387    17A     -0.662397    18A     -0.652490
      19A     -0.620088    20A     -0.617070    21A     -0.605720
      22A     -0.572070    23A     -0.567239    24A     -0.552991
      25A     -0.532264    26A     -0.521138    27A     -0.509982
      28A     -0.486992    29A     -0.466501    30A     -0.462791
      31A     -0.458589    32A     -0.397137

  @DF-RHF Final Energy:  -348.09675965508939

   => Energetics <=

    Nuclear Repulsion Energy =            379.5949882626972567
    One-Electron Energy =               -1223.8687205529645325
    Two-Electron Energy =                 496.1769726351780037
    DFT Exchange-Correlation Energy =       0.0000000000000000
    Empirical Dispersion Energy =           0.0000000000000000
    PCM Polarization Energy =               0.0000000000000000
    EFP Energy =                            0.0000000000000000
    Total Energy =                       -348.0967596550892722
    Molecular point group: c1
  Basis Set: 6-31G*
  Basis Set:

  -Total Gradient:
     Atom            X                  Y                   Z
    ------   -----------------  -----------------  -----------------
       1       -0.000007149892     0.000000727161    -0.000005032144
       2       -0.000017933363     0.000049739704    -0.000006840383
       3        0.000515831214     0.000636740185     0.000308607819
       4       -0.000019768288    -0.000048325135     0.000046319872
       5       -0.000529525514    -0.000787638682    -0.000352339701
       6        0.000000947500    -0.000005303439     0.000017385439
       7        0.000010132198    -0.000009282135    -0.000005098951
       8       -0.000653690835    -0.000762538523    -0.000381913352
       9        0.000002990606    -0.000008112695     0.000005953808
      10        0.000030375509     0.000018163270    -0.000011900548
      11       -0.000014176990     0.000009265567     0.000008796863
      12        0.000688833576     0.000871294338     0.000402642905
      13       -0.000024872562     0.000006891113     0.000017739209
      14        0.000018170128     0.000010413174    -0.000006723252
      15       -0.000014116091     0.000009024757    -0.000015772294
      16        0.000004996363    -0.000017617455     0.000017005267
      17        0.000010599226     0.000004825485    -0.000001513826
      18        0.000000913426     0.000008977885     0.000008146892
      19       -0.000013791805    -0.000006055029    -0.000004877218
      20        0.000005931491    -0.000002140249    -0.000022936961
      21        0.000000175953     0.000004293923    -0.000004496866
      22        0.000005128159     0.000016656780    -0.000013152581

  **** Optimization is complete! (in 11 steps) ****
    Final optimized geometry and variables:
    Molecular point group: c1

    Geometry (in Angstrom), charge = 0, multiplicity = 1:

    O           -2.726738569074    -0.463219005854     0.720784142089
    C           -1.680597642541     0.029819415418     1.015031200645
    C           -0.373747157408    -0.543808709278     0.495196641288
    C           -1.601557649525     1.257119012673     1.895825650435
    C           -0.108533741010    -0.066422870204    -0.942899180545
    H           -0.461978583479    -1.625062076268     0.508279711110
    H            0.445322373764    -0.262558576061     1.148623695820
    C            1.112191277650    -0.717957259249    -1.604735890718
    H           -0.985714974290    -0.291239514704    -1.540827977004
    H            0.000092567973     1.015431205774    -0.952628744257
    C            2.454923348819    -0.534191664837    -0.885742631553
    H            1.205537704824    -0.311461575669    -2.609598852455
    H            0.920137111535    -1.782234056370    -1.718841129584
    C            2.899635744889     0.922318198229    -0.741939986698
    H            3.211079989386    -1.076356337374    -1.447694635947
    H            2.422802892626    -1.002440050672     0.094491760135
    H            2.937685205405     1.416818813577    -1.708717952094
    H            3.890104001311     0.981715105885    -0.301847569713
    H            2.228243506771     1.492424737914    -0.107290413555
    H           -1.128778341412     0.999170574101     2.839801934195
    H           -2.594261926763     1.641156881422     2.085000200291
    H           -0.990943692203     2.026062073040     1.431379585858

  Mulliken Charges: (a.u.)
   Center  Symbol    Alpha    Beta     Spin     Total
       1     O     4.26222  4.26222  0.00000 -0.52444
       2     C     2.73682  2.73682  0.00000  0.52637
       3     C     3.20215  3.20215  0.00000 -0.40430
       4     C     3.28960  3.28960  0.00000 -0.57921
       5     C     3.16597  3.16597  0.00000 -0.33193
       6     H     0.40158  0.40158  0.00000  0.19683
       7     H     0.41501  0.41501  0.00000  0.16998
       8     C     3.15359  3.15359  0.00000 -0.30718
       9     H     0.40379  0.40379  0.00000  0.19241
      10     H     0.41923  0.41923  0.00000  0.16153
      11     C     3.15656  3.15656  0.00000 -0.31312
      12     H     0.41924  0.41924  0.00000  0.16152
      13     H     0.41819  0.41819  0.00000  0.16362
      14     C     3.24136  3.24136  0.00000 -0.48273
      15     H     0.41811  0.41811  0.00000  0.16378
      16     H     0.42165  0.42165  0.00000  0.15669
      17     H     0.42031  0.42031  0.00000  0.15939
      18     H     0.41741  0.41741  0.00000  0.16519
      19     H     0.42343  0.42343  0.00000  0.15313
      20     H     0.40689  0.40689  0.00000  0.18623
      21     H     0.39694  0.39694  0.00000  0.20613
      22     H     0.40994  0.40994  0.00000  0.18011

   Total alpha = 32.00000, Total beta = 32.00000, Total charge =  0.00000
