  ==> Input File <==

--------------------------------------------------------------------------
set {
	reference rhf
	basis 6-31G*
}

set_num_threads( 4 )
memory 2 gb

molecule MOL {
0 1

H	 0.530914	 -0.336906	 -4.429012
O	 1.445999	 -0.569924	 -4.487258
C	 2.136018	 -0.061081	 -3.374151
C	 1.833143	 -0.814070	 -2.083415
H	 3.187840	 -0.152966	 -3.612693
H	 1.924941	 1.000130	 -3.247435
C	 0.375417	 -0.708490	 -1.628709
H	 2.096867	 -1.859104	 -2.223841
H	 2.484572	 -0.424579	 -1.302836
C	 0.115918	 -1.429151	 -0.302766
H	 -0.269699	 -1.122169	 -2.398814
H	 0.104203	 0.342064	 -1.523257
C	 -1.309753	 -1.282496	 0.241564
H	 0.350228	 -2.485894	 -0.417834
H	 0.809872	 -1.044605	 0.441716
C	 -2.037799	 -0.007733	 -0.193645
H	 -1.890610	 -2.142323	 -0.085726
H	 -1.285946	 -1.330893	 1.329189
C	 -3.489788	 0.042957	 0.286558
H	 -2.017067	 0.064384	 -1.280144
H	 -1.513726	 0.868678	 0.179924
C	 -4.216917	 1.317354	 -0.141063
H	 -4.025645	 -0.823308	 -0.095450
H	 -3.513059	 -0.038752	 1.371301
H	 -4.239342	 1.411634	 -1.223113
H	 -5.243387	 1.322503	 0.212445
H	 -3.726170	 2.201406	 0.256408

	symmetry c1
}
set optking {
	frozen_dihedral = ("
		14 10 13 16
	")
}

ee = optimize('scf')
oeprop('DIPOLE', 'QUADRUPOLE', 'MULLIKEN_CHARGES')
f=open( 'psi4out.xyz', 'w' )
f.write( "27  " )
f.write( str(ee) + "\n" )
f.write( MOL.save_string_xyz() )
f.close()
--------------------------------------------------------------------------

    Molecular point group: c1
  Charge       = 0
  Multiplicity = 1
  Basis Set: 6-31G*
  Basis Set:
  @DF-RHF Final Energy:  -388.27513877641968
    Total Energy =                       -388.2751387764197943
    Molecular point group: c1
  Basis Set: 6-31G*
  Basis Set:
  Basis Set: 6-31G*
  Basis Set:
  @DF-RHF Final Energy:  -388.27588360235893
    Total Energy =                       -388.2758836023591584
  Basis Set: 6-31G*
  Basis Set:
  Basis Set: 6-31G*
  Basis Set:
  @DF-RHF Final Energy:  -388.27704852604643
    Total Energy =                       -388.2770485260464284
  Basis Set: 6-31G*
  Basis Set:
  Basis Set: 6-31G*
  Basis Set:
  @DF-RHF Final Energy:  -388.27712466376704
    Total Energy =                       -388.2771246637662443
  Basis Set: 6-31G*
  Basis Set:
  Basis Set: 6-31G*
  Basis Set:
  @DF-RHF Final Energy:  -388.27712027325146
    Total Energy =                       -388.2771202732512847
  Basis Set: 6-31G*
  Basis Set:
  Basis Set: 6-31G*
  Basis Set:
  @DF-RHF Final Energy:  -388.27712609226745
    Total Energy =                       -388.2771260922670535
  Basis Set: 6-31G*
  Basis Set:
  Basis Set: 6-31G*
  Basis Set:
  @DF-RHF Final Energy:  -388.27713071457015
    Total Energy =                       -388.2771307145700348
  Basis Set: 6-31G*
  Basis Set:
  Charge       = 0
  Multiplicity = 1
  Basis Set: 6-31G*
  Basis Set:

    Orbital Energies (a.u.)
    -----------------------

    Doubly Occupied:

       1A    -20.552129     2A    -11.266898     3A    -11.219702
       4A    -11.217799     5A    -11.216541     6A    -11.216091
       7A    -11.215104     8A    -11.215071     9A    -11.210109
      10A     -1.358906    11A     -1.094487    12A     -1.061551
      13A     -1.010206    14A     -0.948290    15A     -0.889942
      16A     -0.820298    17A     -0.806623    18A     -0.770450
      19A     -0.694102    20A     -0.655660    21A     -0.634905
      22A     -0.612856    23A     -0.605857    24A     -0.585079
      25A     -0.574804    26A     -0.553039    27A     -0.544382
      28A     -0.527337    29A     -0.505612    30A     -0.497867
      31A     -0.487981    32A     -0.475511    33A     -0.466692
      34A     -0.455554    35A     -0.450943    36A     -0.442447
      37A     -0.423219

  @DF-RHF Final Energy:  -388.27713091644750

   => Energetics <=

    Nuclear Repulsion Energy =            461.4620879649471590
    One-Electron Energy =               -1440.9103473955542540
    Two-Electron Energy =                 591.1711285141595908
    DFT Exchange-Correlation Energy =       0.0000000000000000
    Empirical Dispersion Energy =           0.0000000000000000
    PCM Polarization Energy =               0.0000000000000000
    EFP Energy =                            0.0000000000000000
    Total Energy =                       -388.2771309164475042
    Molecular point group: c1
  Basis Set: 6-31G*
  Basis Set:

  -Total Gradient:
     Atom            X                  Y                   Z
    ------   -----------------  -----------------  -----------------
       1        0.000002924057     0.000000587507    -0.000009338715
       2       -0.000004511432     0.000007312706     0.000004081780
       3        0.000008777025    -0.000001095942     0.000001191008
       4        0.000010185418     0.000000452351     0.000031072996
       5        0.000001680673     0.000003758104    -0.000000964864
       6       -0.000003033817    -0.000000814326    -0.000006970582
       7        0.000002704531    -0.000068732290    -0.000001355571
       8       -0.000001010834     0.000006668702    -0.000005091627
       9        0.000011182820    -0.000005163680     0.000000898351
      10        0.001747373860    -0.001214288490     0.005376471239
      11       -0.000019421270    -0.000004300004    -0.000007093053
      12        0.000008740330    -0.000026870725     0.000010479267
      13        0.001587805646     0.003115340177     0.004354323602
      14       -0.001933214744     0.000341367979    -0.005874097021
      15        0.000035115245    -0.000016776985     0.000004990354
      16       -0.001425005510    -0.002132286035    -0.003916724323
      17       -0.000023127243     0.000021715939     0.000011601967
      18       -0.000003651166    -0.000007790135    -0.000001480123
      19        0.000003939972    -0.000017273149     0.000020509845
      20       -0.000020828499     0.000019148365     0.000008315517
      21        0.000029060023    -0.000016334654     0.000010327635
      22       -0.000003732547    -0.000008818492    -0.000018587595
      23       -0.000006136775    -0.000000289868     0.000010771938
      24       -0.000002214409     0.000006100171     0.000001608059
      25       -0.000000036157     0.000008149620    -0.000003287253
      26       -0.000002575807    -0.000002306220    -0.000005160528
      27       -0.000000989392    -0.000007460625     0.000003507709

  **** Optimization is complete! (in 8 steps) ****
    Final optimized geometry and variables:
    Molecular point group: c1

    Geometry (in Angstrom), charge = 0, multiplicity = 1:

    H            1.175352608099     0.090666891041    -3.084428975622
    O            2.067660714257    -0.217834706099    -3.145845266910
    C            2.799538819387     0.227408858583    -2.032286096301
    C            2.429683436849    -0.496048542013    -0.742141887673
    H            3.839060291693     0.042161111677    -2.270495512687
    H            2.683817174559     1.303205029999    -1.905582771190
    C            0.985658744145    -0.262514921318    -0.290579601033
    H            2.602849935455    -1.559928375840    -0.881458989497
    H            3.110707336360    -0.163825434124     0.039869479628
    C            0.676903419190    -0.954780137335     1.043034833072
    H            0.304999275720    -0.638152093422    -1.052076869514
    H            0.806554013719     0.807189366563    -0.209418502529
    C           -0.787414868312    -0.864789343215     1.525954171418
    H            0.921960740332    -2.004535127520     0.904602941706
    H            1.346207355283    -0.561343746348     1.803597466418
    C           -1.566223717943     0.393228197991     1.129227766121
    H           -1.332921524184    -1.721868803870     1.135564648898
    H           -0.805411737639    -0.972037505623     2.607457303291
    C           -2.979571759372     0.414313444668     1.715737885110
    H           -1.633277109871     0.460824704318     0.047002026914
    H           -1.032497466963     1.283349190077     1.459870501798
    C           -3.777652259270     1.651889959514     1.306780603717
    H           -3.513633363624    -0.479456661900     1.399777202220
    H           -2.920452625667     0.365836314932     2.800858976118
    H           -3.885713125955     1.710234824211     0.227269445106
    H           -4.773947644098     1.637983668994     1.737815632218
    H           -3.286746344491     2.562529731325     1.638500132551

  Mulliken Charges: (a.u.)
   Center  Symbol    Alpha    Beta     Spin     Total
       1     H     0.27994  0.27994  0.00000  0.44013
       2     O     4.37102  4.37102  0.00000 -0.74204
       3     C     2.99719  2.99719  0.00000  0.00563
       4     C     3.16087  3.16087  0.00000 -0.32175
       5     H     0.41447  0.41447  0.00000  0.17105
       6     H     0.43207  0.43207  0.00000  0.13586
       7     C     3.16600  3.16600  0.00000 -0.33200
       8     H     0.41528  0.41528  0.00000  0.16945
       9     H     0.42436  0.42436  0.00000  0.15128
      10     C     3.15187  3.15187  0.00000 -0.30374
      11     H     0.42513  0.42513  0.00000  0.14973
      12     H     0.42214  0.42214  0.00000  0.15573
      13     C     3.15432  3.15432  0.00000 -0.30863
      14     H     0.41954  0.41954  0.00000  0.16092
      15     H     0.42173  0.42173  0.00000  0.15654
      16     C     3.15370  3.15370  0.00000 -0.30741
      17     H     0.42286  0.42286  0.00000  0.15428
      18     H     0.42038  0.42038  0.00000  0.15924
      19     C     3.15133  3.15133  0.00000 -0.30266
      20     H     0.42322  0.42322  0.00000  0.15357
      21     H     0.42459  0.42459  0.00000  0.15082
      22     C     3.23911  3.23911  0.00000 -0.47822
      23     H     0.42289  0.42289  0.00000  0.15422
      24     H     0.42271  0.42271  0.00000  0.15459
      25     H     0.42239  0.42239  0.00000  0.15522
      26     H     0.41895  0.41895  0.00000  0.16210
      27     H     0.42195  0.42195  0.00000  0.15609

   Total alpha = 37.00000, Total beta = 37.00000, Total charge = -0.00000
