                              Psi4 1.0.54 Driver

  ==> Input File <==

--------------------------------------------------------------------------
set {
	reference rhf
	basis cc-pvtz
}

set_num_threads( 4 )
memory 2 gb

molecule MOL {
0 1

H	 -3.436473	 1.252944	 -1.023892
O	 -3.458596	 0.315260	 -0.960865
C	 -3.176635	 -0.080824	 0.355601
C	 -1.763371	 0.265266	 0.799691
H	 -3.321825	 -1.153438	 0.379502
H	 -3.895468	 0.357385	 1.043382
C	 -1.673095	 0.766263	 2.238154
H	 -1.129316	 -0.611311	 0.675385
H	 -1.372220	 1.020495	 0.122182
C	 -0.244818	 1.077312	 2.677747
H	 -2.105219	 0.025906	 2.902273
H	 -2.284019	 1.660071	 2.340059
C	 -0.161989	 1.583029	 4.116649
H	 0.361326	 0.183793	 2.563271
H	 0.183457	 1.823835	 2.012059
C	 1.239917	 1.985044	 4.578050
H	 -0.554457	 0.821945	 4.787148
H	 -0.817745	 2.443216	 4.220005
C	 2.235498	 0.831498	 4.674462
H	 1.158173	 2.455259	 5.553238
H	 1.633466	 2.745244	 3.908249
H	 1.865719	 0.052513	 5.333644
H	 3.184428	 1.174827	 5.070567
H	 2.430618	 0.381847	 3.708362

	symmetry c1
}
set optking {
	frozen_dihedral = ("
		7 4 3 2
	")
}

ee,wfn = optimize('scf', return_wfn=True)
oeprop( wfn, 'DIPOLE', 'QUADRUPOLE', 'MULLIKEN_CHARGES')
f=open( 'psi4out.xyz', 'w' )
f.write( "24  " )
f.write( str(ee) + "\n" )
f.write( MOL.save_string_xyz() )
f.close()
--------------------------------------------------------------------------

    Molecular point group: c1
  Charge       = 0
  Multiplicity = 1
  Basis Set: CC-PVTZ
  Basis Set:
  @DF-RHF Final Energy:  -349.37539658633153
    Total Energy =                       -349.3753965863318740
    Molecular point group: c1
  Basis Set: CC-PVTZ
  Basis Set:
  Basis Set: CC-PVTZ
  Basis Set:
  @DF-RHF Final Energy:  -349.37565600677073
    Total Energy =                       -349.3756560067705550
  Basis Set: CC-PVTZ
  Basis Set:
  Basis Set: CC-PVTZ
  Basis Set:
  @DF-RHF Final Energy:  -349.37569183863769
    Total Energy =                       -349.3756918386376924
  Basis Set: CC-PVTZ
  Basis Set:
  Charge       = 0
  Multiplicity = 1
  Basis Set: CC-PVTZ
  Basis Set:

    Orbital Energies (a.u.)
    -----------------------

    Doubly Occupied:

       1A    -20.544567     2A    -11.265020     3A    -11.217375
       4A    -11.214763     5A    -11.214403     6A    -11.213909
       7A    -11.213115     8A    -11.207228     9A     -1.362709
      10A     -1.093794    11A     -1.051591    12A     -0.986667
      13A     -0.915902    14A     -0.853091    15A     -0.805205
      16A     -0.780153    17A     -0.690350    18A     -0.657004
      19A     -0.624281    20A     -0.614051    21A     -0.601201
      22A     -0.587051    23A     -0.557686    24A     -0.542533
      25A     -0.532025    26A     -0.509696    27A     -0.491847
      28A     -0.485628    29A     -0.473413    30A     -0.462229
      31A     -0.456650    32A     -0.446168    33A     -0.424280

  @DF-RHF Final Energy:  -349.37569256004861

   => Energetics <=

    Nuclear Repulsion Energy =            380.5426314408611006
    One-Electron Energy =               -1227.6454803953033661
    Two-Electron Energy =                 497.7271563943934325
    DFT Exchange-Correlation Energy =       0.0000000000000000
    Empirical Dispersion Energy =           0.0000000000000000
    PCM Polarization Energy =               0.0000000000000000
    EFP Energy =                            0.0000000000000000
    Total Energy =                       -349.3756925600488330
    Molecular point group: c1
  Basis Set: CC-PVTZ
  Basis Set:

  -Total Gradient:
     Atom            X                  Y                   Z
    ------   -----------------  -----------------  -----------------
       1       -0.000005337054    -0.000022019346     0.000047177211
       2       -0.001031107613     0.002892311135     0.001046272385
       3        0.001277292412    -0.002837108346    -0.001844629426
       4        0.000161830117    -0.002906825838     0.001753525060
       5       -0.000020462365     0.000023361252    -0.000042950259
       6        0.000004130807     0.000004652873    -0.000003508963
       7       -0.000368279777     0.002856074690    -0.001005263071
       8       -0.000015194617     0.000015507824     0.000011860808
       9       -0.000018763714    -0.000003881133     0.000002589329
      10        0.000004015355    -0.000007648144     0.000004533080
      11       -0.000009993088    -0.000011921632     0.000016466063
      12       -0.000007949903    -0.000010125057    -0.000004679362
      13        0.000022533154    -0.000013746047     0.000004298457
      14       -0.000020454775     0.000015451023     0.000003389598
      15        0.000006989815     0.000001506663    -0.000002819097
      16        0.000000787665     0.000006917190    -0.000016005615
      17        0.000004551245    -0.000009974890    -0.000004952350
      18        0.000000541937    -0.000001758423     0.000011058522
      19        0.000006285856    -0.000001078588     0.000008910579
      20        0.000001456814     0.000010009761    -0.000001944474
      21        0.000002448031    -0.000005432483    -0.000006299778
      22       -0.000000730088    -0.000006795789     0.000000258752
      23       -0.000004803672     0.000000386674     0.000005218866
      24        0.000010213449     0.000012136629     0.000017493676

  **** Optimization is complete! (in 4 steps) ****
    Final optimized geometry and variables:
    Molecular point group: c1

    Geometry (in Angstrom), charge = 0, multiplicity = 1:

    H           -2.492453177878     0.420666583919    -3.292608696047
    O           -2.554218512125    -0.514219352156    -3.221617082381
    C           -2.270041746157    -0.908947925327    -1.905848889579
    C           -0.839968142553    -0.574101166975    -1.461996148097
    H           -2.444651013283    -1.975117760124    -1.870701235331
    H           -2.981372135767    -0.447811837084    -1.224532121109
    C           -0.752470482145    -0.071860341568    -0.022987034061
    H           -0.194660813043    -1.435249804874    -1.598945416643
    H           -0.453976767961     0.196049354268    -2.124142219876
    C            0.673970636766     0.233230327379     0.425541282562
    H           -1.187251589809    -0.809690853334     0.648204414022
    H           -1.362157119101     0.822780319886     0.077139625536
    C            0.750936301086     0.751852131644     1.860230379581
    H            1.274551147212    -0.664747971522     0.321884412543
    H            1.109629279888     0.970727103333    -0.245100112737
    C            2.152446445436     1.151143677256     2.325388748859
    H            0.351548946150    -0.001068945884     2.536035252769
    H            0.099109378603     1.616434751915     1.952288414078
    C            3.141081689415    -0.006685683266     2.439923986144
    H            2.067454846112     1.632286861769     3.294908859962
    H            2.553740103463     1.902012669842     1.649768472797
    H            2.762491796688    -0.777566205680     3.103601063776
    H            4.088645159222     0.335606553119     2.839952181612
    H            3.341289934345    -0.466309642325     1.479650694217

  Mulliken Charges: (a.u.)
   Center  Symbol    Alpha    Beta     Spin     Total
       1     H     0.39505  0.39505  0.00000  0.20990
       2     O     4.20207  4.20207  0.00000 -0.40414
       3     C     2.97092  2.97092  0.00000  0.05815
       4     C     3.09839  3.09839  0.00000 -0.19679
       5     H     0.45295  0.45295  0.00000  0.09411
       6     H     0.47097  0.47097  0.00000  0.05805
       7     C     3.09786  3.09786  0.00000 -0.19572
       8     H     0.45092  0.45092  0.00000  0.09817
       9     H     0.45534  0.45534  0.00000  0.08931
      10     C     3.09294  3.09294  0.00000 -0.18589
      11     H     0.45267  0.45267  0.00000  0.09466
      12     H     0.45496  0.45496  0.00000  0.09007
      13     C     3.09447  3.09447  0.00000 -0.18893
      14     H     0.45139  0.45139  0.00000  0.09721
      15     H     0.45424  0.45424  0.00000  0.09153
      16     C     3.09043  3.09043  0.00000 -0.18086
      17     H     0.45389  0.45389  0.00000  0.09221
      18     H     0.45006  0.45006  0.00000  0.09987
      19     C     3.15250  3.15250  0.00000 -0.30501
      20     H     0.44838  0.44838  0.00000  0.10323
      21     H     0.45485  0.45485  0.00000  0.09031
      22     H     0.45486  0.45486  0.00000  0.09028
      23     H     0.44626  0.44626  0.00000  0.10747
      24     H     0.45360  0.45360  0.00000  0.09279

   Total alpha = 33.00000, Total beta = 33.00000, Total charge = -0.00000

*** Psi4 exiting successfully. Buy a developer a beer!
