                              Psi4 1.0.54 Driver

  ==> Input File <==

--------------------------------------------------------------------------
set {
	reference rhf
	basis cc-pvtz
}

set_num_threads( 4 )
memory 2 gb

molecule MOL {
0 1

H	 0.624670	 1.327178	 -0.907570
O	 0.057669	 1.301365	 -0.158528
C	 0.004145	 -0.005141	 0.363049
C	 1.199168	 -0.827145	 -0.096690
C	 -1.316386	 -0.602081	 -0.083515
H	 0.012026	 0.043363	 1.450619
H	 1.216685	 -0.896776	 -1.178167
H	 2.129940	 -0.372354	 0.228035
H	 1.160783	 -1.829622	 0.314294
H	 -1.357882	 -0.655920	 -1.165207
H	 -2.140147	 0.011735	 0.257253
H	 -1.440790	 -1.601175	 0.317669

	symmetry c1
}
set optking {
	frozen_dihedral = ("
		1 2 3 4
	")
}

ee,wfn = optimize('scf', return_wfn=True)
oeprop( wfn, 'DIPOLE', 'QUADRUPOLE', 'MULLIKEN_CHARGES')
f=open( 'psi4out.xyz', 'w' )
f.write( "12  " )
f.write( str(ee) + "\n" )
f.write( MOL.save_string_xyz() )
f.close()
--------------------------------------------------------------------------

    Molecular point group: c1
  Charge       = 0
  Multiplicity = 1
  Basis Set: CC-PVTZ
  Basis Set:
  @DF-RHF Final Energy:  -193.19317165435254
    Total Energy =                       -193.1931716543524544
    Molecular point group: c1
  Basis Set: CC-PVTZ
  Basis Set:
  Basis Set: CC-PVTZ
  Basis Set:
  @DF-RHF Final Energy:  -193.18948022784636
    Total Energy =                       -193.1894802278464454
  Basis Set: CC-PVTZ
  Basis Set:
  Basis Set: CC-PVTZ
  Basis Set:
  @DF-RHF Final Energy:  -193.19404345587594
    Total Energy =                       -193.1940434558761410
  Basis Set: CC-PVTZ
  Basis Set:
  Basis Set: CC-PVTZ
  Basis Set:
  @DF-RHF Final Energy:  -193.19416597623652
    Total Energy =                       -193.1941659762364907
  Basis Set: CC-PVTZ
  Basis Set:
  Basis Set: CC-PVTZ
  Basis Set:
  @DF-RHF Final Energy:  -193.19416752351378
    Total Energy =                       -193.1941675235137836
  Basis Set: CC-PVTZ
  Basis Set:
  Charge       = 0
  Multiplicity = 1
  Basis Set: CC-PVTZ
  Basis Set:

    Orbital Energies (a.u.)
    -----------------------

    Doubly Occupied:

       1A    -20.542407     2A    -11.274098     3A    -11.217212
       4A    -11.205508     5A     -1.363079     6A     -1.043889
       7A     -0.943012     8A     -0.817102     9A     -0.664993
      10A     -0.651302    11A     -0.607256    12A     -0.563784
      13A     -0.545899    14A     -0.517213    15A     -0.514624
      16A     -0.467389    17A     -0.431899

  @DF-RHF Final Energy:  -193.19416775952354

   => Energetics <=

    Nuclear Repulsion Energy =            135.6251419875374324
    One-Electron Energy =                -530.8972909345520748
    Two-Electron Energy =                 202.0779811874911900
    DFT Exchange-Correlation Energy =       0.0000000000000000
    Empirical Dispersion Energy =           0.0000000000000000
    PCM Polarization Energy =               0.0000000000000000
    EFP Energy =                            0.0000000000000000
    Total Energy =                       -193.1941677595234808
    Molecular point group: c1
  Basis Set: CC-PVTZ
  Basis Set:

  -Total Gradient:
     Atom            X                  Y                   Z
    ------   -----------------  -----------------  -----------------
       1        0.000838562307     0.000275272351     0.000823869224
       2       -0.001162823044    -0.000434977197    -0.001275119861
       3        0.000643619939     0.000428103575     0.001058551639
       4       -0.000327890724    -0.000261084067    -0.000625724486
       5       -0.000000834124     0.000009073015    -0.000001570564
       6        0.000007595550    -0.000016056116    -0.000011455732
       7       -0.000005590958     0.000011384185     0.000019003290
       8       -0.000001075430    -0.000002420460     0.000002249037
       9       -0.000002715901    -0.000004634407     0.000001445372
      10        0.000000908345     0.000003141909     0.000008980313
      11        0.000010090399    -0.000003383649     0.000002307756
      12        0.000000153643    -0.000004419135    -0.000002535987

  **** Optimization is complete! (in 6 steps) ****
    Final optimized geometry and variables:
    Molecular point group: c1

    Geometry (in Angstrom), charge = 0, multiplicity = 1:

    H            0.861061550082     1.174817488099    -0.971830995299
    O            0.198027302793     1.281364783375    -0.315656990888
    C           -0.038159916359     0.062136770143     0.352255779626
    C            1.129643107062    -0.896489443586     0.183077480647
    C           -1.351644587919    -0.538375020399    -0.123974159931
    H           -0.132621090990     0.310919078472     1.403661879326
    H            1.258151666306    -1.164088665364    -0.862334227011
    H            2.049800151834    -0.446511209477     0.537903944332
    H            0.963781005916    -1.810420926691     0.740258991233
    H           -1.290210600089    -0.811030830533    -1.172474150707
    H           -2.152165258581     0.181178624708    -0.009825453402
    H           -1.602937237918    -1.426219054938     0.446363188300

  Mulliken Charges: (a.u.)
   Center  Symbol    Alpha    Beta     Spin     Total
       1     H     0.39286  0.39286  0.00000  0.21427
       2     O     4.21087  4.21087  0.00000 -0.42174
       3     C     2.92225  2.92225  0.00000  0.15551
       4     C     3.15765  3.15765  0.00000 -0.31530
       5     C     3.13803  3.13803  0.00000 -0.27605
       6     H     0.45683  0.45683  0.00000  0.08635
       7     H     0.45810  0.45810  0.00000  0.08381
       8     H     0.44518  0.44518  0.00000  0.10965
       9     H     0.45161  0.45161  0.00000  0.09677
      10     H     0.46051  0.46051  0.00000  0.07898
      11     H     0.44652  0.44652  0.00000  0.10697
      12     H     0.45961  0.45961  0.00000  0.08079

   Total alpha = 17.00000, Total beta = 17.00000, Total charge = -0.00000

*** Psi4 exiting successfully. Buy a developer a beer!
