  ==> Input File <==

--------------------------------------------------------------------------
set {
	reference rhf
	basis 6-31G*
}

set_num_threads( 4 )
memory 2 gb

molecule MOL {
0 1

H	 -0.499322	 -1.839891	 0.661117
C	 -1.223460	 -1.072553	 0.407823
N	 -0.528168	 0.128977	 -0.000000
H	 -1.812882	 -0.869345	 1.294572
H	 -1.886858	 -1.481567	 -0.358909
C	 0.248044	 -0.037491	 -1.209632
H	 -1.183826	 0.875305	 -0.118896
H	 0.998722	 0.743888	 -1.266824
H	 -0.398417	 0.061950	 -2.074060
H	 0.763621	 -0.999315	 -1.275517

	symmetry c1
}
set optking {
	frozen_dihedral = ("
		2 3 6 8
	")
}

ee = optimize('scf')
oeprop('DIPOLE', 'QUADRUPOLE', 'MULLIKEN_CHARGES')
f=open( 'psi4out.xyz', 'w' )
f.write( "10  " )
f.write( str(ee) + "\n" )
f.write( MOL.save_string_xyz() )
f.close()
--------------------------------------------------------------------------

    Molecular point group: c1
  Charge       = 0
  Multiplicity = 1
  Basis Set: 6-31G*
  Basis Set:
  @DF-RHF Final Energy:  -134.23539649534627
    Total Energy =                       -134.2353964953463219
    Molecular point group: c1
  Basis Set: 6-31G*
  Basis Set:
  Basis Set: 6-31G*
  Basis Set:
  @DF-RHF Final Energy:  -134.23708090724236
    Total Energy =                       -134.2370809072422730
  Basis Set: 6-31G*
  Basis Set:
  Basis Set: 6-31G*
  Basis Set:
  @DF-RHF Final Energy:  -134.23727617385714
    Total Energy =                       -134.2372761738571114
  Basis Set: 6-31G*
  Basis Set:
  Basis Set: 6-31G*
  Basis Set:
  @DF-RHF Final Energy:  -134.23728407334312
    Total Energy =                       -134.2372840733430621
  Basis Set: 6-31G*
  Basis Set:
  Charge       = 0
  Multiplicity = 1
  Basis Set: 6-31G*
  Basis Set:

    Orbital Energies (a.u.)
    -----------------------

    Doubly Occupied:

       1A    -15.536357     2A    -11.236096     3A    -11.235622
       4A     -1.197393     5A     -0.947702     6A     -0.854755
       7A     -0.661406     8A     -0.609997     9A     -0.590438
      10A     -0.541360    11A     -0.511768    12A     -0.506903
      13A     -0.357817

  @DF-RHF Final Energy:  -134.23728487380924

   => Energetics <=

    Nuclear Repulsion Energy =             84.5691681694837030
    One-Electron Energy =                -348.0376794889010625
    Two-Electron Energy =                 129.2312264456080300
    DFT Exchange-Correlation Energy =       0.0000000000000000
    Empirical Dispersion Energy =           0.0000000000000000
    PCM Polarization Energy =               0.0000000000000000
    EFP Energy =                            0.0000000000000000
    Total Energy =                       -134.2372848738093296
    Molecular point group: c1
  Basis Set: 6-31G*
  Basis Set:

  -Total Gradient:
     Atom            X                  Y                   Z
    ------   -----------------  -----------------  -----------------
       1        0.000001583893     0.000011549523     0.000001057172
       2        0.002241285722    -0.000869862974     0.001518849308
       3       -0.002588849375     0.000641153094    -0.001654738416
       4        0.000003940326     0.000002149683    -0.000006029220
       5        0.000009478569     0.000018019370     0.000001166369
       6       -0.002098677903     0.002454218418    -0.001635155882
       7        0.000017709145    -0.000023023678    -0.000016232550
       8        0.002370953236    -0.002225509502     0.001754382272
       9        0.000017751659     0.000000142512     0.000040382816
      10        0.000024824728    -0.000008836445    -0.000003681868

  **** Optimization is complete! (in 5 steps) ****
    Final optimized geometry and variables:
    Molecular point group: c1

    Geometry (in Angstrom), charge = 0, multiplicity = 1:

    H            0.009909969553    -1.523561469464     0.919961529370
    C           -0.710411603481    -0.745535331248     0.691438920014
    N           -0.009492454072     0.453224537431     0.287322278495
    H           -1.277259795526    -0.545873790767     1.593674988906
    H           -1.398619326517    -1.138851587047    -0.061833277432
    C            0.752372861770     0.316330232478    -0.936028397478
    H           -0.641042066992     1.225593186748     0.222873949046
    H            1.507597114796     1.092533751789    -0.994022923382
    H            0.148911704815     0.333299439935    -1.845440865640
    H            1.282768367854    -0.629928423249    -0.915084772172

  Mulliken Charges: (a.u.)
   Center  Symbol    Alpha    Beta     Spin     Total
       1     H     0.41798  0.41798  0.00000  0.16403
       2     C     3.14326  3.14326  0.00000 -0.28652
       3     N     3.84195  3.84195  0.00000 -0.68389
       4     H     0.41744  0.41744  0.00000  0.16513
       5     H     0.43516  0.43516  0.00000  0.12969
       6     C     3.14421  3.14421  0.00000 -0.28841
       7     H     0.33184  0.33184  0.00000  0.33632
       8     H     0.41568  0.41568  0.00000  0.16863
       9     H     0.43262  0.43262  0.00000  0.13477
      10     H     0.41987  0.41987  0.00000  0.16025

   Total alpha = 13.00000, Total beta = 13.00000, Total charge = -0.00000
