  ==> Input File <==

--------------------------------------------------------------------------
set {
	reference rhf
	basis cc-pvtz
}

set_num_threads( 4 )
memory 2 gb

molecule MOL {
0 1

H	 -0.366580	 2.045936	 -0.305741
C	 0.351829	 1.335402	 0.083179
N	 -0.000018	 0.000080	 -0.334836
H	 1.327156	 1.599860	 -0.305475
H	 0.380566	 1.445403	 1.171445
C	 -0.018902	 -0.128197	 -1.772044
C	 0.837438	 -0.998136	 0.285224
H	 -0.353591	 -1.119476	 -2.050328
H	 -0.708764	 0.589156	 -2.198285
H	 0.963082	 0.036694	 -2.225464
H	 0.773564	 -0.916943	 1.362958
H	 0.502000	 -1.988506	 0.004559
H	 1.889942	 -0.904620	 0.001323

	symmetry c1
}
set optking {
	frozen_dihedral = ("
		6 3 2 1
	")
}

ee = optimize('scf')
oeprop('DIPOLE', 'QUADRUPOLE', 'MULLIKEN_CHARGES')
f=open( 'psi4out.xyz', 'w' )
f.write( "13  " )
f.write( str(ee) + "\n" )
f.write( MOL.save_string_xyz() )
f.close()
--------------------------------------------------------------------------

    Molecular point group: c1
  Charge       = 0
  Multiplicity = 1
  Basis Set: CC-PVTZ
  Basis Set:
  @DF-RHF Final Energy:  -173.33321725881478
    Total Energy =                       -173.3332172588148126
    Molecular point group: c1
  Basis Set: CC-PVTZ
  Basis Set:
  Basis Set: CC-PVTZ
  Basis Set:
  @DF-RHF Final Energy:  -173.33390636262388
    Total Energy =                       -173.3339063626239920
  Basis Set: CC-PVTZ
  Basis Set:
  Basis Set: CC-PVTZ
  Basis Set:
  @DF-RHF Final Energy:  -173.33399053297828
    Total Energy =                       -173.3339905329783335
  Basis Set: CC-PVTZ
  Basis Set:
  Charge       = 0
  Multiplicity = 1
  Basis Set: CC-PVTZ
  Basis Set:

    Orbital Energies (a.u.)
    -----------------------

    Doubly Occupied:

       1A    -15.539600     2A    -11.234294     3A    -11.234254
       4A    -11.234231     5A     -1.227289     6A     -0.952414
       7A     -0.952283     8A     -0.806868     9A     -0.643656
      10A     -0.631526    11A     -0.631279    12A     -0.544481
      13A     -0.543810    14A     -0.516953    15A     -0.502338
      16A     -0.502079    17A     -0.349700

  @DF-RHF Final Energy:  -173.33399146195438

   => Energetics <=

    Nuclear Repulsion Energy =            139.4734101619690136
    One-Electron Energy =                -509.5206923204858072
    Two-Electron Energy =                 196.7132906965624670
    DFT Exchange-Correlation Energy =       0.0000000000000000
    Empirical Dispersion Energy =           0.0000000000000000
    PCM Polarization Energy =               0.0000000000000000
    EFP Energy =                            0.0000000000000000
    Total Energy =                       -173.3339914619543265
    Molecular point group: c1
  Basis Set: CC-PVTZ
  Basis Set:

  -Total Gradient:
     Atom            X                  Y                   Z
    ------   -----------------  -----------------  -----------------
       1       -0.000370096761    -0.000073176873     0.000532806063
       2        0.000616749629     0.000048176397    -0.000742960555
       3       -0.000742862800     0.000111736699     0.000126557361
       4        0.000002728410    -0.000031539928    -0.000008892206
       5       -0.000012438142    -0.000038632007    -0.000009222174
       6        0.000501319494     0.000005298503     0.000031876697
       7       -0.000014297687     0.000011722225     0.000013420762
       8        0.000009249365     0.000005732765     0.000067197759
       9       -0.000019900248     0.000009942728    -0.000023262457
      10        0.000003111033    -0.000019289766    -0.000005247620
      11        0.000015044229    -0.000010981401     0.000006942099
      12        0.000011617861    -0.000011758082     0.000005603922
      13       -0.000000224382    -0.000007231260     0.000005180350

  **** Optimization is complete! (in 4 steps) ****
    Final optimized geometry and variables:
    Molecular point group: c1

    Geometry (in Angstrom), charge = 0, multiplicity = 1:

    H           -0.670710947776     1.993828094404     0.127984766341
    C            0.046516466372     1.282085914577     0.517403203446
    N           -0.313180967785    -0.054457041913     0.109525878901
    H            1.042330101638     1.578390915954     0.174052915858
    H            0.030561212544     1.354456283370     1.597568866070
    C           -0.339375936860    -0.188939995529    -1.326837580767
    C            0.526440312988    -1.052426813935     0.727441809301
    H           -0.682417672189    -1.179004443135    -1.599514157443
    H           -1.025924107511     0.531512183094    -1.753654270082
    H            0.641860744886    -0.032912378128    -1.785594004218
    H            0.468162589268    -0.969575052017     1.805368904747
    H            0.188336728023    -2.042965843412     0.450184754631
    H            1.578040339475    -0.961919953940     0.438082759961

  Mulliken Charges: (a.u.)
   Center  Symbol    Alpha    Beta     Spin     Total
       1     H     0.45231  0.45231  0.00000  0.09538
       2     C     3.08907  3.08907  0.00000 -0.17814
       3     N     3.59560  3.59560  0.00000 -0.19119
       4     H     0.47378  0.47378  0.00000  0.05243
       5     H     0.45294  0.45294  0.00000  0.09412
       6     C     3.08915  3.08915  0.00000 -0.17830
       7     C     3.08897  3.08897  0.00000 -0.17794
       8     H     0.45260  0.45260  0.00000  0.09481
       9     H     0.45266  0.45266  0.00000  0.09469
      10     H     0.47379  0.47379  0.00000  0.05242
      11     H     0.45250  0.45250  0.00000  0.09501
      12     H     0.45261  0.45261  0.00000  0.09479
      13     H     0.47403  0.47403  0.00000  0.05193

   Total alpha = 17.00000, Total beta = 17.00000, Total charge = -0.00000
