  ==> Input File <==

--------------------------------------------------------------------------
set {
	reference rhf
	basis cc-pvtz
}

set_num_threads( 4 )
memory 2 gb

molecule MOL {
0 1

H	 -2.498963	 -0.741158	 -0.729149
O	 -2.346257	 -0.289210	 0.080372
C	 -1.183935	 0.486039	 -0.009831
C	 0.062853	 -0.375310	 0.027457
H	 -1.178881	 1.094526	 -0.908634
H	 -1.184406	 1.155156	 0.838676
O	 0.649136	 -0.241232	 1.280351
H	 0.755837	 -0.061041	 -0.754786
H	 -0.204820	 -1.411014	 -0.170642
C	 1.794475	 -1.005368	 1.468810
H	 2.573685	 -0.735136	 0.759528
H	 2.155464	 -0.819541	 2.469730
H	 1.585538	 -2.067241	 1.362545

	symmetry c1
}
set optking {
	frozen_dihedral = ("
		8 4 3 5
	")
}

ee = optimize('scf')
oeprop('DIPOLE', 'QUADRUPOLE', 'MULLIKEN_CHARGES')
f=open( 'psi4out.xyz', 'w' )
f.write( "13  " )
f.write( str(ee) + "\n" )
f.write( MOL.save_string_xyz() )
f.close()
--------------------------------------------------------------------------

    Molecular point group: c1
  Charge       = 0
  Multiplicity = 1
  Basis Set: CC-PVTZ
  Basis Set:
  @DF-RHF Final Energy:  -268.05579322630308
    Total Energy =                       -268.0557932263030239
    Molecular point group: c1
  Basis Set: CC-PVTZ
  Basis Set:
  Basis Set: CC-PVTZ
  Basis Set:
  @DF-RHF Final Energy:  -268.05634307667788
    Total Energy =                       -268.0563430766776492
  Basis Set: CC-PVTZ
  Basis Set:
  Basis Set: CC-PVTZ
  Basis Set:
  @DF-RHF Final Energy:  -268.05654739754533
    Total Energy =                       -268.0565473975454438
  Basis Set: CC-PVTZ
  Basis Set:
  Basis Set: CC-PVTZ
  Basis Set:
  @DF-RHF Final Energy:  -268.05655315896865
    Total Energy =                       -268.0565531589687680
  Basis Set: CC-PVTZ
  Basis Set:
  Basis Set: CC-PVTZ
  Basis Set:
  @DF-RHF Final Energy:  -268.05655444686101
    Total Energy =                       -268.0565544468610710
  Basis Set: CC-PVTZ
  Basis Set:
  Charge       = 0
  Multiplicity = 1
  Basis Set: CC-PVTZ
  Basis Set:

    Orbital Energies (a.u.)
    -----------------------

    Doubly Occupied:

       1A    -20.553561     2A    -20.549615     3A    -11.270403
       4A    -11.268013     5A    -11.265492     6A     -1.390067
       7A     -1.365889     8A     -1.017521     9A     -0.914605
      10A     -0.843793    11A     -0.703985    12A     -0.674551
      13A     -0.664384    14A     -0.640625    15A     -0.596392
      16A     -0.567734    17A     -0.539152    18A     -0.496656
      19A     -0.480124    20A     -0.440454    21A     -0.421078

  @DF-RHF Final Energy:  -268.05655450268773

   => Energetics <=

    Nuclear Repulsion Energy =            191.2115008382858150
    One-Electron Energy =                -745.2079220809596336
    Two-Electron Energy =                 285.9398667399860869
    DFT Exchange-Correlation Energy =       0.0000000000000000
    Empirical Dispersion Energy =           0.0000000000000000
    PCM Polarization Energy =               0.0000000000000000
    EFP Energy =                            0.0000000000000000
    Total Energy =                       -268.0565545026877317
    Molecular point group: c1
  Basis Set: CC-PVTZ
  Basis Set:

  -Total Gradient:
     Atom            X                  Y                   Z
    ------   -----------------  -----------------  -----------------
       1        0.000002924615     0.000005574509     0.000002554795
       2        0.000031819678     0.000016494370     0.000005179328
       3       -0.002149353027    -0.003426341565    -0.002426158872
       4        0.001934301850     0.003141903245     0.002866060322
       5        0.001448795804     0.002321682901     0.001534110507
       6       -0.000002611526    -0.000004384581     0.000000777252
       7        0.000016055103    -0.000003130381     0.000014803398
       8       -0.001265173827    -0.002061810353    -0.001991619565
       9       -0.000007888942     0.000000652594    -0.000008240876
      10       -0.000005283139     0.000006218718     0.000004803476
      11       -0.000001474684     0.000001216273    -0.000001615652
      12        0.000001419101     0.000000240197     0.000001116772
      13       -0.000003531012     0.000001684074    -0.000001770884

  **** Optimization is complete! (in 6 steps) ****
    Final optimized geometry and variables:
    Molecular point group: c1

    Geometry (in Angstrom), charge = 0, multiplicity = 1:

    H           -2.290420453065    -0.471273462258    -1.256385891036
    O           -2.145543575740     0.028915639313    -0.474458991036
    C           -0.969222376335     0.777973776946    -0.589937101124
    C            0.305625948057    -0.059604641259    -0.527910495213
    H           -0.976272990668     1.382430739926    -1.492406731798
    H           -0.957863116088     1.460093117360     0.247140064477
    O            0.882643895331     0.050864075138     0.732544229840
    H            1.008110043140     0.254265526884    -1.299347438242
    H            0.054312403329    -1.099086948468    -0.736040655530
    C            2.024379029712    -0.720014077143     0.910510190977
    H            2.806615798355    -0.442327481740     0.206924600516
    H            2.383940529673    -0.550943871635     1.914869456981
    H            1.812106866117    -1.779733547002     0.787977532315

  Mulliken Charges: (a.u.)
   Center  Symbol    Alpha    Beta     Spin     Total
       1     H     0.39601  0.39601  0.00000  0.20798
       2     O     4.19857  4.19857  0.00000 -0.39714
       3     C     2.97112  2.97112  0.00000  0.05776
       4     C     2.96494  2.96494  0.00000  0.07011
       5     H     0.47040  0.47040  0.00000  0.05920
       6     H     0.45133  0.45133  0.00000  0.09734
       7     O     4.17053  4.17053  0.00000 -0.34106
       8     H     0.47789  0.47789  0.00000  0.04422
       9     H     0.48031  0.48031  0.00000  0.03938
      10     C     3.02999  3.02999  0.00000 -0.05999
      11     H     0.47245  0.47245  0.00000  0.05509
      12     H     0.44567  0.44567  0.00000  0.10867
      13     H     0.47079  0.47079  0.00000  0.05842

   Total alpha = 21.00000, Total beta = 21.00000, Total charge = -0.00000
