  ==> Input File <==

--------------------------------------------------------------------------
set {
	reference rhf
	basis cc-pvtz
}

set_num_threads( 4 )
memory 2 gb

molecule MOL {
0 1

O	 -0.694481	 1.313155	 -0.204815
C	 -0.862519	 0.151932	 -0.046791
C	 -2.171428	 -0.477048	 0.339095
O	 0.085519	 -0.757083	 -0.192238
H	 -2.467997	 -1.191667	 -0.417688
H	 -2.923379	 0.287970	 0.444097
H	 -2.053854	 -1.015120	 1.270901
C	 1.392036	 -0.330828	 -0.560749
C	 1.620800	 -0.452906	 -2.052949
H	 2.121371	 -0.901664	 -0.007547
H	 1.441710	 0.701150	 -0.247214
H	 2.598749	 -0.057850	 -2.303944
H	 1.581424	 -1.487022	 -2.366697
H	 0.875228	 0.109800	 -2.601654

	symmetry c1
}
set optking {
	frozen_dihedral = ("
		10 8 4 2
	")
}

ee = optimize('scf')
oeprop('DIPOLE', 'QUADRUPOLE', 'MULLIKEN_CHARGES')
f=open( 'psi4out.xyz', 'w' )
f.write( "14  " )
f.write( str(ee) + "\n" )
f.write( MOL.save_string_xyz() )
f.close()
--------------------------------------------------------------------------

    Molecular point group: c1
  Charge       = 0
  Multiplicity = 1
  Basis Set: CC-PVTZ
  Basis Set:
  @DF-RHF Final Energy:  -305.98915514440921
    Total Energy =                       -305.9891551444090396
    Molecular point group: c1
  Basis Set: CC-PVTZ
  Basis Set:
  Basis Set: CC-PVTZ
  Basis Set:
  @DF-RHF Final Energy:  -305.99045499711707
    Total Energy =                       -305.9904549971170695
  Basis Set: CC-PVTZ
  Basis Set:
  Basis Set: CC-PVTZ
  Basis Set:
  @DF-RHF Final Energy:  -305.99038104636588
    Total Energy =                       -305.9903810463657692
  Basis Set: CC-PVTZ
  Basis Set:
  Basis Set: CC-PVTZ
  Basis Set:
  @DF-RHF Final Energy:  -305.99074142694246
    Total Energy =                       -305.9907414269421224
  Basis Set: CC-PVTZ
  Basis Set:
  Basis Set: CC-PVTZ
  Basis Set:
  @DF-RHF Final Energy:  -305.99075115157592
    Total Energy =                       -305.9907511515764895
  Basis Set: CC-PVTZ
  Basis Set:
  Charge       = 0
  Multiplicity = 1
  Basis Set: CC-PVTZ
  Basis Set:

    Orbital Energies (a.u.)
    -----------------------

    Doubly Occupied:

       1A    -20.593953     2A    -20.532821     3A    -11.368295
       4A    -11.282215     5A    -11.231440     6A    -11.218870
       7A     -1.469742     8A     -1.365929     9A     -1.056843
      10A     -0.999849    11A     -0.881731    12A     -0.771037
      13A     -0.700705    14A     -0.685754    15A     -0.660084
      16A     -0.612697    17A     -0.585477    18A     -0.570406
      19A     -0.561908    20A     -0.529276    21A     -0.520782
      22A     -0.494871    23A     -0.453075    24A     -0.443155

  @DF-RHF Final Energy:  -305.99075259786991

   => Energetics <=

    Nuclear Repulsion Energy =            248.0454444775319018
    One-Electron Energy =                -908.8905666189371004
    Two-Electron Energy =                 354.8543695435354834
    DFT Exchange-Correlation Energy =       0.0000000000000000
    Empirical Dispersion Energy =           0.0000000000000000
    PCM Polarization Energy =               0.0000000000000000
    EFP Energy =                            0.0000000000000000
    Total Energy =                       -305.9907525978697436
    Molecular point group: c1
  Basis Set: CC-PVTZ
  Basis Set:

  -Total Gradient:
     Atom            X                  Y                   Z
    ------   -----------------  -----------------  -----------------
       1        0.000018911875    -0.000013452817    -0.000009200841
       2        0.000257583960     0.000076356290     0.001117462884
       3       -0.000013986068     0.000004513584     0.000015497818
       4       -0.000398928301     0.000043852383    -0.001430542216
       5        0.000000442091     0.000004915439    -0.000001877514
       6       -0.000009333133    -0.000001727309     0.000001138703
       7       -0.000000941569    -0.000001247930    -0.000006164822
       8        0.000162143470    -0.000988662207    -0.000642703666
       9        0.000001000152    -0.000001651235     0.000021836485
      10       -0.000035082047     0.000855179288     0.000938863706
      11        0.000015671769     0.000012440390    -0.000004059543
      12        0.000002336529     0.000000551781    -0.000003159622
      13        0.000003411245     0.000007033439     0.000002653334
      14       -0.000003229973     0.000001898902     0.000000255292

  **** Optimization is complete! (in 6 steps) ****
    Final optimized geometry and variables:
    Molecular point group: c1

    Geometry (in Angstrom), charge = 0, multiplicity = 1:

    O           -0.632141787782     1.405759670590     0.254103563510
    C           -0.770878606616     0.240760375642     0.410594669078
    C           -2.059847984254    -0.417763386850     0.814125021549
    O            0.192668167331    -0.650028883076     0.249327510895
    H           -2.350618046989    -1.137828238669     0.060237342025
    H           -2.827366700814     0.329948743362     0.930267560234
    H           -1.917273498501    -0.954388712539     1.743181112590
    C            1.499284193212    -0.209071403668    -0.101667544513
    C            1.739519713337    -0.370043451991    -1.587284791208
    H            2.173280763050    -0.824751079089     0.475958599510
    H            1.621995661389     0.817407242402     0.202340980371
    H            2.757473126388    -0.084868857939    -1.827434072105
    H            1.590881965611    -1.398370023411    -1.892741598815
    H            1.067485317079     0.261820813195    -2.154087831032

  Mulliken Charges: (a.u.)
   Center  Symbol    Alpha    Beta     Spin     Total
       1     O     4.19896  4.19896  0.00000 -0.39792
       2     C     2.80090  2.80090  0.00000  0.39820
       3     C     3.13944  3.13944  0.00000 -0.27887
       4     O     4.15823  4.15823  0.00000 -0.31645
       5     H     0.44591  0.44591  0.00000  0.10818
       6     H     0.43829  0.43829  0.00000  0.12341
       7     H     0.44586  0.44586  0.00000  0.10828
       8     C     2.98602  2.98602  0.00000  0.02796
       9     C     3.14297  3.14297  0.00000 -0.28595
      10     H     0.44662  0.44662  0.00000  0.10677
      11     H     0.44597  0.44597  0.00000  0.10806
      12     H     0.45228  0.45228  0.00000  0.09544
      13     H     0.45193  0.45193  0.00000  0.09615
      14     H     0.44663  0.44663  0.00000  0.10674

   Total alpha = 24.00000, Total beta = 24.00000, Total charge =  0.00000
