                              Psi4 1.0.54 Driver

  ==> Input File <==

--------------------------------------------------------------------------
set {
	reference rhf
	basis cc-pvtz
}

set_num_threads( 4 )
memory 2 gb

molecule MOL {
0 1

H	 2.614283	 2.028610	 0.296620
O	 3.358864	 1.662087	 -0.142800
C	 3.565468	 0.338079	 0.273842
C	 2.533667	 -0.637565	 -0.272227
H	 4.548038	 0.064914	 -0.086598
H	 3.593945	 0.282242	 1.360360
C	 1.114816	 -0.402372	 0.240993
H	 2.544552	 -0.580764	 -1.356576
H	 2.850574	 -1.642962	 -0.005497
C	 0.113298	 -1.420414	 -0.302504
H	 0.796373	 0.598427	 -0.031033
H	 1.113377	 -0.446476	 1.328807
C	 -1.190988	 -0.823476	 -0.834255
H	 0.587692	 -2.003309	 -1.088259
H	 -0.128895	 -2.123053	 0.490031
C	 -1.045856	 0.028561	 -2.093902
H	 -1.877512	 -1.638584	 -1.045944
H	 -1.659458	 -0.231080	 -0.051467
C	 -2.384125	 0.518424	 -2.641151
H	 -0.536623	 -0.550768	 -2.861058
H	 -0.414231	 0.888529	 -1.892636
C	 -2.242593	 1.372546	 -3.896673
H	 -3.017934	 -0.337142	 -2.857650
H	 -2.897949	 1.090297	 -1.873031
H	 -1.760737	 0.817894	 -4.695055
H	 -3.209762	 1.700939	 -4.259782
H	 -1.644647	 2.257117	 -3.703420

	symmetry c1
}
set optking {
	frozen_dihedral = ("
		14 10 7 4
	")
}

ee,wfn = optimize('scf', return_wfn=True)
oeprop( wfn, 'DIPOLE', 'QUADRUPOLE', 'MULLIKEN_CHARGES')
f=open( 'psi4out.xyz', 'w' )
f.write( "27  " )
f.write( str(ee) + "\n" )
f.write( MOL.save_string_xyz() )
f.close()
--------------------------------------------------------------------------

    Molecular point group: c1
  Charge       = 0
  Multiplicity = 1
  Basis Set: CC-PVTZ
  Basis Set:
  @DF-RHF Final Energy:  -388.42272663974364
    Total Energy =                       -388.4227266397433596
    Molecular point group: c1
  Basis Set: CC-PVTZ
  Basis Set:
  Basis Set: CC-PVTZ
  Basis Set:
  @DF-RHF Final Energy:  -388.42297040541933
    Total Energy =                       -388.4229704054195054
  Basis Set: CC-PVTZ
  Basis Set:
  Basis Set: CC-PVTZ
  Basis Set:
  @DF-RHF Final Energy:  -388.42314514077930
    Total Energy =                       -388.4231451407792974
  Basis Set: CC-PVTZ
  Basis Set:
  Basis Set: CC-PVTZ
  Basis Set:
  @DF-RHF Final Energy:  -388.42320556464182
    Total Energy =                       -388.4232055646414210
  Basis Set: CC-PVTZ
  Basis Set:
  Basis Set: CC-PVTZ
  Basis Set:
  @DF-RHF Final Energy:  -388.42321116224156
    Total Energy =                       -388.4232111622415005
  Basis Set: CC-PVTZ
  Basis Set:
  Charge       = 0
  Multiplicity = 1
  Basis Set: CC-PVTZ
  Basis Set:

    Orbital Energies (a.u.)
    -----------------------

    Doubly Occupied:

       1A    -20.545475     2A    -11.264864     3A    -11.216705
       4A    -11.214182     5A    -11.213592     6A    -11.212887
       7A    -11.212783     8A    -11.210559     9A    -11.205832
      10A     -1.363295    11A     -1.094642    12A     -1.060817
      13A     -1.011869    14A     -0.948224    15A     -0.888200
      16A     -0.821793    17A     -0.798030    18A     -0.780521
      19A     -0.697389    20A     -0.647215    21A     -0.635905
      22A     -0.616668    23A     -0.608841    24A     -0.583744
      25A     -0.574988    26A     -0.553864    27A     -0.542943
      28A     -0.525348    29A     -0.505289    30A     -0.500964
      31A     -0.481684    32A     -0.472750    33A     -0.469382
      34A     -0.459533    35A     -0.452220    36A     -0.440118
      37A     -0.425342

  @DF-RHF Final Energy:  -388.42321163700035

   => Energetics <=

    Nuclear Repulsion Energy =            465.0460138126204583
    One-Electron Energy =               -1448.4215311508507966
    Two-Electron Energy =                 594.9523057012302161
    DFT Exchange-Correlation Energy =       0.0000000000000000
    Empirical Dispersion Energy =           0.0000000000000000
    PCM Polarization Energy =               0.0000000000000000
    EFP Energy =                            0.0000000000000000
    Total Energy =                       -388.4232116370001222
    Molecular point group: c1
  Basis Set: CC-PVTZ
  Basis Set:

  -Total Gradient:
     Atom            X                  Y                   Z
    ------   -----------------  -----------------  -----------------
       1       -0.000018655191     0.000018498203    -0.000003208093
       2       -0.000023930281    -0.000014264589     0.000018724593
       3        0.000056824567    -0.000021056339    -0.000031429487
       4       -0.000343470975     0.001057988594    -0.001242750712
       5        0.000012021524    -0.000022479421     0.000004183962
       6       -0.000012720083     0.000005454131     0.000000602890
       7        0.000660504043    -0.001824556557     0.002099024657
       8       -0.000006802769    -0.000001607411     0.000000281191
       9        0.000017397523     0.000012829663     0.000002970060
      10       -0.001087943071     0.002325296181    -0.002321865518
      11       -0.000006934367     0.000006670190     0.000005832257
      12        0.000001951749     0.000004938313    -0.000003625764
      13        0.000007263603    -0.000010191611     0.000002828797
      14        0.000771895764    -0.001562834040     0.001490926599
      15        0.000017772706    -0.000009370924     0.000005147147
      16       -0.000029856973    -0.000008859736     0.000031456431
      17       -0.000012775322     0.000021029273    -0.000006377499
      18        0.000005340264    -0.000005708621    -0.000000607369
      19        0.000032978723     0.000005800723    -0.000055811794
      20        0.000018843582    -0.000014995746     0.000004107371
      21        0.000008115122     0.000014448370    -0.000000736330
      22       -0.000044160643     0.000012620036     0.000017049180
      23       -0.000024049599    -0.000032247534    -0.000006500743
      24       -0.000015857434     0.000019420124     0.000019583624
      25        0.000008587405    -0.000021729432    -0.000015107679
      26       -0.000018725036     0.000020048567    -0.000016698565
      27        0.000026385176     0.000024859593     0.000002000796

  **** Optimization is complete! (in 6 steps) ****
    Final optimized geometry and variables:
    Molecular point group: c1

    Geometry (in Angstrom), charge = 0, multiplicity = 1:

    H            2.036784445810     1.965415389078     1.573668712760
    O            2.799697256992     1.679228466057     1.107086483441
    C            3.081488219476     0.338686316901     1.412689777688
    C            2.109614082765    -0.644175672376     0.778076095209
    H            4.079648387213     0.153523984027     1.039255719683
    H            3.108784363071     0.193274688273     2.490853741209
    C            0.672512180651    -0.520256724758     1.280668391502
    H            2.128306584421    -0.506874189980    -0.298751794425
    H            2.475709808559    -1.649535299211     0.973924739610
    C           -0.283397710714    -1.571464771318     0.680676940327
    H            0.306141328852     0.473462919721     1.045745417209
    H            0.661195276203    -0.597403411041     2.364343689449
    C           -1.618165888158    -1.016298569259     0.181188939826
    H            0.214052986371    -2.098975753710    -0.128097893389
    H           -0.484236355940    -2.328690590854     1.431567177195
    C           -1.515168334421    -0.193242493498    -1.101426013589
    H           -2.298867966951    -1.844837308230     0.006845352918
    H           -2.071140049253    -0.413661905816     0.965359856190
    C           -2.855604443323     0.372071328609    -1.563591048773
    H           -1.100292145864    -0.818234655580    -1.888912520643
    H           -0.814525173317     0.625840984106    -0.966083375684
    C           -2.754479298946     1.176224528683    -2.855487471129
    H           -3.560755668161    -0.443225103555    -1.701448949911
    H           -3.268737441569     1.001306811464    -0.779744573195
    H           -2.378588733164     0.564261455064    -3.668766246724
    H           -3.721741002882     1.564184264350    -3.153902044841
    H           -2.081271108922     2.019277003303    -2.740283620844

  Mulliken Charges: (a.u.)
   Center  Symbol    Alpha    Beta     Spin     Total
       1     H     0.39224  0.39224  0.00000  0.21552
       2     O     4.20594  4.20594  0.00000 -0.41188
       3     C     2.98013  2.98013  0.00000  0.03973
       4     C     3.08742  3.08742  0.00000 -0.17484
       5     H     0.44867  0.44867  0.00000  0.10265
       6     H     0.46958  0.46958  0.00000  0.06084
       7     C     3.11409  3.11409  0.00000 -0.22818
       8     H     0.45052  0.45052  0.00000  0.09897
       9     H     0.45478  0.45478  0.00000  0.09044
      10     C     3.10325  3.10325  0.00000 -0.20651
      11     H     0.45545  0.45545  0.00000  0.08910
      12     H     0.44514  0.44514  0.00000  0.10971
      13     C     3.09663  3.09663  0.00000 -0.19327
      14     H     0.45283  0.45283  0.00000  0.09434
      15     H     0.44493  0.44493  0.00000  0.11013
      16     C     3.08934  3.08934  0.00000 -0.17868
      17     H     0.44786  0.44786  0.00000  0.10427
      18     H     0.45427  0.45427  0.00000  0.09145
      19     C     3.08421  3.08421  0.00000 -0.16842
      20     H     0.45404  0.45404  0.00000  0.09193
      21     H     0.45142  0.45142  0.00000  0.09717
      22     C     3.14969  3.14969  0.00000 -0.29938
      23     H     0.45421  0.45421  0.00000  0.09157
      24     H     0.45499  0.45499  0.00000  0.09003
      25     H     0.45510  0.45510  0.00000  0.08980
      26     H     0.44865  0.44865  0.00000  0.10270
      27     H     0.45461  0.45461  0.00000  0.09079

   Total alpha = 37.00000, Total beta = 37.00000, Total charge = -0.00000

*** Psi4 exiting successfully. Buy a developer a beer!
