                              Psi4 1.0.54 Driver

  ==> Input File <==

--------------------------------------------------------------------------
set {
	reference rhf
	basis cc-pvtz
}

set_num_threads( 4 )
memory 2 gb

molecule MOL {
0 1

O	 -3.587817	 -0.257643	 -0.628998
C	 -2.664672	 0.129869	 0.003507
C	 -2.716324	 1.333288	 0.905393
O	 -1.481217	 -0.452708	 0.001092
H	 -3.490089	 1.176219	 1.644782
H	 -1.771406	 1.512459	 1.392905
H	 -2.996423	 2.194497	 0.313838
C	 -0.332055	 0.384012	 -0.000250
C	 0.892252	 -0.506059	 -0.000295
H	 -0.360822	 1.020205	 -0.874146
H	 -0.359817	 1.021310	 0.872861
C	 2.188199	 0.299473	 -0.001416
H	 0.857046	 -1.152781	 -0.871031
H	 0.857910	 -1.151798	 0.871202
C	 3.437151	 -0.577593	 -0.000991
H	 2.209565	 0.950707	 -0.871712
H	 2.210062	 0.952234	 0.867721
C	 4.732399	 0.226982	 -0.000914
H	 3.417321	 -1.229122	 -0.869998
H	 3.416993	 -1.228707	 0.868337
H	 4.797903	 0.863451	 -0.876963
H	 5.598517	 -0.424436	 -0.000420
H	 4.797415	 0.864118	 0.874691

	symmetry c1
}
set optking {
	frozen_dihedral = ("
		1 2 4 8
	")
}

ee,wfn = optimize('scf', return_wfn=True)
oeprop( wfn, 'DIPOLE', 'QUADRUPOLE', 'MULLIKEN_CHARGES')
f=open( 'psi4out.xyz', 'w' )
f.write( "23  " )
f.write( str(ee) + "\n" )
f.write( MOL.save_string_xyz() )
f.close()
--------------------------------------------------------------------------

    Molecular point group: c1
  Charge       = 0
  Multiplicity = 1
  Basis Set: CC-PVTZ
  Basis Set:
  @DF-RHF Final Energy:  -423.10738927165499
    Total Energy =                       -423.1073892716551654
    Molecular point group: c1
  Basis Set: CC-PVTZ
  Basis Set:
  Basis Set: CC-PVTZ
  Basis Set:
  @DF-RHF Final Energy:  -423.07917890517126
    Total Energy =                       -423.0791789051714886
  Basis Set: CC-PVTZ
  Basis Set:
  Basis Set: CC-PVTZ
  Basis Set:
  @DF-RHF Final Energy:  -423.07312755946026
    Total Energy =                       -423.0731275594603176
  Basis Set: CC-PVTZ
  Basis Set:
  Basis Set: CC-PVTZ
  Basis Set:
  @DF-RHF Final Energy:  -423.11344977919083
    Total Energy =                       -423.1134497791906597
  Basis Set: CC-PVTZ
  Basis Set:
  @DF-RHF Final Energy:  -423.09809906638333
    Total Energy =                       -423.0980990663836110
  @DF-RHF Final Energy:  -423.11669499753469
    Total Energy =                       -423.1166949975346370
  @DF-RHF Final Energy:  -423.11743692983612
    Total Energy =                       -423.1174369298360034
  @DF-RHF Final Energy:  -423.11701075300977
    Total Energy =                       -423.1170107530092537
  @DF-RHF Final Energy:  -423.11763852836941
    Total Energy =                       -423.1176385283691843
  @DF-RHF Final Energy:  -423.11773490022847
    Total Energy =                       -423.1177349002283563
  @DF-RHF Final Energy:  -423.11713148721384
    Total Energy =                       -423.1171314872140101
  @DF-RHF Final Energy:  -423.11832408529028
    Total Energy =                       -423.1183240852903964
  @DF-RHF Final Energy:  -423.11888204370399
    Total Energy =                       -423.1188820437038203
  @DF-RHF Final Energy:  -423.11888573049578
    Total Energy =                       -423.1188857304958901
  @DF-RHF Final Energy:  -423.11920104059897
    Total Energy =                       -423.1192010405987958
  @DF-RHF Final Energy:  -423.11925264019419
    Total Energy =                       -423.1192526401949863
  Basis Set: CC-PVTZ
  Basis Set:
  @DF-RHF Final Energy:  -423.11939239317530
    Total Energy =                       -423.1193923931753034
  Basis Set: CC-PVTZ
  Basis Set:
  Basis Set: CC-PVTZ
  Basis Set:
  @DF-RHF Final Energy:  -423.11939926654799
    Total Energy =                       -423.1193992665473615
  Basis Set: CC-PVTZ
  Basis Set:
  Basis Set: CC-PVTZ
  Basis Set:
  @DF-RHF Final Energy:  -423.11940788057575
    Total Energy =                       -423.1194078805759773
  Basis Set: CC-PVTZ
  Basis Set:
  Charge       = 0
  Multiplicity = 1
  Basis Set: CC-PVTZ
  Basis Set:

    Orbital Energies (a.u.)
    -----------------------

    Doubly Occupied:

       1A    -20.585738     2A    -20.533413     3A    -11.368089
       4A    -11.293577     5A    -11.238550     6A    -11.226673
       7A    -11.226054     8A    -11.222583     9A    -11.213861
      10A     -1.462609    11A     -1.368289    12A     -1.098102
      13A     -1.036937    14A     -1.014379    15A     -0.942078
      16A     -0.847454    17A     -0.807310    18A     -0.778817
      19A     -0.700877    20A     -0.694550    21A     -0.662440
      22A     -0.651382    23A     -0.616349    24A     -0.595249
      25A     -0.582124    26A     -0.576008    27A     -0.569255
      28A     -0.544575    29A     -0.525829    30A     -0.503607
      31A     -0.496174    32A     -0.482342    33A     -0.475423
      34A     -0.474615    35A     -0.451856    36A     -0.434420

  @DF-RHF Final Energy:  -423.11940807912816

   => Energetics <=

    Nuclear Repulsion Energy =            450.3714370615951452
    One-Electron Energy =               -1468.3785128576105308
    Two-Electron Energy =                 594.8876677168871083
    DFT Exchange-Correlation Energy =       0.0000000000000000
    Empirical Dispersion Energy =           0.0000000000000000
    PCM Polarization Energy =               0.0000000000000000
    EFP Energy =                            0.0000000000000000
    Total Energy =                       -423.1194080791283341
    Molecular point group: c1
  Basis Set: CC-PVTZ
  Basis Set:

  -Total Gradient:
     Atom            X                  Y                   Z
    ------   -----------------  -----------------  -----------------
       1        0.000871843411     0.002355713625    -0.002868534538
       2       -0.001384756881    -0.003332501672     0.002340770414
       3        0.000120175625     0.000018761670     0.000012861996
       4        0.000616358781     0.000846137240     0.003683026416
       5       -0.000058530424     0.000015943246     0.000016030087
       6       -0.000017741499     0.000003316011    -0.000032561700
       7       -0.000013929521    -0.000030416107     0.000004724777
       8       -0.000090575318     0.000113078779    -0.003147393354
       9       -0.000018035556    -0.000009692283     0.000000855060
      10       -0.000037333028     0.000001460903    -0.000013486865
      11        0.000006077394     0.000017464365     0.000010900360
      12        0.000016035821    -0.000000309272    -0.000008002900
      13        0.000002843385    -0.000009718426    -0.000009171010
      14       -0.000002338619    -0.000006523280     0.000006470497
      15       -0.000018284078    -0.000000225172     0.000001132886
      16        0.000004432655     0.000006951074    -0.000004228662
      17        0.000002637993     0.000006070066     0.000011432990
      18        0.000009136310     0.000004350450    -0.000005930842
      19       -0.000002783525    -0.000008272553    -0.000009830234
      20       -0.000004919268    -0.000005950779     0.000006272101
      21        0.000003139086     0.000008322250    -0.000006055289
      22       -0.000006387806    -0.000000869168     0.000000062970
      23        0.000002935046     0.000006909032     0.000010654839

  **** Optimization is complete! (in 20 steps) ****
    Final optimized geometry and variables:
    Molecular point group: c1

    Geometry (in Angstrom), charge = 0, multiplicity = 1:

    O           -3.580161456892    -0.380660971128    -0.477930728149
    C           -2.708603437635     0.067237102600     0.175131411302
    C           -2.901088121123     1.230231160693     1.116503126174
    O           -1.487045284553    -0.469545236849     0.120694605417
    H           -3.955337318003     1.438834383911     1.194110545121
    H           -2.493745616221     1.001662695505     2.092942060306
    H           -2.393958082421     2.110267375944     0.740447045154
    C           -0.329786170417     0.342933410009     0.126692461387
    C            0.866826010241    -0.549880868610    -0.126693686841
    H           -0.412438869374     1.095299778186    -0.650588858336
    H           -0.227467476448     0.848896908078     1.080095631804
    C            2.178910687563     0.228576496676    -0.142076957366
    H            0.722307918439    -1.060598138304    -1.072092714661
    H            0.894973887683    -1.315113433116     0.641800049049
    C            3.394362261232    -0.657909975019    -0.399075717957
    H            2.134337738332     1.001632148986    -0.905688243539
    H            2.308321771794     0.744054421283     0.806840850082
    C            4.706801699069     0.118040150761    -0.415766971360
    H            3.267168432037    -1.172779225846    -1.346921405121
    H            3.441221027502    -1.430318685317     0.363225039983
    H            4.703812045059     0.876266419145    -1.191737545639
    H            5.547918103180    -0.539807497737    -0.600341852059
    H            4.879241908194     0.616964273727     0.532127634187

  Mulliken Charges: (a.u.)
   Center  Symbol    Alpha    Beta     Spin     Total
       1     O     4.17491  4.17491  0.00000 -0.34982
       2     C     2.81884  2.81884  0.00000  0.36232
       3     C     3.16568  3.16568  0.00000 -0.33136
       4     O     4.13864  4.13864  0.00000 -0.27729
       5     H     0.42793  0.42793  0.00000  0.14414
       6     H     0.44342  0.44342  0.00000  0.11316
       7     H     0.44744  0.44744  0.00000  0.10512
       8     C     2.98424  2.98424  0.00000  0.03153
       9     C     3.08282  3.08282  0.00000 -0.16564
      10     H     0.45901  0.45901  0.00000  0.08198
      11     H     0.46123  0.46123  0.00000  0.07755
      12     C     3.09928  3.09928  0.00000 -0.19856
      13     H     0.44434  0.44434  0.00000  0.11132
      14     H     0.44760  0.44760  0.00000  0.10480
      15     C     3.08589  3.08589  0.00000 -0.17179
      16     H     0.45366  0.45366  0.00000  0.09268
      17     H     0.45475  0.45475  0.00000  0.09050
      18     C     3.14943  3.14943  0.00000 -0.29887
      19     H     0.45175  0.45175  0.00000  0.09650
      20     H     0.45254  0.45254  0.00000  0.09491
      21     H     0.45468  0.45468  0.00000  0.09065
      22     H     0.44680  0.44680  0.00000  0.10639
      23     H     0.45512  0.45512  0.00000  0.08976

   Total alpha = 36.00000, Total beta = 36.00000, Total charge =  0.00000

*** Psi4 exiting successfully. Buy a developer a beer!
