                              Psi4 1.0.54 Driver

  ==> Input File <==

--------------------------------------------------------------------------
set {
	reference rhf
	basis cc-pvtz
}

set_num_threads( 4 )
memory 2 gb

molecule MOL {
0 1

O	 -2.817697	 1.304178	 0.001046
C	 -2.664672	 0.129869	 0.003507
C	 -3.797908	 -0.860100	 -0.001145
O	 -1.481217	 -0.452708	 0.001092
H	 -4.408836	 -0.679689	 -0.875387
H	 -3.443486	 -1.878443	 -0.002770
H	 -4.412123	 -0.683688	 0.871605
C	 -0.332055	 0.384012	 -0.000250
C	 0.892252	 -0.506059	 -0.000295
H	 -0.360822	 1.020205	 -0.874146
H	 -0.359817	 1.021310	 0.872861
C	 1.235523	 -1.010877	 -1.398753
H	 0.716729	 -1.345866	 0.664224
H	 1.730278	 0.048183	 0.409818
C	 2.467904	 -1.910735	 -1.423613
H	 0.387364	 -1.555712	 -1.805888
H	 1.398767	 -0.163567	 -2.060109
C	 2.811972	 -2.414453	 -2.821072
H	 2.305293	 -2.758739	 -0.764444
H	 3.316164	 -1.367302	 -1.017136
H	 1.995168	 -2.991635	 -3.241236
H	 3.690245	 -3.049153	 -2.803775
H	 3.013554	 -1.589390	 -3.495972

	symmetry c1
}
set optking {
	frozen_dihedral = ("
		13 9 8 10
	")
}

ee,wfn = optimize('scf', return_wfn=True)
oeprop( wfn, 'DIPOLE', 'QUADRUPOLE', 'MULLIKEN_CHARGES')
f=open( 'psi4out.xyz', 'w' )
f.write( "23  " )
f.write( str(ee) + "\n" )
f.write( MOL.save_string_xyz() )
f.close()
--------------------------------------------------------------------------

    Molecular point group: c1
  Charge       = 0
  Multiplicity = 1
  Basis Set: CC-PVTZ
  Basis Set:
  @DF-RHF Final Energy:  -423.13317334819726
    Total Energy =                       -423.1331733481972606
    Molecular point group: c1
  Basis Set: CC-PVTZ
  Basis Set:
  Basis Set: CC-PVTZ
  Basis Set:
  @DF-RHF Final Energy:  -423.13318249580828
    Total Energy =                       -423.1331824958085690
  Basis Set: CC-PVTZ
  Basis Set:
  Basis Set: CC-PVTZ
  Basis Set:
  @DF-RHF Final Energy:  -423.13335044061506
    Total Energy =                       -423.1333504406152315
  Basis Set: CC-PVTZ
  Basis Set:
  Basis Set: CC-PVTZ
  Basis Set:
  @DF-RHF Final Energy:  -423.13345697135054
    Total Energy =                       -423.1334569713505971
  Basis Set: CC-PVTZ
  Basis Set:
  Basis Set: CC-PVTZ
  Basis Set:
  @DF-RHF Final Energy:  -423.13347716056541
    Total Energy =                       -423.1334771605659171
  Basis Set: CC-PVTZ
  Basis Set:
  Basis Set: CC-PVTZ
  Basis Set:
  @DF-RHF Final Energy:  -423.13348219542308
    Total Energy =                       -423.1334821954228573
  Basis Set: CC-PVTZ
  Basis Set:
  Basis Set: CC-PVTZ
  Basis Set:
  @DF-RHF Final Energy:  -423.13348343998695
    Total Energy =                       -423.1334834399867759
  Basis Set: CC-PVTZ
  Basis Set:
  Charge       = 0
  Multiplicity = 1
  Basis Set: CC-PVTZ
  Basis Set:

    Orbital Energies (a.u.)
    -----------------------

    Doubly Occupied:

       1A    -20.595759     2A    -20.529489     3A    -11.366385
       4A    -11.280283     5A    -11.230949     6A    -11.223098
       7A    -11.217895     8A    -11.217134     9A    -11.209840
      10A     -1.470803    11A     -1.363720    12A     -1.093302
      13A     -1.042380    14A     -1.003454    15A     -0.931551
      16A     -0.843236    17A     -0.800070    18A     -0.780813
      19A     -0.690927    20A     -0.685375    21A     -0.669359
      22A     -0.644988    23A     -0.609361    24A     -0.585345
      25A     -0.578489    26A     -0.575831    27A     -0.559741
      28A     -0.534394    29A     -0.529819    30A     -0.507167
      31A     -0.498025    32A     -0.474314    33A     -0.470544
      34A     -0.463811    35A     -0.448500    36A     -0.440418

  @DF-RHF Final Energy:  -423.13348354230374

   => Energetics <=

    Nuclear Repulsion Energy =            457.6782024842355554
    One-Electron Energy =               -1483.2902409941455062
    Two-Electron Energy =                 602.4785549676055325
    DFT Exchange-Correlation Energy =       0.0000000000000000
    Empirical Dispersion Energy =           0.0000000000000000
    PCM Polarization Energy =               0.0000000000000000
    EFP Energy =                            0.0000000000000000
    Total Energy =                       -423.1334835423044751
    Molecular point group: c1
  Basis Set: CC-PVTZ
  Basis Set:

  -Total Gradient:
     Atom            X                  Y                   Z
    ------   -----------------  -----------------  -----------------
       1        0.000022379799    -0.000001332920    -0.000004742847
       2       -0.000008409756    -0.000008792645    -0.000007921039
       3       -0.000000349339    -0.000004636581    -0.000005021777
       4       -0.000015605111    -0.000004950437    -0.000001847250
       5       -0.000001276971     0.000004161238     0.000005986304
       6       -0.000002668064     0.000000840947     0.000000891914
       7        0.000002342222    -0.000004688357     0.000002919703
       8        0.001983598617     0.002768878029     0.001693909345
       9        0.001149339158     0.001518762338     0.002811650759
      10       -0.001807177378    -0.002498186402    -0.001800269303
      11        0.000009127303     0.000003400085    -0.000008756154
      12        0.000008081296     0.000019520960    -0.000006192515
      13       -0.001338653480    -0.001782089919    -0.002666820053
      14       -0.000002921697    -0.000003138682    -0.000003353549
      15       -0.000005654826    -0.000002391519    -0.000004629134
      16        0.000006759337    -0.000000868124     0.000004580435
      17        0.000000001318    -0.000002297817    -0.000008794080
      18        0.000004535856    -0.000000515365    -0.000000480476
      19       -0.000000238506    -0.000000067837     0.000000985854
      20       -0.000003693408    -0.000000374289    -0.000001618766
      21        0.000000968916     0.000000108589     0.000001333577
      22        0.000000550761    -0.000000488582    -0.000002373111
      23       -0.000001036054    -0.000000852709     0.000000562166

  **** Optimization is complete! (in 8 steps) ****
    Final optimized geometry and variables:
    Molecular point group: c1

    Geometry (in Angstrom), charge = 0, multiplicity = 1:

    O           -2.416376127487     1.859570795920     0.632772517554
    C           -2.239918563059     0.688454206265     0.618523639429
    C           -3.354146622342    -0.322627724804     0.581030773744
    O           -1.045792218264     0.129489325112     0.635002689701
    H           -3.950674226906    -0.144258452886    -0.303602913081
    H           -2.981016010560    -1.334327960749     0.576149682738
    H           -3.988977393026    -0.166871055861     1.442938930504
    C            0.089391300238     0.991702046962     0.670710332631
    C            1.331500672165     0.120793314067     0.632522926496
    H            0.034345088702     1.647148038167    -0.187119843152
    H            0.041849309987     1.590699593982     1.568050950348
    C            1.677059270606    -0.383557461061    -0.767335549103
    H            1.169447684466    -0.731863936023     1.283181022773
    H            2.164650930813     0.688467067536     1.034060759942
    C            2.892089988426    -1.305989286565    -0.788891199272
    H            0.820077832555    -0.907807333804    -1.179910678432
    H            1.860916221246     0.467054707706    -1.419295956717
    C            3.242891393949    -1.800410299421    -2.188118948162
    H            2.706005921248    -2.158745433982    -0.141832752903
    H            3.746939123956    -0.784542370047    -0.366442406346
    H            2.419211513977    -2.355491827064    -2.624457960973
    H            4.107800785683    -2.453302124712    -2.168380319715
    H            3.469176088025    -0.971790703652    -2.850832360482

  Mulliken Charges: (a.u.)
   Center  Symbol    Alpha    Beta     Spin     Total
       1     O     4.20287  4.20287  0.00000 -0.40575
       2     C     2.81329  2.81329  0.00000  0.37342
       3     C     3.13968  3.13968  0.00000 -0.27935
       4     O     4.14963  4.14963  0.00000 -0.29927
       5     H     0.44206  0.44206  0.00000  0.11588
       6     H     0.44239  0.44239  0.00000  0.11523
       7     H     0.44169  0.44169  0.00000  0.11661
       8     C     2.98898  2.98898  0.00000  0.02204
       9     C     3.08732  3.08732  0.00000 -0.17464
      10     H     0.45246  0.45246  0.00000  0.09508
      11     H     0.44400  0.44400  0.00000  0.11200
      12     C     3.08967  3.08967  0.00000 -0.17935
      13     H     0.45099  0.45099  0.00000  0.09803
      14     H     0.44928  0.44928  0.00000  0.10144
      15     C     3.08567  3.08567  0.00000 -0.17134
      16     H     0.45007  0.45007  0.00000  0.09985
      17     H     0.45455  0.45455  0.00000  0.09091
      18     C     3.14962  3.14962  0.00000 -0.29924
      19     H     0.45352  0.45352  0.00000  0.09296
      20     H     0.45479  0.45479  0.00000  0.09043
      21     H     0.45476  0.45476  0.00000  0.09049
      22     H     0.44797  0.44797  0.00000  0.10406
      23     H     0.45475  0.45475  0.00000  0.09051

   Total alpha = 36.00000, Total beta = 36.00000, Total charge = -0.00000

*** Psi4 exiting successfully. Buy a developer a beer!
