  ==> Input File <==

--------------------------------------------------------------------------
set {
	reference rhf
	basis 6-31G*
}

set_num_threads( 4 )
memory 2 gb

molecule MOL {
0 1

H	 3.777811	 0.447193	 1.052589
N	 2.961508	 -0.132830	 1.080295
C	 1.795035	 0.594733	 0.601213
H	 2.835051	 -0.409031	 2.035570
C	 0.575034	 -0.319049	 0.552695
H	 2.016802	 0.950180	 -0.400454
H	 1.563079	 1.477449	 1.202384
C	 -0.679275	 0.379305	 0.025956
H	 0.814600	 -1.178367	 -0.066996
H	 0.379515	 -0.704958	 1.552786
C	 -1.903357	 -0.536963	 -0.023547
H	 -0.483568	 0.767806	 -0.972350
H	 -0.904666	 1.243044	 0.649655
C	 -3.225172	 0.228290	 0.028445
H	 -1.867824	 -1.134999	 -0.931459
H	 -1.860449	 -1.239604	 0.805977
H	 -3.313397	 0.915643	 -0.808262
H	 -4.073500	 -0.448134	 -0.008893
H	 -3.306061	 0.809945	 0.942516

	symmetry c1
}
set optking {
	frozen_dihedral = ("
		12 8 11 15
	")
}

ee = optimize('scf')
oeprop('DIPOLE', 'QUADRUPOLE', 'MULLIKEN_CHARGES')
f=open( 'psi4out.xyz', 'w' )
f.write( "19  " )
f.write( str(ee) + "\n" )
f.write( MOL.save_string_xyz() )
f.close()
--------------------------------------------------------------------------

    Molecular point group: c1
  Charge       = 0
  Multiplicity = 1
  Basis Set: 6-31G*
  Basis Set:
  @DF-RHF Final Energy:  -251.34968931027089
    Total Energy =                       -251.3496893102707759
    Molecular point group: c1
  Basis Set: 6-31G*
  Basis Set:
  Basis Set: 6-31G*
  Basis Set:
  @DF-RHF Final Energy:  -251.34988570318163
    Total Energy =                       -251.3498857031817124
  Basis Set: 6-31G*
  Basis Set:
  Basis Set: 6-31G*
  Basis Set:
  @DF-RHF Final Energy:  -251.34995087927726
    Total Energy =                       -251.3499508792770030
  Basis Set: 6-31G*
  Basis Set:
  Charge       = 0
  Multiplicity = 1
  Basis Set: 6-31G*
  Basis Set:

    Orbital Energies (a.u.)
    -----------------------

    Doubly Occupied:

       1A    -15.532410     2A    -11.239561     3A    -11.213915
       4A    -11.212726     5A    -11.209329     6A    -11.207368
       7A     -1.176492     8A     -1.072145     9A     -0.998091
      10A     -0.899657    11A     -0.813076    12A     -0.788849
      13A     -0.663449    14A     -0.643195    15A     -0.616058
      16A     -0.589057    17A     -0.563842    18A     -0.552547
      19A     -0.525657    20A     -0.499593    21A     -0.481607
      22A     -0.464422    23A     -0.460237    24A     -0.448420
      25A     -0.380850

  @DF-RHF Final Energy:  -251.34995172662514

   => Energetics <=

    Nuclear Repulsion Energy =            245.6652892762313627
    One-Electron Energy =                -825.5253768036402562
    Two-Electron Energy =                 328.5101358007835870
    DFT Exchange-Correlation Energy =       0.0000000000000000
    Empirical Dispersion Energy =           0.0000000000000000
    PCM Polarization Energy =               0.0000000000000000
    EFP Energy =                            0.0000000000000000
    Total Energy =                       -251.3499517266253633
    Molecular point group: c1
  Basis Set: 6-31G*
  Basis Set:

  -Total Gradient:
     Atom            X                  Y                   Z
    ------   -----------------  -----------------  -----------------
       1        0.000007570806    -0.000005963238    -0.000016779390
       2       -0.000008233332    -0.000003927569    -0.000053251248
       3        0.000002490756     0.000024016489     0.000041707369
       4       -0.000021821977     0.000008078580    -0.000012162004
       5       -0.000037848345    -0.000034109477     0.000147898544
       6        0.000009629288     0.000018336150    -0.000002931181
       7        0.000015467256    -0.000002094117     0.000009854541
       8       -0.003483733663     0.004403936214     0.000319825885
       9       -0.000052979573    -0.000030653278     0.000048525621
      10        0.000096537081    -0.000009742044     0.000046321961
      11        0.003161214727    -0.004239151221     0.002066268316
      12        0.002319258102    -0.003032641326    -0.000783556194
      13       -0.000024960706    -0.000120221821     0.000040616782
      14       -0.000003578017     0.000081956837     0.000097756686
      15       -0.001945894429     0.002798334841    -0.001954472864
      16        0.000025677723     0.000105546503    -0.000004609247
      17        0.000005711141    -0.000004714678     0.000008113418
      18        0.000009165879    -0.000005595117    -0.000005452775
      19       -0.000073672716     0.000048608273     0.000006325779

  **** Optimization is complete! (in 4 steps) ****
    Final optimized geometry and variables:
    Molecular point group: c1

    Geometry (in Angstrom), charge = 0, multiplicity = 1:

    H            3.843784207366     0.383881894447     0.592366771860
    N            3.022204439112    -0.186492783560     0.649247087229
    C            1.851700099698     0.547259528106     0.189780233090
    H            2.917355895572    -0.447857820287     1.611290469185
    C            0.620795660155    -0.352769835949     0.186298911232
    H            2.051525765430     0.885862137867    -0.822343767495
    H            1.645167579349     1.441337961265     0.783593037478
    C           -0.641661314675     0.353742326259    -0.314895886685
    H            0.832874244713    -1.222476437567    -0.429329915636
    H            0.448765337039    -0.724974631499     1.195793729573
    C           -1.854790381484    -0.581759528575    -0.398977830667
    H           -0.435426693941     0.755609061654    -1.304991355064
    H           -0.867323996241     1.197143925130     0.334050228695
    C           -3.185518541827     0.173381935914    -0.407129150581
    H           -1.790768855046    -1.165860328129    -1.313562653158
    H           -1.843624191576    -1.282313210108     0.431838029478
    H           -3.228392725977     0.880992840520    -1.230699368068
    H           -4.024708720186    -0.507387759867    -0.513191410372
    H           -3.326132130215     0.732015735761     0.513998922320

  Mulliken Charges: (a.u.)
   Center  Symbol    Alpha    Beta     Spin     Total
       1     H     0.33252  0.33252  0.00000  0.33496
       2     N     3.92183  3.92183  0.00000 -0.84367
       3     C     3.06036  3.06036  0.00000 -0.12072
       4     H     0.33538  0.33538  0.00000  0.32924
       5     C     3.15251  3.15251  0.00000 -0.30502
       6     H     0.42102  0.42102  0.00000  0.15797
       7     H     0.43488  0.43488  0.00000  0.13024
       8     C     3.15570  3.15570  0.00000 -0.31141
       9     H     0.41322  0.41322  0.00000  0.17356
      10     H     0.42774  0.42774  0.00000  0.14451
      11     C     3.15149  3.15149  0.00000 -0.30297
      12     H     0.42258  0.42258  0.00000  0.15485
      13     H     0.42376  0.42376  0.00000  0.15248
      14     C     3.23972  3.23972  0.00000 -0.47944
      15     H     0.42097  0.42097  0.00000  0.15805
      16     H     0.42183  0.42183  0.00000  0.15635
      17     H     0.42205  0.42205  0.00000  0.15591
      18     H     0.42000  0.42000  0.00000  0.16001
      19     H     0.42245  0.42245  0.00000  0.15511

   Total alpha = 25.00000, Total beta = 25.00000, Total charge = -0.00000
