  ==> Input File <==

--------------------------------------------------------------------------
set {
	reference rhf
	basis 6-31G*
}

set_num_threads( 4 )
memory 2 gb

molecule MOL {
0 1

O	 0.747326	 2.049501	 0.286964
C	 -0.262718	 2.321992	 0.851411
C	 -1.527571	 1.498726	 0.834830
O	 -0.410715	 3.415580	 1.588389
C	 -1.412532	 0.227344	 -0.000452
H	 -1.779778	 1.270283	 1.866799
H	 -2.326630	 2.138456	 0.470133
C	 -2.706999	 -0.587347	 -0.000541
H	 -0.596199	 -0.378767	 0.379988
H	 -1.143339	 0.490647	 -1.018642
C	 -3.956778	 0.291888	 0.000910
H	 -2.726114	 -1.239230	 -0.871609
H	 -2.725217	 -1.240844	 0.869333
H	 -3.985213	 0.933254	 -0.875158
H	 -4.860123	 -0.309979	 0.000519
H	 -3.984618	 0.931166	 0.878514
C	 0.706799	 4.279515	 1.687981
H	 1.546414	 3.765045	 2.132790
H	 0.392631	 5.096956	 2.318089
H	 0.991470	 4.646614	 0.712425

	symmetry c1
}
set optking {
	frozen_dihedral = ("
		9 5 8 12
	")
}

ee = optimize('scf')
oeprop('DIPOLE', 'QUADRUPOLE', 'MULLIKEN_CHARGES')
f=open( 'psi4out.xyz', 'w' )
f.write( "20  " )
f.write( str(ee) + "\n" )
f.write( MOL.save_string_xyz() )
f.close()
--------------------------------------------------------------------------

    Molecular point group: c1
  Charge       = 0
  Multiplicity = 1
  Basis Set: 6-31G*
  Basis Set:
  @DF-RHF Final Energy:  -383.93459615880727
    Total Energy =                       -383.9345961588069258
    Molecular point group: c1
  Basis Set: 6-31G*
  Basis Set:
  Basis Set: 6-31G*
  Basis Set:
  @DF-RHF Final Energy:  -383.93533950342294
    Total Energy =                       -383.9353395034229379
  Basis Set: 6-31G*
  Basis Set:
  Basis Set: 6-31G*
  Basis Set:
  @DF-RHF Final Energy:  -383.93698336269443
    Total Energy =                       -383.9369833626944910
  Basis Set: 6-31G*
  Basis Set:
  Basis Set: 6-31G*
  Basis Set:
  @DF-RHF Final Energy:  -383.93701119476395
    Total Energy =                       -383.9370111947636133
  Basis Set: 6-31G*
  Basis Set:
  Basis Set: 6-31G*
  Basis Set:
  @DF-RHF Final Energy:  -383.93711460382241
    Total Energy =                       -383.9371146038222378
  Basis Set: 6-31G*
  Basis Set:
  Basis Set: 6-31G*
  Basis Set:
  @DF-RHF Final Energy:  -383.93716565057224
    Total Energy =                       -383.9371656505722967
  Basis Set: 6-31G*
  Basis Set:
  Charge       = 0
  Multiplicity = 1
  Basis Set: 6-31G*
  Basis Set:

    Orbital Energies (a.u.)
    -----------------------

    Doubly Occupied:

       1A    -20.603437     2A    -20.545358     3A    -11.372094
       4A    -11.280739     5A    -11.234830     6A    -11.220740
       7A    -11.219735     8A    -11.212999     9A     -1.469181
      10A     -1.362631    11A     -1.087831    12A     -1.021526
      13A     -0.967260    14A     -0.896991    15A     -0.798648
      16A     -0.761732    17A     -0.701285    18A     -0.683173
      19A     -0.671245    20A     -0.641356    21A     -0.607456
      22A     -0.593688    23A     -0.566784    24A     -0.547888
      25A     -0.538421    26A     -0.522371    27A     -0.511359
      28A     -0.472864    29A     -0.467718    30A     -0.467617
      31A     -0.455378    32A     -0.437760

  @DF-RHF Final Energy:  -383.93716651716812

   => Energetics <=

    Nuclear Repulsion Energy =            385.6479019970088871
    One-Electron Energy =               -1287.2859499222986415
    Two-Electron Energy =                 517.7008814081218588
    DFT Exchange-Correlation Energy =       0.0000000000000000
    Empirical Dispersion Energy =           0.0000000000000000
    PCM Polarization Energy =               0.0000000000000000
    EFP Energy =                            0.0000000000000000
    Total Energy =                       -383.9371665171679524
    Molecular point group: c1
  Basis Set: 6-31G*
  Basis Set:

  -Total Gradient:
     Atom            X                  Y                   Z
    ------   -----------------  -----------------  -----------------
       1       -0.000002848572    -0.000028797798     0.000038746669
       2       -0.000072925704     0.000103982418    -0.000131010092
       3        0.000007292180     0.000050346356     0.000045816630
       4        0.000019232578    -0.000017649381     0.000022666823
       5        0.000706239901    -0.001545341520    -0.007015031963
       6       -0.000008068727    -0.000005467558    -0.000015092095
       7        0.000033103953     0.000043835342    -0.000000038302
       8        0.003189167807    -0.004199578327     0.004795370696
       9       -0.001097327706     0.001833849382     0.005185507048
      10        0.000002700468    -0.000036433152     0.000017392153
      11       -0.000014941480     0.000049155886     0.000070126239
      12       -0.002794995651     0.003786650485    -0.003015033063
      13        0.000030137262    -0.000005523587    -0.000005490497
      14        0.000029028100     0.000021222666     0.000004054757
      15        0.000007894235    -0.000006022831    -0.000008612230
      16       -0.000045845572    -0.000039898246    -0.000020397941
      17        0.000014774902    -0.000021149636     0.000049567880
      18        0.000008127527     0.000016435668    -0.000003224627
      19        0.000001038718     0.000006815526    -0.000006029959
      20       -0.000011784220    -0.000006431692    -0.000009288125

  **** Optimization is complete! (in 7 steps) ****
    Final optimized geometry and variables:
    Molecular point group: c1

    Geometry (in Angstrom), charge = 0, multiplicity = 1:

    O            1.843225638297     0.310132301048    -0.366413438932
    C            0.836432180525     0.617909926451     0.185698406892
    C           -0.459258909230    -0.156431841112     0.152588029232
    O            0.719925971561     1.715097945354     0.923463128806
    C           -0.369619626154    -1.430458534879    -0.688988609995
    H           -0.726252648204    -0.381387585717     1.181994430589
    H           -1.224154782302     0.521599144096    -0.210529470196
    C           -1.630250676324    -2.311186065933    -0.634043064514
    H            0.470868690085    -1.999080004328    -0.306960316554
    H           -0.139508317988    -1.163366606705    -1.714354387341
    C           -2.961604317663    -1.554550695680    -0.695592910931
    H           -1.608662328706    -2.976250498611    -1.492829324054
    H           -1.611035794780    -2.930203070548     0.258511528052
    H           -3.005120482643    -0.903437016809    -1.564837819671
    H           -3.789271316311    -2.252990960032    -0.768846886549
    H           -3.130790517217    -0.944080741909     0.185204979099
    C            1.867338060510     2.536679194302     1.039016533354
    H            2.681686624463     1.990871678337     1.493399221962
    H            1.575722462647     3.364322686404     1.666680087154
    H            2.177858743339     2.894474267305     0.067891750617

  Mulliken Charges: (a.u.)
   Center  Symbol    Alpha    Beta     Spin     Total
       1     O     4.28592  4.28592  0.00000 -0.57184
       2     C     2.60506  2.60506  0.00000  0.78989
       3     C     3.21170  3.21170  0.00000 -0.42340
       4     O     4.30730  4.30730  0.00000 -0.61460
       5     C     3.15331  3.15331  0.00000 -0.30662
       6     H     0.40132  0.40132  0.00000  0.19736
       7     H     0.39839  0.39839  0.00000  0.20323
       8     C     3.15484  3.15484  0.00000 -0.30969
       9     H     0.40886  0.40886  0.00000  0.18229
      10     H     0.41197  0.41197  0.00000  0.17606
      11     C     3.24563  3.24563  0.00000 -0.49127
      12     H     0.41746  0.41746  0.00000  0.16508
      13     H     0.42036  0.42036  0.00000  0.15929
      14     H     0.42122  0.42122  0.00000  0.15755
      15     H     0.41702  0.41702  0.00000  0.16597
      16     H     0.42057  0.42057  0.00000  0.15886
      17     C     3.09234  3.09234  0.00000 -0.18469
      18     H     0.40915  0.40915  0.00000  0.18170
      19     H     0.40849  0.40849  0.00000  0.18302
      20     H     0.40909  0.40909  0.00000  0.18181

   Total alpha = 32.00000, Total beta = 32.00000, Total charge =  0.00000
