                              Psi4 1.0.54 Driver

  ==> Input File <==

--------------------------------------------------------------------------
set {
	reference rhf
	basis cc-pvtz
}

set_num_threads( 4 )
memory 2 gb

molecule MOL {
0 1

O	 -1.510770	 1.240811	 -0.054933
C	 -1.081510	 0.147522	 0.122720
C	 0.327029	 -0.064006	 0.641890
C	 -1.903028	 -1.084121	 -0.174656
C	 1.349460	 -0.017068	 -0.500215
H	 0.399029	 -1.014606	 1.159950
H	 0.538021	 0.726928	 1.350471
C	 1.147058	 1.186545	 -1.413502
H	 2.355366	 0.006792	 -0.091044
H	 1.269035	 -0.932495	 -1.074544
H	 1.873970	 1.189558	 -2.217006
H	 1.253032	 2.117462	 -0.866770
H	 0.158848	 1.174853	 -1.859792
H	 -1.341891	 -1.779207	 -0.789259
H	 -2.820449	 -0.808163	 -0.671328
H	 -2.133314	 -1.593056	 0.755831

	symmetry c1
}
set optking {
	frozen_dihedral = ("
		9 5 3 2
	")
}

ee,wfn = optimize('scf', return_wfn=True)
oeprop( wfn, 'DIPOLE', 'QUADRUPOLE', 'MULLIKEN_CHARGES')
f=open( 'psi4out.xyz', 'w' )
f.write( "16  " )
f.write( str(ee) + "\n" )
f.write( MOL.save_string_xyz() )
f.close()
--------------------------------------------------------------------------

    Molecular point group: c1
  Charge       = 0
  Multiplicity = 1
  Basis Set: CC-PVTZ
  Basis Set:
  @DF-RHF Final Energy:  -270.12488840926733
    Total Energy =                       -270.1248884092671005
    Molecular point group: c1
  Basis Set: CC-PVTZ
  Basis Set:
  Basis Set: CC-PVTZ
  Basis Set:
  @DF-RHF Final Energy:  -270.12643012756536
    Total Energy =                       -270.1264301275652429
  Basis Set: CC-PVTZ
  Basis Set:
  Basis Set: CC-PVTZ
  Basis Set:
  @DF-RHF Final Energy:  -270.12554949432808
    Total Energy =                       -270.1255494943280269
  Basis Set: CC-PVTZ
  Basis Set:
  Basis Set: CC-PVTZ
  Basis Set:
  @DF-RHF Final Energy:  -270.12707753281393
    Total Energy =                       -270.1270775328140417
  Basis Set: CC-PVTZ
  Basis Set:
  @DF-RHF Final Energy:  -270.12737260839822
    Total Energy =                       -270.1273726083981046
  @DF-RHF Final Energy:  -270.12748983679296
    Total Energy =                       -270.1274898367928472
  @DF-RHF Final Energy:  -270.12759194165994
    Total Energy =                       -270.1275919416600004
  @DF-RHF Final Energy:  -270.12761119648565
    Total Energy =                       -270.1276111964858160
  Basis Set: CC-PVTZ
  Basis Set:
  @DF-RHF Final Energy:  -270.12761342166198
    Total Energy =                       -270.1276134216620903
  Basis Set: CC-PVTZ
  Basis Set:
  Basis Set: CC-PVTZ
  Basis Set:
  @DF-RHF Final Energy:  -270.12761480359507
    Total Energy =                       -270.1276148035949518
  Basis Set: CC-PVTZ
  Basis Set:
  Basis Set: CC-PVTZ
  Basis Set:
  @DF-RHF Final Energy:  -270.12761582782446
    Total Energy =                       -270.1276158278243429
  Basis Set: CC-PVTZ
  Basis Set:
  Charge       = 0
  Multiplicity = 1
  Basis Set: CC-PVTZ
  Basis Set:

    Orbital Energies (a.u.)
    -----------------------

    Doubly Occupied:

       1A    -20.538140     2A    -11.319563     3A    -11.233342
       4A    -11.228678     5A    -11.226753     6A    -11.214871
       7A     -1.397824     8A     -1.084120     9A     -1.010069
      10A     -0.951304    11A     -0.835875    12A     -0.730047
      13A     -0.657383    14A     -0.647780    15A     -0.625927
      16A     -0.604541    17A     -0.580328    18A     -0.562058
      19A     -0.536184    20A     -0.510740    21A     -0.505459
      22A     -0.485577    23A     -0.476803    24A     -0.400559

  @DF-RHF Final Energy:  -270.12761624560545

   => Energetics <=

    Nuclear Repulsion Energy =            243.0100423640148506
    One-Electron Energy =                -847.5474711351445194
    Two-Electron Energy =                 334.4098125255245009
    DFT Exchange-Correlation Energy =       0.0000000000000000
    Empirical Dispersion Energy =           0.0000000000000000
    PCM Polarization Energy =               0.0000000000000000
    EFP Energy =                            0.0000000000000000
    Total Energy =                       -270.1276162456052248
    Molecular point group: c1
  Basis Set: CC-PVTZ
  Basis Set:

  -Total Gradient:
     Atom            X                  Y                   Z
    ------   -----------------  -----------------  -----------------
       1        0.000010285475     0.000021085968     0.000011413393
       2        0.000236639046     0.002092304143    -0.000029132444
       3       -0.000355479546    -0.002339325567    -0.000060347012
       4       -0.000001646504     0.000039889055     0.000004041717
       5        0.000110467971    -0.002562894186     0.000445502374
       6       -0.000012872146    -0.000008365006    -0.000008890555
       7        0.000010424064    -0.000004669615     0.000018606407
       8       -0.000005162443     0.000005395653    -0.000036377282
       9       -0.000020137575     0.002821429308    -0.000350643317
      10        0.000010353111    -0.000007160312     0.000002874147
      11        0.000002999970    -0.000003798083     0.000007258757
      12       -0.000001378535     0.000000352550     0.000001021125
      13        0.000005459459     0.000001606968     0.000004261839
      14        0.000037448181    -0.000024535919    -0.000049292826
      15       -0.000029286081     0.000012112218    -0.000007658528
      16        0.000001885552    -0.000043427171     0.000047362204

  **** Optimization is complete! (in 12 steps) ****
    Final optimized geometry and variables:
    Molecular point group: c1

    Geometry (in Angstrom), charge = 0, multiplicity = 1:

    O           -1.344152942921     1.016453351722     0.637459312514
    C           -0.793557856528    -0.023710982919     0.476470692143
    C            0.665058900286    -0.208766304063     0.847606602561
    C           -1.523323771955    -1.218547808041    -0.093960903176
    C            1.605972231171    -0.348214504219    -0.360177278517
    H            0.760398050923    -1.087061279427     1.478555481955
    H            0.947714180986     0.656640657245     1.432014972387
    C            1.427114496788     0.741908409301    -1.414803706487
    H            2.622096199736    -0.294308189426     0.013737247387
    H            1.490729884230    -1.324992651638    -0.817186347964
    H            2.169171682520     0.637243648969    -2.197368728409
    H            1.536269764846     1.727745689231    -0.977778912926
    H            0.449528687326     0.701286913553    -1.881105740883
    H           -0.996967794957    -1.618867490970    -0.952596130505
    H           -2.524549819010    -0.934238307178    -0.379042303076
    H           -1.568182016799    -2.005839963657     0.651437949945

  Mulliken Charges: (a.u.)
   Center  Symbol    Alpha    Beta     Spin     Total
       1     O     4.17534  4.17534  0.00000 -0.35067
       2     C     2.85508  2.85508  0.00000  0.28983
       3     C     3.10656  3.10656  0.00000 -0.21313
       4     C     3.15532  3.15532  0.00000 -0.31065
       5     C     3.10871  3.10871  0.00000 -0.21742
       6     H     0.44266  0.44266  0.00000  0.11468
       7     H     0.43827  0.43827  0.00000  0.12345
       8     C     3.14306  3.14306  0.00000 -0.28612
       9     H     0.44193  0.44193  0.00000  0.11615
      10     H     0.44955  0.44955  0.00000  0.10090
      11     H     0.44817  0.44817  0.00000  0.10365
      12     H     0.44742  0.44742  0.00000  0.10516
      13     H     0.45365  0.45365  0.00000  0.09269
      14     H     0.45050  0.45050  0.00000  0.09901
      15     H     0.43499  0.43499  0.00000  0.13001
      16     H     0.44877  0.44877  0.00000  0.10245

   Total alpha = 24.00000, Total beta = 24.00000, Total charge = -0.00000

*** Psi4 exiting successfully. Buy a developer a beer!
