                              Psi4 1.0.54 Driver

  ==> Input File <==

--------------------------------------------------------------------------
set {
	reference rhf
	basis cc-pvtz
}

set_num_threads( 4 )
memory 2 gb

molecule MOL {
0 1

H	 -0.508897	 1.374746	 -0.904744
O	 0.057669	 1.301365	 -0.158528
C	 0.004145	 -0.005141	 0.363049
C	 1.199168	 -0.827145	 -0.096690
C	 -1.316386	 -0.602081	 -0.083515
H	 0.012026	 0.043363	 1.450619
H	 1.216685	 -0.896776	 -1.178167
H	 2.129940	 -0.372354	 0.228035
H	 1.160783	 -1.829622	 0.314294
H	 -1.357882	 -0.655920	 -1.165207
H	 -2.140147	 0.011735	 0.257253
H	 -1.440790	 -1.601175	 0.317669

	symmetry c1
}
set optking {
	frozen_dihedral = ("
		1 2 3 4
	")
}

ee,wfn = optimize('scf', return_wfn=True)
oeprop( wfn, 'DIPOLE', 'QUADRUPOLE', 'MULLIKEN_CHARGES')
f=open( 'psi4out.xyz', 'w' )
f.write( "12  " )
f.write( str(ee) + "\n" )
f.write( MOL.save_string_xyz() )
f.close()
--------------------------------------------------------------------------

    Molecular point group: c1
  Charge       = 0
  Multiplicity = 1
  Basis Set: CC-PVTZ
  Basis Set:
  @DF-RHF Final Energy:  -193.19255329065612
    Total Energy =                       -193.1925532906560932
    Molecular point group: c1
  Basis Set: CC-PVTZ
  Basis Set:
  Basis Set: CC-PVTZ
  Basis Set:
  @DF-RHF Final Energy:  -193.19358576158427
    Total Energy =                       -193.1935857615842451
  Basis Set: CC-PVTZ
  Basis Set:
  Basis Set: CC-PVTZ
  Basis Set:
  @DF-RHF Final Energy:  -193.19437006652782
    Total Energy =                       -193.1943700665277106
  Basis Set: CC-PVTZ
  Basis Set:
  Basis Set: CC-PVTZ
  Basis Set:
  @DF-RHF Final Energy:  -193.19437818825043
    Total Energy =                       -193.1943781882504823
  Basis Set: CC-PVTZ
  Basis Set:
  Charge       = 0
  Multiplicity = 1
  Basis Set: CC-PVTZ
  Basis Set:

    Orbital Energies (a.u.)
    -----------------------

    Doubly Occupied:

       1A    -20.542634     2A    -11.274002     3A    -11.216729
       4A    -11.205950     5A     -1.363253     6A     -1.043632
       7A     -0.943123     8A     -0.817654     9A     -0.663903
      10A     -0.650552    11A     -0.606822    12A     -0.566228
      13A     -0.545963    14A     -0.517003    15A     -0.514103
      16A     -0.467080    17A     -0.432218

  @DF-RHF Final Energy:  -193.19437906521790

   => Energetics <=

    Nuclear Repulsion Energy =            135.5784730569483258
    One-Electron Energy =                -530.8040091715026847
    Two-Electron Energy =                 202.0311570493364570
    DFT Exchange-Correlation Energy =       0.0000000000000000
    Empirical Dispersion Energy =           0.0000000000000000
    PCM Polarization Energy =               0.0000000000000000
    EFP Energy =                            0.0000000000000000
    Total Energy =                       -193.1943790652179018
    Molecular point group: c1
  Basis Set: CC-PVTZ
  Basis Set:

  -Total Gradient:
     Atom            X                  Y                   Z
    ------   -----------------  -----------------  -----------------
       1       -0.001208772341     0.000385591035     0.000795254874
       2        0.001640953008    -0.000402569535    -0.000710908566
       3       -0.000832437666    -0.000247668441    -0.000865790822
       4        0.000396072851     0.000244442714     0.000810217556
       5       -0.000022751859     0.000060610909    -0.000048055784
       6        0.000002242245     0.000003466649     0.000016881735
       7        0.000004656127    -0.000006773951    -0.000012985165
       8        0.000026642273    -0.000002176293    -0.000004065556
       9       -0.000001108566    -0.000013481197     0.000006438282
      10       -0.000009696218     0.000003073853    -0.000000607652
      11       -0.000004668712    -0.000000656500    -0.000005740581
      12        0.000008868857    -0.000023859246     0.000019361678

  **** Optimization is complete! (in 5 steps) ****
    Final optimized geometry and variables:
    Molecular point group: c1

    Geometry (in Angstrom), charge = 0, multiplicity = 1:

    H           -0.314073942748     1.500546680380    -0.828742007508
    O            0.160670295021     1.324935320468    -0.037521640375
    C           -0.014175542063    -0.017892670904     0.354190358903
    C            1.193171613474    -0.843978121941    -0.061236411928
    C           -1.322755535793    -0.582911077763    -0.174187317455
    H           -0.060180538927    -0.000966530884     1.437581421588
    H            1.272282433962    -0.893588433213    -1.142657929044
    H            2.099818698692    -0.393956319208     0.322138321136
    H            1.122110533023    -1.856325033220     0.321918312175
    H           -1.319981553933    -0.610185866249    -1.260840565795
    H           -2.159475325372     0.024001074705     0.151242020901
    H           -1.478735168176    -1.594440371364     0.180722177047

  Mulliken Charges: (a.u.)
   Center  Symbol    Alpha    Beta     Spin     Total
       1     H     0.39334  0.39334  0.00000  0.21331
       2     O     4.21045  4.21045  0.00000 -0.42091
       3     C     2.92298  2.92298  0.00000  0.15403
       4     C     3.13878  3.13878  0.00000 -0.27756
       5     C     3.15607  3.15607  0.00000 -0.31215
       6     H     0.45604  0.45604  0.00000  0.08791
       7     H     0.46084  0.46084  0.00000  0.07833
       8     H     0.44632  0.44632  0.00000  0.10736
       9     H     0.45927  0.45927  0.00000  0.08146
      10     H     0.45917  0.45917  0.00000  0.08165
      11     H     0.44463  0.44463  0.00000  0.11074
      12     H     0.45209  0.45209  0.00000  0.09583

   Total alpha = 17.00000, Total beta = 17.00000, Total charge = -0.00000

*** Psi4 exiting successfully. Buy a developer a beer!
