  ==> Input File <==

--------------------------------------------------------------------------
set {
	reference rhf
	basis cc-pvtz
}

set_num_threads( 4 )
memory 2 gb

molecule MOL {
0 1

H	 1.820058	 -1.088657	 1.377055
C	 1.894011	 -0.261465	 0.658766
C	 0.645482	 0.561643	 0.502345
O	 2.903829	 -0.075694	 0.072770
C	 -0.554654	 -0.292621	 0.086567
H	 0.839558	 1.345726	 -0.217645
H	 0.440634	 1.028148	 1.463744
C	 -1.846385	 0.513195	 -0.016346
H	 -0.344541	 -0.761484	 -0.870490
H	 -0.691206	 -1.099799	 0.801752
C	 -3.089953	 -0.365049	 -0.098564
H	 -1.798267	 1.154820	 -0.891143
H	 -1.925398	 1.173265	 0.842889
H	 -3.055079	 -1.012299	 -0.968245
H	 -3.988403	 0.236438	 -0.170014
H	 -3.183055	 -0.995885	 0.779079

	symmetry c1
}
set optking {
	frozen_dihedral = ("
		9 5 8 12
	")
}

ee = optimize('scf')
oeprop('DIPOLE', 'QUADRUPOLE', 'MULLIKEN_CHARGES')
f=open( 'psi4out.xyz', 'w' )
f.write( "16  " )
f.write( str(ee) + "\n" )
f.write( MOL.save_string_xyz() )
f.close()
--------------------------------------------------------------------------

    Molecular point group: c1
  Charge       = 0
  Multiplicity = 1
  Basis Set: CC-PVTZ
  Basis Set:
  @DF-RHF Final Energy:  -270.11844869148672
    Total Energy =                       -270.1184486914869467
    Molecular point group: c1
  Basis Set: CC-PVTZ
  Basis Set:
  Basis Set: CC-PVTZ
  Basis Set:
  @DF-RHF Final Energy:  -270.11852640781728
    Total Energy =                       -270.1185264078173418
  Basis Set: CC-PVTZ
  Basis Set:
  Basis Set: CC-PVTZ
  Basis Set:
  @DF-RHF Final Energy:  -270.11849316528333
    Total Energy =                       -270.1184931652833257
  Basis Set: CC-PVTZ
  Basis Set:
  Basis Set: CC-PVTZ
  Basis Set:
  @DF-RHF Final Energy:  -270.11854877441976
    Total Energy =                       -270.1185487744199349
  Basis Set: CC-PVTZ
  Basis Set:
  Basis Set: CC-PVTZ
  Basis Set:
  @DF-RHF Final Energy:  -270.11857166417224
    Total Energy =                       -270.1185716641724071
  Basis Set: CC-PVTZ
  Basis Set:
  Basis Set: CC-PVTZ
  Basis Set:
  @DF-RHF Final Energy:  -270.11857480490681
    Total Energy =                       -270.1185748049068707
  Basis Set: CC-PVTZ
  Basis Set:
  Charge       = 0
  Multiplicity = 1
  Basis Set: CC-PVTZ
  Basis Set:

    Orbital Energies (a.u.)
    -----------------------

    Doubly Occupied:

       1A    -20.552000     2A    -11.321165     3A    -11.234737
       4A    -11.233837     5A    -11.227545     6A    -11.216693
       7A     -1.406738     8A     -1.097689     9A     -1.020036
      10A     -0.906597    11A     -0.812392    12A     -0.793708
      13A     -0.682172    14A     -0.647371    15A     -0.634728
      16A     -0.606561    17A     -0.581591    18A     -0.550832
      19A     -0.532432    20A     -0.509187    21A     -0.488463
      22A     -0.483380    23A     -0.479764    24A     -0.411317

  @DF-RHF Final Energy:  -270.11857491286077

   => Energetics <=

    Nuclear Repulsion Energy =            229.3692717366587317
    One-Electron Energy =                -820.1138213105009527
    Two-Electron Energy =                 320.6259746609813988
    DFT Exchange-Correlation Energy =       0.0000000000000000
    Empirical Dispersion Energy =           0.0000000000000000
    PCM Polarization Energy =               0.0000000000000000
    EFP Energy =                            0.0000000000000000
    Total Energy =                       -270.1185749128608791
    Molecular point group: c1
  Basis Set: CC-PVTZ
  Basis Set:

  -Total Gradient:
     Atom            X                  Y                   Z
    ------   -----------------  -----------------  -----------------
       1       -0.000004719463    -0.000007088393    -0.000008162745
       2        0.000012478907     0.000015030545     0.000016338891
       3       -0.000024308956    -0.000026900511    -0.000022370782
       4       -0.000001516414     0.000001789810     0.000000758244
       5       -0.002024991268    -0.003110684548     0.000603105190
       6        0.000002830724     0.000002217254     0.000000665064
       7        0.000009802084     0.000005872553     0.000002901203
       8        0.001696419195     0.002919345385     0.001650522025
       9        0.001431680606     0.002160138191    -0.000756805982
      10        0.000003972941    -0.000002426446     0.000004438750
      11        0.000003260282     0.000001353019     0.000003686484
      12       -0.001102862322    -0.001952673934    -0.001495716629
      13       -0.000002763477    -0.000004813129     0.000000623010
      14        0.000000638359     0.000001943375    -0.000000415503
      15        0.000000833184     0.000000118082     0.000000319756
      16       -0.000000754377    -0.000003221255     0.000000113025

  **** Optimization is complete! (in 7 steps) ****
    Final optimized geometry and variables:
    Molecular point group: c1

    Geometry (in Angstrom), charge = 0, multiplicity = 1:

    H            1.861871958174    -1.094091049535     1.165037889943
    C            1.913889825045    -0.267311959582     0.444261211236
    C            0.658913792586     0.551390391587     0.320866065669
    O            2.906866507138    -0.079569148302    -0.169358557122
    C           -0.547983209667    -0.307979613271    -0.069045084966
    H            0.832050748590     1.337872419434    -0.402126360712
    H            0.475277450316     1.014795349264     1.287804954279
    C           -1.834637691981     0.507075464312    -0.186941796035
    H           -0.336533094494    -0.781767690955    -1.023074892997
    H           -0.680520237928    -1.101112257366     0.661371431538
    C           -3.078384559594    -0.368642327510    -0.307056621232
    H           -1.771464599338     1.142009696231    -1.065203865134
    H           -1.934452543366     1.161922044397     0.673191062259
    H           -3.011033000721    -1.027480855660    -1.166337190549
    H           -3.971011921029     0.234689309000    -0.423053500436
    H           -3.208941133727    -0.987729212738     0.574056789044

  Mulliken Charges: (a.u.)
   Center  Symbol    Alpha    Beta     Spin     Total
       1     H     0.46540  0.46540  0.00000  0.06920
       2     C     2.91001  2.91001  0.00000  0.17998
       3     C     3.07674  3.07674  0.00000 -0.15348
       4     O     4.16407  4.16407  0.00000 -0.32814
       5     C     3.10235  3.10235  0.00000 -0.20470
       6     H     0.44257  0.44257  0.00000  0.11487
       7     H     0.45021  0.45021  0.00000  0.09959
       8     C     3.08454  3.08454  0.00000 -0.16909
       9     H     0.44508  0.44508  0.00000  0.10985
      10     H     0.45209  0.45209  0.00000  0.09582
      11     C     3.14887  3.14887  0.00000 -0.29773
      12     H     0.44961  0.44961  0.00000  0.10078
      13     H     0.45353  0.45353  0.00000  0.09294
      14     H     0.45332  0.45332  0.00000  0.09336
      15     H     0.44683  0.44683  0.00000  0.10634
      16     H     0.45479  0.45479  0.00000  0.09042

   Total alpha = 24.00000, Total beta = 24.00000, Total charge = -0.00000
