  ==> Input File <==

--------------------------------------------------------------------------
set {
	reference rhf
	basis 6-31G*
}

set_num_threads( 1 )
memory 2 gb

molecule MOL {
0 1

H	 2.438918	 -1.077441	 -0.185648
O	 1.654024	 -0.625927	 -0.460906
C	 1.135793	 0.118896	 0.612333
C	 0.031547	 1.023609	 0.088541
H	 1.915668	 0.729681	 1.063582
H	 0.754543	 -0.542641	 1.387006
C	 -1.134819	 0.293262	 -0.585751
H	 0.474374	 1.714721	 -0.623187
H	 -0.338529	 1.620940	 0.920081
C	 -1.917817	 -0.639439	 0.339494
H	 -0.758119	 -0.268455	 -1.433105
H	 -1.813832	 1.041889	 -0.986690
H	 -2.777680	 -1.057197	 -0.174994
H	 -1.310268	 -1.471279	 0.680599
H	 -2.283753	 -0.111424	 1.216626

	symmetry c1
}
set optking {
	frozen_dihedral = ("
		8 4 7 11,
		2 3 4 8
	")
}

ee = energy('scf')
oeprop('DIPOLE', 'QUADRUPOLE', 'MULLIKEN_CHARGES')
f=open( 'psi4out.xyz', 'w' )
f.write( "15  " )
f.write( str(ee) + "\n" )
f.write( MOL.save_string_xyz() )
f.close()
--------------------------------------------------------------------------

    Molecular point group: c1

    Geometry (in Angstrom), charge = 0, multiplicity = 1:

       Center              X                  Y                   Z               Mass
    ------------   -----------------  -----------------  -----------------  -----------------
           H          2.437503177442    -1.079163758284    -0.185136476763     1.007825032070
           O          1.652609177442    -0.627649758284    -0.460394476763    15.994914619560
           C          1.134378177442     0.117173241716     0.612844523237    12.000000000000
           C          0.030132177442     1.021886241716     0.089052523237    12.000000000000
           H          1.914253177442     0.727958241716     1.064093523237     1.007825032070
           H          0.753128177442    -0.544363758284     1.387517523237     1.007825032070
           C         -1.136233822558     0.291539241716    -0.585239476763    12.000000000000
           H          0.472959177442     1.712998241716    -0.622675476763     1.007825032070
           H         -0.339943822558     1.619217241716     0.920592523237     1.007825032070
           C         -1.919231822558    -0.641161758284     0.340005523237    12.000000000000
           H         -0.759533822558    -0.270177758284    -1.432593476763     1.007825032070
           H         -1.815246822558     1.040166241716    -0.986178476763     1.007825032070
           H         -2.779094822558    -1.058919758284    -0.174482476763     1.007825032070
           H         -1.311682822558    -1.473001758284     0.681110523237     1.007825032070
           H         -2.285167822558    -0.113146758284     1.217137523237     1.007825032070

  Charge       = 0
  Multiplicity = 1
  Basis Set: 6-31G*
  Basis Set:

    Orbital Energies (a.u.)
    -----------------------

    Doubly Occupied:

       1A    -20.553230     2A    -11.267409     3A    -11.212239
       4A    -11.208299     5A    -11.203963     6A     -1.359928
       7A     -1.063425     8A     -0.969564     9A     -0.868123
      10A     -0.774107    11A     -0.703719    12A     -0.648273
      13A     -0.607533    14A     -0.570732    15A     -0.564420
      16A     -0.531329    17A     -0.509236    18A     -0.474068
      19A     -0.466068    20A     -0.451650    21A     -0.430190

  @DF-RHF Final Energy:  -232.14373840106961

   => Energetics <=

    Nuclear Repulsion Energy =            191.8772093753047727
    One-Electron Energy =                -695.1669536959961988
    Two-Electron Energy =                 271.1460059196215866
    DFT Exchange-Correlation Energy =       0.0000000000000000
    Empirical Dispersion Energy =           0.0000000000000000
    PCM Polarization Energy =               0.0000000000000000
    EFP Energy =                            0.0000000000000000
    Total Energy =                       -232.1437384010698111

  Mulliken Charges: (a.u.)
   Center  Symbol    Alpha    Beta     Spin     Total
       1     H     0.28048  0.28048  0.00000  0.43904
       2     O     4.36994  4.36994  0.00000 -0.73989
       3     C     2.99929  2.99929  0.00000  0.00141
       4     C     3.16045  3.16045  0.00000 -0.32090
       5     H     0.42984  0.42984  0.00000  0.14032
       6     H     0.42986  0.42986  0.00000  0.14028
       7     C     3.15368  3.15368  0.00000 -0.30735
       8     H     0.41505  0.41505  0.00000  0.16990
       9     H     0.42493  0.42493  0.00000  0.15015
      10     C     3.24338  3.24338  0.00000 -0.48676
      11     H     0.40728  0.40728  0.00000  0.18544
      12     H     0.42296  0.42296  0.00000  0.15408
      13     H     0.41914  0.41914  0.00000  0.16172
      14     H     0.41862  0.41862  0.00000  0.16276
      15     H     0.42510  0.42510  0.00000  0.14979

   Total alpha = 21.00000, Total beta = 21.00000, Total charge =  0.00000
