  ==> Input File <==

--------------------------------------------------------------------------
set {
	reference rhf
	basis 6-31G*
}

set_num_threads( 1 )
memory 2 gb

molecule MOL {
0 1

O	 0.625848	 1.349995	 -0.000749
C	 0.486307	 0.169203	 0.000779
C	 1.608116	 -0.841643	 0.000302
O	 -0.698257	 -0.426125	 0.001050
C	 2.990107	 -0.200498	 -0.000684
H	 1.468623	 -1.481519	 -0.865924
H	 1.469683	 -1.481289	 0.866878
H	 3.129736	 0.423364	 -0.875135
H	 3.757882	 -0.966877	 -0.001197
H	 3.130964	 0.423383	 0.873533
C	 -1.853103	 0.406780	 0.001512
C	 -3.066105	 -0.499275	 -0.000169
H	 -1.828720	 1.043693	 -0.872176
H	 -1.829545	 1.041765	 0.876629
H	 -3.072133	 -1.132482	 -0.880039
H	 -3.972708	 0.097147	 0.000007
H	 -3.073093	 -1.134433	 0.878343

	symmetry c1
}
set optking {
	frozen_dihedral = ("
		2 4 11 13,
		4 2 3 6
	")
}

ee = energy('scf')
oeprop('DIPOLE', 'QUADRUPOLE', 'MULLIKEN_CHARGES')
f=open( 'psi4out.xyz', 'w' )
f.write( "17  " )
f.write( str(ee) + "\n" )
f.write( MOL.save_string_xyz() )
f.close()
--------------------------------------------------------------------------

    Molecular point group: c1

    Geometry (in Angstrom), charge = 0, multiplicity = 1:

       Center              X                  Y                   Z               Mass
    ------------   -----------------  -----------------  -----------------  -----------------
           O          0.625848332205     1.349995059251    -0.001009812789    15.994914619560
           C          0.486307332205     0.169203059251     0.000518187211    12.000000000000
           C          1.608116332205    -0.841642940749     0.000041187211    12.000000000000
           O         -0.698256667795    -0.426124940749     0.000789187211    15.994914619560
           C          2.990107332205    -0.200497940749    -0.000944812789    12.000000000000
           H          1.468623332205    -1.481518940749    -0.866184812789     1.007825032070
           H          1.469683332205    -1.481288940749     0.866617187211     1.007825032070
           H          3.129736332205     0.423364059251    -0.875395812789     1.007825032070
           H          3.757882332205    -0.966876940749    -0.001457812789     1.007825032070
           H          3.130964332205     0.423383059251     0.873272187211     1.007825032070
           C         -1.853102667795     0.406780059251     0.001251187211    12.000000000000
           C         -3.066104667795    -0.499274940749    -0.000429812789    12.000000000000
           H         -1.828719667795     1.043693059251    -0.872436812789     1.007825032070
           H         -1.829544667795     1.041765059251     0.876368187211     1.007825032070
           H         -3.072132667795    -1.132481940749    -0.880299812789     1.007825032070
           H         -3.972707667795     0.097147059251    -0.000253812789     1.007825032070
           H         -3.073092667795    -1.134432940749     0.878082187211     1.007825032070

  Charge       = 0
  Multiplicity = 1
  Basis Set: 6-31G*
  Basis Set:

    Orbital Energies (a.u.)
    -----------------------

    Doubly Occupied:

       1A    -20.600860     2A    -20.544306     3A    -11.371280
       4A    -11.284790     5A    -11.237541     6A    -11.222327
       7A    -11.215772     8A     -1.467529     9A     -1.361892
      10A     -1.069988    11A     -1.031806    12A     -0.910724
      13A     -0.847321    14A     -0.772753    15A     -0.695470
      16A     -0.689731    17A     -0.664321    18A     -0.629883
      19A     -0.582103    20A     -0.572205    21A     -0.558446
      22A     -0.523433    23A     -0.518965    24A     -0.514672
      25A     -0.504637    26A     -0.492623    27A     -0.452595
      28A     -0.436130

  @DF-RHF Final Energy:  -344.91198395580750

   => Energetics <=

    Nuclear Repulsion Energy =            314.6842149774089421
    One-Electron Energy =               -1093.6442846001225462
    Two-Electron Energy =                 434.0480856669064451
    DFT Exchange-Correlation Energy =       0.0000000000000000
    Empirical Dispersion Energy =           0.0000000000000000
    PCM Polarization Energy =               0.0000000000000000
    EFP Energy =                            0.0000000000000000
    Total Energy =                       -344.9119839558071590

  Mulliken Charges: (a.u.)
   Center  Symbol    Alpha    Beta     Spin     Total
       1     O     4.28638  4.28638  0.00000 -0.57276
       2     C     2.60570  2.60570  0.00000  0.78860
       3     C     3.20498  3.20498  0.00000 -0.40996
       4     O     4.31323  4.31323  0.00000 -0.62645
       5     C     3.23876  3.23876  0.00000 -0.47752
       6     H     0.40076  0.40076  0.00000  0.19848
       7     H     0.40080  0.40080  0.00000  0.19840
       8     H     0.40996  0.40996  0.00000  0.18008
       9     H     0.41823  0.41823  0.00000  0.16354
      10     H     0.40999  0.40999  0.00000  0.18002
      11     C     3.00211  3.00211  0.00000 -0.00421
      12     C     3.24843  3.24843  0.00000 -0.49686
      13     H     0.41028  0.41028  0.00000  0.17945
      14     H     0.41035  0.41035  0.00000  0.17930
      15     H     0.41187  0.41187  0.00000  0.17626
      16     H     0.41630  0.41630  0.00000  0.16740
      17     H     0.41189  0.41189  0.00000  0.17623

   Total alpha = 28.00000, Total beta = 28.00000, Total charge = -0.00000
