                              Psi4 1.0.54 Driver

  ==> Input File <==

--------------------------------------------------------------------------
set {
	reference rhf
	basis cc-pvtz
}

set_num_threads( 4 )
memory 2 gb

molecule MOL {
0 1

H	 1.907317	 1.637021	 -0.469852
O	 1.028081	 1.290312	 -0.491621
C	 1.050374	 0.054877	 0.000135
C	 -0.318151	 -0.570512	 0.000144
O	 2.047903	 -0.453099	 0.380746
C	 -1.454884	 0.441630	 -0.000560
H	 -0.371613	 -1.223646	 -0.864985
H	 -0.371920	 -1.222758	 0.865929
C	 -2.822577	 -0.232186	 0.000063
H	 -1.359760	 1.084704	 -0.867077
H	 -1.359641	 1.085996	 0.864983
H	 -2.954352	 -0.858985	 -0.875745
H	 -3.615886	 0.505352	 0.000019
H	 -2.953878	 -0.858359	 0.876394

	symmetry c1
}
set optking {
	frozen_dihedral = ("
		2 3 4 7
	")
}

ee,wfn = optimize('scf', return_wfn=True)
oeprop( wfn, 'DIPOLE', 'QUADRUPOLE', 'MULLIKEN_CHARGES')
f=open( 'psi4out.xyz', 'w' )
f.write( "14  " )
f.write( str(ee) + "\n" )
f.write( MOL.save_string_xyz() )
f.close()
--------------------------------------------------------------------------

    Molecular point group: c1
  Charge       = 0
  Multiplicity = 1
  Basis Set: CC-PVTZ
  Basis Set:
  @DF-RHF Final Energy:  -305.99766088008300
    Total Energy =                       -305.9976608800830036
    Molecular point group: c1
  Basis Set: CC-PVTZ
  Basis Set:
  Basis Set: CC-PVTZ
  Basis Set:
  @DF-RHF Final Energy:  -305.99827295213947
    Total Energy =                       -305.9982729521391889
  Basis Set: CC-PVTZ
  Basis Set:
  Basis Set: CC-PVTZ
  Basis Set:
  @DF-RHF Final Energy:  -305.99778968424175
    Total Energy =                       -305.9977896842418090
  Basis Set: CC-PVTZ
  Basis Set:
  Basis Set: CC-PVTZ
  Basis Set:
  @DF-RHF Final Energy:  -305.99860373314289
    Total Energy =                       -305.9986037331427724
  Basis Set: CC-PVTZ
  Basis Set:
  Basis Set: CC-PVTZ
  Basis Set:
  @DF-RHF Final Energy:  -305.99862367029186
    Total Energy =                       -305.9986236702920905
  Basis Set: CC-PVTZ
  Basis Set:
  Charge       = 0
  Multiplicity = 1
  Basis Set: CC-PVTZ
  Basis Set:

    Orbital Energies (a.u.)
    -----------------------

    Doubly Occupied:

       1A    -20.606842     2A    -20.537311     3A    -11.374228
       4A    -11.239880     5A    -11.228972     6A    -11.217993
       7A     -1.479033     8A     -1.368232     9A     -1.086560
      10A     -0.979579    11A     -0.848640    12A     -0.820520
      13A     -0.703877    14A     -0.683766    15A     -0.666012
      16A     -0.621121    17A     -0.593605    18A     -0.565547
      19A     -0.550795    20A     -0.526480    21A     -0.498665
      22A     -0.492490    23A     -0.472548    24A     -0.440103

  @DF-RHF Final Energy:  -305.99862434328065

   => Energetics <=

    Nuclear Repulsion Energy =            240.8547657908706867
    One-Electron Energy =                -894.5011850056184812
    Two-Electron Energy =                 347.6477948714671129
    DFT Exchange-Correlation Energy =       0.0000000000000000
    Empirical Dispersion Energy =           0.0000000000000000
    PCM Polarization Energy =               0.0000000000000000
    EFP Energy =                            0.0000000000000000
    Total Energy =                       -305.9986243432806532
    Molecular point group: c1
  Basis Set: CC-PVTZ
  Basis Set:

  -Total Gradient:
     Atom            X                  Y                   Z
    ------   -----------------  -----------------  -----------------
       1       -0.000019534576    -0.000050321454     0.000013748030
       2       -0.000196716184     0.000308298938     0.000593390969
       3        0.000188624494    -0.000371293868    -0.000785645126
       4       -0.000234229862     0.000871461011    -0.000242362977
       5        0.000014687090    -0.000120965596     0.000038643900
       6        0.000004412142    -0.000000902958    -0.000072202130
       7        0.000214792966    -0.000621546797     0.000410482114
       8        0.000009331890     0.000002943354     0.000005213675
       9       -0.000000815273    -0.000005244962     0.000032309790
      10        0.000009589679    -0.000004405126    -0.000001237586
      11        0.000008213690    -0.000008911529     0.000007171356
      12        0.000006620397     0.000010392538    -0.000003007304
      13        0.000002807353    -0.000001833245     0.000006745039
      14       -0.000007783800    -0.000007670305    -0.000003249749

  **** Optimization is complete! (in 6 steps) ****
    Final optimized geometry and variables:
    Molecular point group: c1

    Geometry (in Angstrom), charge = 0, multiplicity = 1:

    H            2.161957461833     1.359074057570    -0.340030302694
    O            1.244951979953     1.133901850786    -0.390358897791
    C            1.100274536375    -0.111667252197     0.046585638101
    C           -0.318337454953    -0.619716121126    -0.010245909244
    O            2.019510763670    -0.754301061008     0.423411641000
    C           -1.421338559966     0.434085091345    -0.010458972775
    H           -0.377981118279    -1.232071749616    -0.905873221746
    H           -0.426333567063    -1.300415434770     0.823976341801
    C           -2.808197472134    -0.199511600069    -0.026524606021
    H           -1.304766856415     1.083864512051    -0.868221851907
    H           -1.319503438915     1.063594270447     0.867070194891
    H           -2.949940205756    -0.811125356496    -0.911323003226
    H           -3.580076775103     0.560477213204    -0.023137282773
    H           -2.962778128040    -0.832507361778     0.840634316073

  Mulliken Charges: (a.u.)
   Center  Symbol    Alpha    Beta     Spin     Total
       1     H     0.38283  0.38283  0.00000  0.23435
       2     O     4.15405  4.15405  0.00000 -0.30810
       3     C     2.81235  2.81235  0.00000  0.37531
       4     C     3.09409  3.09409  0.00000 -0.18819
       5     O     4.19617  4.19617  0.00000 -0.39233
       6     C     3.08535  3.08535  0.00000 -0.17070
       7     H     0.44186  0.44186  0.00000  0.11629
       8     H     0.43513  0.43513  0.00000  0.12974
       9     C     3.15129  3.15129  0.00000 -0.30259
      10     H     0.44461  0.44461  0.00000  0.11079
      11     H     0.44843  0.44843  0.00000  0.10314
      12     H     0.45455  0.45455  0.00000  0.09091
      13     H     0.44547  0.44547  0.00000  0.10907
      14     H     0.45384  0.45384  0.00000  0.09232

   Total alpha = 24.00000, Total beta = 24.00000, Total charge =  0.00000

*** Psi4 exiting successfully. Buy a developer a beer!
