  ==> Input File <==

--------------------------------------------------------------------------
set {
	reference rhf
	basis cc-pvtz
}

set_num_threads( 4 )
memory 2 gb

molecule MOL {
0 1

H	 3.249966	 0.101611	 0.258414
N	 2.433987	 -0.362316	 -0.080024
C	 1.263552	 0.494993	 0.021953
H	 2.317955	 -1.190269	 0.466205
C	 -0.016533	 -0.325589	 -0.026925
H	 1.280915	 1.180773	 -0.818522
H	 1.263064	 1.106893	 0.925038
C	 -1.280353	 0.525521	 0.047747
H	 -0.016686	 -0.912532	 -0.939714
H	 -0.014099	 -1.037598	 0.796369
C	 -2.560681	 -0.301323	 -0.007747
H	 -1.279957	 1.241025	 -0.770189
H	 -1.270445	 1.110526	 0.963468
H	 -2.617064	 -0.872870	 -0.928010
H	 -3.439525	 0.331102	 0.043462
H	 -2.609427	 -1.002736	 0.818585

	symmetry c1
}
set optking {
	frozen_dihedral = ("
		1 2 3 6
	")
}

ee = optimize('scf')
oeprop('DIPOLE', 'QUADRUPOLE', 'MULLIKEN_CHARGES')
f=open( 'psi4out.xyz', 'w' )
f.write( "16  " )
f.write( str(ee) + "\n" )
f.write( MOL.save_string_xyz() )
f.close()
--------------------------------------------------------------------------

    Molecular point group: c1
  Charge       = 0
  Multiplicity = 1
  Basis Set: CC-PVTZ
  Basis Set:
  @DF-RHF Final Energy:  -212.39915195212981
    Total Energy =                       -212.3991519521297846
    Molecular point group: c1
  Basis Set: CC-PVTZ
  Basis Set:
  Basis Set: CC-PVTZ
  Basis Set:
  @DF-RHF Final Energy:  -212.39926740555111
    Total Energy =                       -212.3992674055511429
  Basis Set: CC-PVTZ
  Basis Set:
  Basis Set: CC-PVTZ
  Basis Set:
  @DF-RHF Final Energy:  -212.39927761554682
    Total Energy =                       -212.3992776155468505
  Basis Set: CC-PVTZ
  Basis Set:
  Charge       = 0
  Multiplicity = 1
  Basis Set: CC-PVTZ
  Basis Set:

    Orbital Energies (a.u.)
    -----------------------

    Doubly Occupied:

       1A    -15.526418     2A    -11.237845     3A    -11.214573
       4A    -11.211204     5A    -11.207170     6A     -1.178392
       7A     -1.062296     8A     -0.960603     9A     -0.845253
      10A     -0.795238    11A     -0.655389    12A     -0.648221
      13A     -0.603273    14A     -0.576398    15A     -0.571444
      16A     -0.522236    17A     -0.506553    18A     -0.471449
      19A     -0.467271    20A     -0.461178    21A     -0.385699

  @DF-RHF Final Energy:  -212.39927853535943

   => Energetics <=

    Nuclear Repulsion Energy =            186.6922808170646135
    One-Electron Energy =                -655.9669118909125700
    Two-Electron Energy =                 256.8753525384885847
    DFT Exchange-Correlation Energy =       0.0000000000000000
    Empirical Dispersion Energy =           0.0000000000000000
    PCM Polarization Energy =               0.0000000000000000
    EFP Energy =                            0.0000000000000000
    Total Energy =                       -212.3992785353593717
    Molecular point group: c1
  Basis Set: CC-PVTZ
  Basis Set:

  -Total Gradient:
     Atom            X                  Y                   Z
    ------   -----------------  -----------------  -----------------
       1       -0.000427176678    -0.001015580744     0.002558319607
       2        0.000157626707     0.000978672176    -0.003564072564
       3        0.001691098048     0.001740101041     0.002334417884
       4       -0.000023566158    -0.000017184323     0.000022996796
       5        0.000008120952    -0.000035780951     0.000020174408
       6       -0.001334859502    -0.001636137918    -0.001375779137
       7       -0.000024399387    -0.000006781630    -0.000012100727
       8       -0.000009543043     0.000005946709     0.000027961824
       9        0.000004707777    -0.000011570751    -0.000007635212
      10       -0.000024598272    -0.000018051595     0.000005294769
      11        0.000002159458     0.000007558565    -0.000015150399
      12       -0.000004428625    -0.000005371266     0.000008416224
      13       -0.000015628072     0.000011074271     0.000009041418
      14       -0.000001594271    -0.000008037876    -0.000000876184
      15       -0.000001612956    -0.000000087215    -0.000009344459
      16        0.000003694022     0.000011231508    -0.000001664249

  **** Optimization is complete! (in 4 steps) ****
    Final optimized geometry and variables:
    Molecular point group: c1

    Geometry (in Angstrom), charge = 0, multiplicity = 1:

    H            3.259983533399     0.101211082951     0.221644013910
    N            2.436130079407    -0.358907391177    -0.104190207479
    C            1.267013295024     0.498825672897     0.039136089620
    H            2.334741417487    -1.176838910001     0.460904461466
    C           -0.013863186498    -0.321703531218    -0.015700513044
    H            1.258001303378     1.200228533609    -0.788810289237
    H            1.279690140298     1.081123022030     0.959811221680
    C           -1.277806009795     0.530575946582     0.040505004400
    H           -0.008548682586    -0.912441022553    -0.926899238380
    H           -0.021495975373    -1.028750621324     0.812002291927
    C           -2.557801068775    -0.296890906794    -0.011714005161
    H           -1.272060661426     1.235154108926    -0.786354284682
    H           -1.272431837261     1.126653360275     0.949025778780
    H           -2.609004094691    -0.880164625779    -0.924925340156
    H           -3.436537138960     0.336561561984     0.025968481957
    H           -2.611909901450    -0.987362214963     0.823435249023

  Mulliken Charges: (a.u.)
   Center  Symbol    Alpha    Beta     Spin     Total
       1     H     0.43222  0.43222  0.00000  0.13556
       2     N     3.68637  3.68637  0.00000 -0.37275
       3     C     3.02021  3.02021  0.00000 -0.04041
       4     H     0.43250  0.43250  0.00000  0.13500
       5     C     3.08463  3.08463  0.00000 -0.16927
       6     H     0.45979  0.45979  0.00000  0.08042
       7     H     0.46889  0.46889  0.00000  0.06222
       8     C     3.08835  3.08835  0.00000 -0.17670
       9     H     0.44882  0.44882  0.00000  0.10235
      10     H     0.46141  0.46141  0.00000  0.07718
      11     C     3.14909  3.14909  0.00000 -0.29818
      12     H     0.45357  0.45357  0.00000  0.09285
      13     H     0.45590  0.45590  0.00000  0.08819
      14     H     0.45418  0.45418  0.00000  0.09164
      15     H     0.44855  0.44855  0.00000  0.10290
      16     H     0.45551  0.45551  0.00000  0.08898

   Total alpha = 21.00000, Total beta = 21.00000, Total charge = -0.00000
