  ==> Input File <==

--------------------------------------------------------------------------
set {
	reference rhf
	basis 6-31G*
}

set_num_threads( 4 )
memory 2 gb

molecule MOL {
0 1

O	 -2.232355	 -1.693709	 0.804083
C	 -1.558314	 -1.724966	 -0.180358
C	 -0.889235	 -0.467034	 -0.705952
C	 -1.310056	 -3.013701	 -0.931960
C	 0.379448	 -0.143569	 0.099626
H	 -1.597946	 0.348045	 -0.607574
H	 -0.643101	 -0.576184	 -1.758344
C	 1.631333	 -0.777471	 -0.511575
H	 0.482768	 0.934507	 0.149241
H	 0.263088	 -0.495696	 1.123449
C	 2.915987	 -0.544314	 0.291766
H	 1.766672	 -0.399098	 -1.523130
H	 1.471257	 -1.849544	 -0.605828
C	 3.373361	 0.914346	 0.347591
H	 3.708709	 -1.142521	 -0.150311
H	 2.780642	 -0.921148	 1.303579
H	 3.506512	 1.320010	 -0.651625
H	 4.322697	 0.999599	 0.867103
H	 2.660624	 1.545032	 0.868198
H	 -1.771652	 -2.958340	 -1.914370
H	 -1.728153	 -3.847520	 -0.385404
H	 -0.246314	 -3.169813	 -1.086516

	symmetry c1
}
set optking {
	frozen_dihedral = ("
		6 3 5 8
	")
}

ee = optimize('scf')
oeprop('DIPOLE', 'QUADRUPOLE', 'MULLIKEN_CHARGES')
f=open( 'psi4out.xyz', 'w' )
f.write( "22  " )
f.write( str(ee) + "\n" )
f.write( MOL.save_string_xyz() )
f.close()
--------------------------------------------------------------------------

    Molecular point group: c1
  Charge       = 0
  Multiplicity = 1
  Basis Set: 6-31G*
  Basis Set:
  @DF-RHF Final Energy:  -348.09364113069836
    Total Energy =                       -348.0936411306984724
    Molecular point group: c1
  Basis Set: 6-31G*
  Basis Set:
  Basis Set: 6-31G*
  Basis Set:
  @DF-RHF Final Energy:  -348.09421385562638
    Total Energy =                       -348.0942138556266059
  Basis Set: 6-31G*
  Basis Set:
  Basis Set: 6-31G*
  Basis Set:
  @DF-RHF Final Energy:  -348.09309843798206
    Total Energy =                       -348.0930984379820075
  Basis Set: 6-31G*
  Basis Set:
  Basis Set: 6-31G*
  Basis Set:
  @DF-RHF Final Energy:  -348.09495652633120
    Total Energy =                       -348.0949565263312024
  Basis Set: 6-31G*
  Basis Set:
  @DF-RHF Final Energy:  -348.09544640427697
    Total Energy =                       -348.0954464042771974
  @DF-RHF Final Energy:  -348.09604756373307
    Total Energy =                       -348.0960475637328955
  @DF-RHF Final Energy:  -348.09669815197861
    Total Energy =                       -348.0966981519788987
  @DF-RHF Final Energy:  -348.09766528702801
    Total Energy =                       -348.0976652870281782
  @DF-RHF Final Energy:  -348.09818496607659
    Total Energy =                       -348.0981849660762464
  @DF-RHF Final Energy:  -348.09856042278005
    Total Energy =                       -348.0985604227797126
  @DF-RHF Final Energy:  -348.09856041341209
    Total Energy =                       -348.0985604134119171
  @DF-RHF Final Energy:  -348.09857148467864
    Total Energy =                       -348.0985714846787573
  @DF-RHF Final Energy:  -348.09862322153191
    Total Energy =                       -348.0986232215316249
  @DF-RHF Final Energy:  -348.09862246559106
    Total Energy =                       -348.0986224655911201
  @DF-RHF Final Energy:  -348.09863026309932
    Total Energy =                       -348.0986302630996079
  Basis Set: 6-31G*
  Basis Set:
  @DF-RHF Final Energy:  -348.09863701906488
    Total Energy =                       -348.0986370190649950
  Basis Set: 6-31G*
  Basis Set:
  Basis Set: 6-31G*
  Basis Set:
  @DF-RHF Final Energy:  -348.09864616764946
    Total Energy =                       -348.0986461676494628
  Basis Set: 6-31G*
  Basis Set:
  Basis Set: 6-31G*
  Basis Set:
  @DF-RHF Final Energy:  -348.09864737087241
    Total Energy =                       -348.0986473708725271
  Basis Set: 6-31G*
  Basis Set:
  Charge       = 0
  Multiplicity = 1
  Basis Set: 6-31G*
  Basis Set:

    Orbital Energies (a.u.)
    -----------------------

    Doubly Occupied:

       1A    -20.551601     2A    -11.327500     3A    -11.232033
       4A    -11.228970     5A    -11.216102     6A    -11.212466
       7A    -11.211760     8A    -11.206685     9A     -1.396876
      10A     -1.087574    11A     -1.041566    12A     -1.000144
      13A     -0.932563    14A     -0.854454    15A     -0.780119
      16A     -0.729909    17A     -0.666124    18A     -0.633370
      19A     -0.627559    20A     -0.611212    21A     -0.601114
      22A     -0.577107    23A     -0.564186    24A     -0.546424
      25A     -0.521210    26A     -0.514519    27A     -0.495724
      28A     -0.489002    29A     -0.461230    30A     -0.458308
      31A     -0.446972    32A     -0.402047

  @DF-RHF Final Energy:  -348.09864777523495

   => Energetics <=

    Nuclear Repulsion Energy =            377.0584679666691841
    One-Electron Energy =               -1219.0613708439700531
    Two-Electron Energy =                 493.9042551020660881
    DFT Exchange-Correlation Energy =       0.0000000000000000
    Empirical Dispersion Energy =           0.0000000000000000
    PCM Polarization Energy =               0.0000000000000000
    EFP Energy =                            0.0000000000000000
    Total Energy =                       -348.0986477752347241
    Molecular point group: c1
  Basis Set: 6-31G*
  Basis Set:

  -Total Gradient:
     Atom            X                  Y                   Z
    ------   -----------------  -----------------  -----------------
       1       -0.000017482829     0.000008311976    -0.000017949049
       2        0.000033711551    -0.000015047170     0.000017358334
       3       -0.001780296636    -0.000597256548     0.002731552578
       4       -0.000022053066    -0.000025913908    -0.000007092548
       5       -0.000033910961    -0.001966719440     0.001629921224
       6        0.001486751082     0.000980025414    -0.002712259450
       7       -0.000006129798    -0.000004267842     0.000002289249
       8        0.000326737578     0.001603631643    -0.001663067018
       9        0.000008965467    -0.000007153063    -0.000001976116
      10        0.000012054100     0.000006603099     0.000007124408
      11       -0.000003959582     0.000000315148     0.000003666636
      12        0.000003154477    -0.000002113503    -0.000000614306
      13       -0.000015462555     0.000007869078    -0.000002897113
      14       -0.000002090740     0.000000578307     0.000000589375
      15       -0.000001738830     0.000005866644    -0.000002301161
      16        0.000007658714    -0.000003657366     0.000005057892
      17        0.000000571199    -0.000001432856     0.000002204670
      18       -0.000000215988     0.000001383262     0.000001577696
      19       -0.000000805037    -0.000000243249    -0.000002289601
      20        0.000006098532     0.000001514659     0.000001096801
      21       -0.000003030039    -0.000000079852     0.000001420148
      22        0.000001473360     0.000007785569     0.000006587351

  **** Optimization is complete! (in 19 steps) ****
    Final optimized geometry and variables:
    Molecular point group: c1

    Geometry (in Angstrom), charge = 0, multiplicity = 1:

    O           -1.271810220513    -1.551374623779     0.856835545843
    C           -1.658377399537    -1.097208374756    -0.176305697593
    C           -1.080136566665     0.173642157848    -0.774021701624
    C           -2.761934728901    -1.768278979996    -0.967911795422
    C            0.016597714636     0.835418922158     0.065722891931
    H           -1.896682374021     0.865470646450    -0.970573831336
    H           -0.698449309724    -0.079998044489    -1.762717949107
    C            1.409353987232     0.266990392648    -0.221900752893
    H            0.010471951015     1.900503209033    -0.144277681483
    H           -0.218816493304     0.718111809154     1.117349965481
    C            2.518289777589     0.818865069364     0.680119890940
    H            1.665283723668     0.458451796377    -1.263450874388
    H            1.375527410133    -0.812677315633    -0.103609878215
    C            2.793933086345     2.313921061931     0.508125364831
    H            3.433511119379     0.269580289555     0.473540623024
    H            2.269025217576     0.612991516541     1.718525181605
    H            3.030569288511     2.551521354647    -0.525831326677
    H            3.637458091422     2.622642885205     1.117933209680
    H            1.943424464522     2.920789854056     0.800906135685
    H           -3.608784947897    -1.097065134161    -1.077403806855
    H           -3.079148144225    -2.668636533309    -0.460497007450
    H           -2.416228767353    -2.016652265357    -1.966998857832

  Mulliken Charges: (a.u.)
   Center  Symbol    Alpha    Beta     Spin     Total
       1     O     4.26179  4.26179  0.00000 -0.52357
       2     C     2.73599  2.73599  0.00000  0.52803
       3     C     3.21342  3.21342  0.00000 -0.42683
       4     C     3.28700  3.28700  0.00000 -0.57399
       5     C     3.15367  3.15367  0.00000 -0.30735
       6     H     0.40700  0.40700  0.00000  0.18601
       7     H     0.40909  0.40909  0.00000  0.18182
       8     C     3.15564  3.15564  0.00000 -0.31127
       9     H     0.41954  0.41954  0.00000  0.16092
      10     H     0.40453  0.40453  0.00000  0.19095
      11     C     3.15359  3.15359  0.00000 -0.30718
      12     H     0.42776  0.42776  0.00000  0.14447
      13     H     0.41295  0.41295  0.00000  0.17410
      14     C     3.24165  3.24165  0.00000 -0.48330
      15     H     0.42104  0.42104  0.00000  0.15791
      16     H     0.41904  0.41904  0.00000  0.16193
      17     H     0.42349  0.42349  0.00000  0.15302
      18     H     0.41894  0.41894  0.00000  0.16212
      19     H     0.42064  0.42064  0.00000  0.15873
      20     H     0.40828  0.40828  0.00000  0.18343
      21     H     0.39635  0.39635  0.00000  0.20729
      22     H     0.40862  0.40862  0.00000  0.18277

   Total alpha = 32.00000, Total beta = 32.00000, Total charge = -0.00000
