  ==> Input File <==

--------------------------------------------------------------------------
set {
	reference rhf
	basis 6-31G*
}

set_num_threads( 1 )
memory 2 gb

molecule MOL {
0 1

H	 -3.420663	 1.227371	 -1.044276
O	 -3.452007	 0.283848	 -0.965577
C	 -3.181085	 -0.079926	 0.364119
C	 -1.765924	 0.277073	 0.805136
H	 -3.327791	 -1.152017	 0.410903
H	 -3.905698	 0.375695	 1.036898
C	 -0.677594	 -0.417312	 -0.014550
H	 -1.637766	 1.358238	 0.744969
H	 -1.659588	 0.017670	 1.857098
C	 0.539197	 0.473464	 -0.273620
H	 -1.098549	 -0.746743	 -0.959527
H	 -0.360470	 -1.317956	 0.508581
C	 1.626777	 -0.230431	 -1.089578
H	 0.214388	 1.375158	 -0.787299
H	 0.959199	 0.798430	 0.677484
C	 2.903891	 0.591096	 -1.299880
H	 1.220889	 -0.516254	 -2.058730
H	 1.892510	 -1.158389	 -0.587486
C	 2.719705	 1.844548	 -2.157399
H	 3.649284	 -0.045768	 -1.770077
H	 3.313737	 0.872778	 -0.331952
H	 2.299001	 1.594780	 -3.127844
H	 3.671609	 2.338037	 -2.328236
H	 2.060057	 2.565895	 -1.686564

	symmetry c1
}
set optking {
	frozen_dihedral = ("
		20 16 13 17,
		17 13 10 7,
		13 10 7 11,
		1 2 3 5,
		7 4 3 2
	")
}

ee = energy('scf')
oeprop('DIPOLE', 'QUADRUPOLE', 'MULLIKEN_CHARGES')
f=open( 'psi4out.xyz', 'w' )
f.write( "24  " )
f.write( str(ee) + "\n" )
f.write( MOL.save_string_xyz() )
f.close()
--------------------------------------------------------------------------

    Molecular point group: c1

    Geometry (in Angstrom), charge = 0, multiplicity = 1:

       Center              X                  Y                   Z               Mass
    ------------   -----------------  -----------------  -----------------  -----------------
           H         -3.202487878815     0.868358597982    -0.450463641981     1.007825032070
           O         -3.233831878815    -0.075164402018    -0.371764641981    15.994914619560
           C         -2.962909878815    -0.438938402018     0.957931358019    12.000000000000
           C         -1.547748878815    -0.081939402018     1.398948358019    12.000000000000
           H         -3.109615878815    -1.511029402018     1.004715358019     1.007825032070
           H         -3.687522878815     0.016682597982     1.630710358019     1.007825032070
           C         -0.459418878815    -0.776324402018     0.579262358019    12.000000000000
           H         -1.419590878815     0.999225597982     1.338781358019     1.007825032070
           H         -1.441412878815    -0.341342402018     2.450910358019     1.007825032070
           C          0.757372121185     0.114451597982     0.320192358019    12.000000000000
           H         -0.880373878815    -1.105755402018    -0.365714641981     1.007825032070
           H         -0.142294878815    -1.676968402018     1.102393358019     1.007825032070
           C          1.844952121185    -0.589443402018    -0.495765641981    12.000000000000
           H          0.432563121185     1.016145597982    -0.193486641981     1.007825032070
           H          1.177374121185     0.439417597982     1.271296358019     1.007825032070
           C          3.122066121185     0.232083597982    -0.706067641981    12.000000000000
           H          1.439064121185    -0.875266402018    -1.464917641981     1.007825032070
           H          2.110685121185    -1.517401402018     0.006326358019     1.007825032070
           C          2.937880121185     1.485535597982    -1.563586641981    12.000000000000
           H          3.867459121185    -0.404780402018    -1.176264641981     1.007825032070
           H          3.531912121185     0.513765597982     0.261860358019     1.007825032070
           H          2.517176121185     1.235767597982    -2.534031641981     1.007825032070
           H          3.889784121185     1.979024597982    -1.734423641981     1.007825032070
           H          2.278232121185     2.206882597982    -1.092751641981     1.007825032070

  Charge       = 0
  Multiplicity = 1
  Basis Set: 6-31G*
  Basis Set:

    Orbital Energies (a.u.)
    -----------------------

    Doubly Occupied:

       1A    -20.554286     2A    -11.267836     3A    -11.216278
       4A    -11.213673     5A    -11.212327     6A    -11.210843
       7A    -11.209544     8A    -11.207019     9A     -1.360760
      10A     -1.088079    11A     -1.047907    12A     -0.985198
      13A     -0.914601    14A     -0.850461    15A     -0.800853
      16A     -0.776189    17A     -0.679659    18A     -0.651573
      19A     -0.625561    20A     -0.620399    21A     -0.597050
      22A     -0.582766    23A     -0.559753    24A     -0.535336
      25A     -0.520489    26A     -0.511356    27A     -0.495818
      28A     -0.472761    29A     -0.466203    30A     -0.455983
      31A     -0.452904    32A     -0.451600    33A     -0.420203

  @DF-RHF Final Energy:  -349.24420326613887

   => Energetics <=

    Nuclear Repulsion Energy =            387.2235747368143279
    One-Electron Energy =               -1240.9049371077110209
    Two-Electron Energy =                 504.4371591047585639
    DFT Exchange-Correlation Energy =       0.0000000000000000
    Empirical Dispersion Energy =           0.0000000000000000
    PCM Polarization Energy =               0.0000000000000000
    EFP Energy =                            0.0000000000000000
    Total Energy =                       -349.2442032661381859

  Mulliken Charges: (a.u.)
   Center  Symbol    Alpha    Beta     Spin     Total
       1     H     0.28326  0.28326  0.00000  0.43347
       2     O     4.36791  4.36791  0.00000 -0.73582
       3     C     2.99879  2.99879  0.00000  0.00243
       4     C     3.16939  3.16939  0.00000 -0.33878
       5     H     0.41618  0.41618  0.00000  0.16764
       6     H     0.42846  0.42846  0.00000  0.14308
       7     C     3.15682  3.15682  0.00000 -0.31363
       8     H     0.42665  0.42665  0.00000  0.14669
       9     H     0.42047  0.42047  0.00000  0.15906
      10     C     3.15495  3.15495  0.00000 -0.30991
      11     H     0.40659  0.40659  0.00000  0.18682
      12     H     0.42316  0.42316  0.00000  0.15368
      13     C     3.15296  3.15296  0.00000 -0.30592
      14     H     0.42296  0.42296  0.00000  0.15409
      15     H     0.42527  0.42527  0.00000  0.14945
      16     C     3.15226  3.15226  0.00000 -0.30452
      17     H     0.42265  0.42265  0.00000  0.15470
      18     H     0.42263  0.42263  0.00000  0.15475
      19     C     3.24091  3.24091  0.00000 -0.48183
      20     H     0.42119  0.42119  0.00000  0.15761
      21     H     0.42400  0.42400  0.00000  0.15199
      22     H     0.42182  0.42182  0.00000  0.15637
      23     H     0.41967  0.41967  0.00000  0.16066
      24     H     0.42104  0.42104  0.00000  0.15792

   Total alpha = 33.00000, Total beta = 33.00000, Total charge =  0.00000
