                              Psi4 1.0.54 Driver

  ==> Input File <==

--------------------------------------------------------------------------
set {
	reference rhf
	basis cc-pvtz
}

set_num_threads( 4 )
memory 2 gb

molecule MOL {
0 1

H	 2.261957	 1.817748	 -1.165486
N	 1.452186	 1.236855	 -1.214718
C	 1.263552	 0.494993	 0.021953
H	 1.581319	 0.616257	 -1.986418
C	 -0.016533	 -0.325589	 -0.026925
H	 1.197079	 1.213221	 0.832338
H	 2.102363	 -0.162457	 0.254629
C	 -1.280353	 0.525521	 0.047747
H	 -0.016686	 -0.912532	 -0.939714
H	 -0.014099	 -1.037598	 0.796369
C	 -2.560681	 -0.301323	 -0.007747
H	 -1.279957	 1.241025	 -0.770189
H	 -1.270445	 1.110526	 0.963468
H	 -2.617064	 -0.872870	 -0.928010
H	 -3.439525	 0.331102	 0.043462
H	 -2.609427	 -1.002736	 0.818585

	symmetry c1
}
set optking {
	frozen_dihedral = ("
		6 3 5 9
	")
}

ee,wfn = optimize('scf', return_wfn=True)
oeprop( wfn, 'DIPOLE', 'QUADRUPOLE', 'MULLIKEN_CHARGES')
f=open( 'psi4out.xyz', 'w' )
f.write( "16  " )
f.write( str(ee) + "\n" )
f.write( MOL.save_string_xyz() )
f.close()
--------------------------------------------------------------------------

    Molecular point group: c1
  Charge       = 0
  Multiplicity = 1
  Basis Set: CC-PVTZ
  Basis Set:
  @DF-RHF Final Energy:  -212.39946699034107
    Total Energy =                       -212.3994669903410681
    Molecular point group: c1
  Basis Set: CC-PVTZ
  Basis Set:
  Basis Set: CC-PVTZ
  Basis Set:
  @DF-RHF Final Energy:  -212.39961567667757
    Total Energy =                       -212.3996156766774561
  Basis Set: CC-PVTZ
  Basis Set:
  Basis Set: CC-PVTZ
  Basis Set:
  @DF-RHF Final Energy:  -212.39963899334188
    Total Energy =                       -212.3996389933418527
  Basis Set: CC-PVTZ
  Basis Set:
  Basis Set: CC-PVTZ
  Basis Set:
  @DF-RHF Final Energy:  -212.39964024800867
    Total Energy =                       -212.3996402480089500
  Basis Set: CC-PVTZ
  Basis Set:
  Charge       = 0
  Multiplicity = 1
  Basis Set: CC-PVTZ
  Basis Set:

    Orbital Energies (a.u.)
    -----------------------

    Doubly Occupied:

       1A    -15.527265     2A    -11.238925     3A    -11.208569
       4A    -11.203975     5A    -11.201342     6A     -1.178953
       7A     -1.054577     8A     -0.958671     9A     -0.846069
      10A     -0.784618    11A     -0.666540    12A     -0.632314
      13A     -0.606698    14A     -0.575737    15A     -0.564210
      16A     -0.517512    17A     -0.501546    18A     -0.468165
      19A     -0.462457    20A     -0.460661    21A     -0.382317

  @DF-RHF Final Energy:  -212.39964043869344

   => Energetics <=

    Nuclear Repulsion Energy =            188.9066636736627629
    One-Electron Energy =                -660.5303655559339404
    Two-Electron Energy =                 259.2240614435776820
    DFT Exchange-Correlation Energy =       0.0000000000000000
    Empirical Dispersion Energy =           0.0000000000000000
    PCM Polarization Energy =               0.0000000000000000
    EFP Energy =                            0.0000000000000000
    Total Energy =                       -212.3996404386934955
    Molecular point group: c1
  Basis Set: CC-PVTZ
  Basis Set:

  -Total Gradient:
     Atom            X                  Y                   Z
    ------   -----------------  -----------------  -----------------
       1        0.000008625244     0.000002581459     0.000000445075
       2       -0.000002837472     0.000003997159     0.000008193929
       3        0.000522416563    -0.000885832722     0.000922842689
       4        0.000003525626    -0.000002309899    -0.000001898104
       5        0.000633681871    -0.001034923633     0.000624536323
       6       -0.000538702193     0.000898026751    -0.000877474687
       7       -0.000005605486     0.000010334933    -0.000011480336
       8        0.000004311528    -0.000008239634    -0.000003670160
       9       -0.000611986396     0.001020404693    -0.000660471926
      10       -0.000005530263    -0.000014522049     0.000008498230
      11        0.000002215680     0.000000504447     0.000011277026
      12        0.000004485223     0.000012670268    -0.000017880689
      13       -0.000001274360    -0.000004722689    -0.000003240997
      14        0.000001206855     0.000004289784     0.000003756870
      15       -0.000015732460    -0.000004114743     0.000001883115
      16        0.000001200036     0.000001855875    -0.000005316357

  **** Optimization is complete! (in 5 steps) ****
    Final optimized geometry and variables:
    Molecular point group: c1

    Geometry (in Angstrom), charge = 0, multiplicity = 1:

    H            2.457447154928     1.474118003655    -0.922132193402
    N            1.668556745319     0.865569577137    -0.973107558720
    C            1.475781154743     0.148194105481     0.279443015606
    H            1.833885210079     0.229655434138    -1.725175911675
    C            0.178241042268    -0.652504519664     0.261587631534
    H            1.429862599793     0.887280953633     1.072350564170
    H            2.305084716978    -0.518710597954     0.512521315296
    C           -1.080554417724     0.210039619373     0.307079526346
    H            0.156870953079    -1.264300899613    -0.638316056535
    H            0.177832207480    -1.340015368338     1.103077879183
    C           -2.364766214378    -0.608479598130     0.225518655504
    H           -1.049388132301     0.926575673194    -0.504502814968
    H           -1.080686592417     0.786890940065     1.228446504431
    H           -2.414467597053    -1.167147033124    -0.703484851880
    H           -3.240121239549     0.029275488359     0.272994107559
    H           -2.431147555085    -1.321255207490     1.041404190775

  Mulliken Charges: (a.u.)
   Center  Symbol    Alpha    Beta     Spin     Total
       1     H     0.42874  0.42874  0.00000  0.14252
       2     N     3.69129  3.69129  0.00000 -0.38257
       3     C     3.03639  3.03639  0.00000 -0.07278
       4     H     0.43086  0.43086  0.00000  0.13827
       5     C     3.08618  3.08618  0.00000 -0.17236
       6     H     0.45762  0.45762  0.00000  0.08477
       7     H     0.45932  0.45932  0.00000  0.08137
       8     C     3.07960  3.07960  0.00000 -0.15920
       9     H     0.46005  0.46005  0.00000  0.07990
      10     H     0.45222  0.45222  0.00000  0.09555
      11     C     3.15024  3.15024  0.00000 -0.30048
      12     H     0.44661  0.44661  0.00000  0.10679
      13     H     0.45852  0.45852  0.00000  0.08296
      14     H     0.45596  0.45596  0.00000  0.08807
      15     H     0.44907  0.44907  0.00000  0.10187
      16     H     0.45734  0.45734  0.00000  0.08533

   Total alpha = 21.00000, Total beta = 21.00000, Total charge = -0.00000

*** Psi4 exiting successfully. Buy a developer a beer!
