  ==> Input File <==

--------------------------------------------------------------------------
set {
	reference rhf
	basis 6-31G*
}

set_num_threads( 4 )
memory 2 gb

molecule MOL {
0 1

H	 -2.457809	 0.501296	 1.083509
C	 -1.464069	 0.070408	 1.121459
C	 -0.603454	 0.661669	 0.000000
H	 -1.552883	 -1.004126	 1.016909
H	 -1.035453	 0.283988	 2.093114
C	 0.763625	 0.112519	 0.000000
H	 -1.043655	 0.458321	 -0.969248
H	 -0.529504	 1.738272	 0.100137
N	 1.813038	 -0.320305	 0.000000

	symmetry c1
}
set optking {
	frozen_dihedral = ("
		7 3 6 9
	")
}

ee = optimize('scf')
oeprop('DIPOLE', 'QUADRUPOLE', 'MULLIKEN_CHARGES')
f=open( 'psi4out.xyz', 'w' )
f.write( "9  " )
f.write( str(ee) + "\n" )
f.write( MOL.save_string_xyz() )
f.close()
--------------------------------------------------------------------------

    Molecular point group: c1
  Charge       = 0
  Multiplicity = 1
  Basis Set: 6-31G*
  Basis Set:
  @DF-RHF Final Energy:  -170.96242880999822
    Total Energy =                       -170.9624288099981868
    Molecular point group: c1
  Basis Set: 6-31G*
  Basis Set:
  Basis Set: 6-31G*
  Basis Set:
  @DF-RHF Final Energy:  -170.45214967843734
    Total Energy =                       -170.4521496784373085
  Basis Set: 6-31G*
  Basis Set:
  Basis Set: 6-31G*
  Basis Set:
  @DF-RHF Final Energy:  -170.46521074813899
    Total Energy =                       -170.4652107481390715
  Basis Set: 6-31G*
  Basis Set:
  Basis Set: 6-31G*
  Basis Set:
  @DF-RHF Final Energy:  -170.47083748663530
    Total Energy =                       -170.4708374866353893
  Basis Set: 6-31G*
  Basis Set:
  @DF-RHF Final Energy:  -170.47650804074331
    Total Energy =                       -170.4765080407431697
  @DF-RHF Final Energy:  -170.50641032823992
    Total Energy =                       -170.5064103282399230
  @DF-RHF Final Energy:  -170.70863608615178
    Total Energy =                       -170.7086360861518415
  @DF-RHF Final Energy:  -170.87667245484920
    Total Energy =                       -170.8766724548491993
  @DF-RHF Final Energy:  -170.93759801723127
    Total Energy =                       -170.9375980172312097
  @DF-RHF Final Energy:  -170.95595607970256
    Total Energy =                       -170.9559560797025313
  @DF-RHF Final Energy:  -170.96124599678183
    Total Energy =                       -170.9612459967817983
  @DF-RHF Final Energy:  -170.96223347263634
    Total Energy =                       -170.9622334726363988
  @DF-RHF Final Energy:  -170.96005301086740
    Total Energy =                       -170.9600530108673411
  @DF-RHF Final Energy:  -170.95736351013386
    Total Energy =                       -170.9573635101338596
  @DF-RHF Final Energy:  -170.96206201419125
    Total Energy =                       -170.9620620141911900
  @DF-RHF Final Energy:  -170.96156554647160
    Total Energy =                       -170.9615655464714905
  @DF-RHF Final Energy:  -170.96177579303787
    Total Energy =                       -170.9617757930378161
  @DF-RHF Final Energy:  -170.96209833507515
    Total Energy =                       -170.9620983350750123
  @DF-RHF Final Energy:  -170.96235028739659
    Total Energy =                       -170.9623502873965322
  @DF-RHF Final Energy:  -170.96050201090816
    Total Energy =                       -170.9605020109082147
  @DF-RHF Final Energy:  -170.96218833862108
    Total Energy =                       -170.9621883386210186
  @DF-RHF Final Energy:  -170.96226908916793
    Total Energy =                       -170.9622690891679326
  @DF-RHF Final Energy:  -170.96185676519255
    Total Energy =                       -170.9618567651926355
  @DF-RHF Final Energy:  -170.96236672946429
    Total Energy =                       -170.9623667294641223
  @DF-RHF Final Energy:  -170.96216605983619
    Total Energy =                       -170.9621660598362780
  @DF-RHF Final Energy:  -170.96234034406120
    Total Energy =                       -170.9623403440612890
  @DF-RHF Final Energy:  -170.96236615022127
    Total Energy =                       -170.9623661502212428
  @DF-RHF Final Energy:  -170.96238662836748
    Total Energy =                       -170.9623866283674261
  @DF-RHF Final Energy:  -170.96239759819218
    Total Energy =                       -170.9623975981922115
  @DF-RHF Final Energy:  -170.96240504459882
    Total Energy =                       -170.9624050445988246
  @DF-RHF Final Energy:  -170.96240608266058
    Total Energy =                       -170.9624060826606069
  @DF-RHF Final Energy:  -170.96240381202807
    Total Energy =                       -170.9624038120280716
  @DF-RHF Final Energy:  -170.96240526881905
    Total Energy =                       -170.9624052688191114
  @DF-RHF Final Energy:  -170.96241145678528
    Total Energy =                       -170.9624114567852757
  @DF-RHF Final Energy:  -170.96241458375383
    Total Energy =                       -170.9624145837537696
  @DF-RHF Final Energy:  -170.96241497154915
    Total Energy =                       -170.9624149715491512
  Basis Set: 6-31G*
  Basis Set:
  @DF-RHF Final Energy:  -170.96240985979929
    Total Energy =                       -170.9624098597992656
  Basis Set: 6-31G*
  Basis Set:
  Basis Set: 6-31G*
  Basis Set:
  @DF-RHF Final Energy:  -170.96220022550432
    Total Energy =                       -170.9622002255042048
  Basis Set: 6-31G*
  Basis Set:
  Basis Set: 6-31G*
  Basis Set:
  @DF-RHF Final Energy:  -170.96220244118570
    Total Energy =                       -170.9622024411856387
  Basis Set: 6-31G*
  Basis Set:
  Charge       = 0
  Multiplicity = 1
  Basis Set: 6-31G*
  Basis Set:

    Orbital Energies (a.u.)
    -----------------------

    Doubly Occupied:

       1A    -15.567435     2A    -11.283708     3A    -11.269743
       4A    -11.245918     5A     -1.224058     6A     -1.081367
       7A     -0.912250     8A     -0.698453     9A     -0.659222
      10A     -0.587789    11A     -0.560630    12A     -0.544146
      13A     -0.536563    14A     -0.458378    15A     -0.458044

  @DF-RHF Final Energy:  -170.96217491419532

   => Energetics <=

    Nuclear Repulsion Energy =            103.3874845571012884
    One-Electron Energy =                -434.5239119177064140
    Two-Electron Energy =                 160.1742524464096959
    DFT Exchange-Correlation Energy =       0.0000000000000000
    Empirical Dispersion Energy =           0.0000000000000000
    PCM Polarization Energy =               0.0000000000000000
    EFP Energy =                            0.0000000000000000
    Total Energy =                       -170.9621749141954297
    Molecular point group: c1
  Basis Set: 6-31G*
  Basis Set:

  -Total Gradient:
     Atom            X                  Y                   Z
    ------   -----------------  -----------------  -----------------
       1        0.000679717689    -0.000641178372     0.000426585005
       2       -0.002491696402    -0.000095804235     0.000650414090
       3       -0.001618117725    -0.003422750674    -0.001264868197
       4       -0.000270133381     0.000265052431     0.000035891115
       5        0.000081304383     0.000122044896    -0.000120797894
       6        0.000805854550     0.007433979977    -0.002476391290
       7        0.000286665420     0.000359310177     0.001458492233
       8        0.001360309421    -0.000016536809    -0.000005379891
       9        0.001166096047    -0.004004117391     0.001296054829

    Molecular point group: c1

    Geometry (in Angstrom), charge = 0, multiplicity = 1:

    H           -2.507396856297     0.442397620902     0.738945833375
    C           -1.523555402412    -0.006601031252     0.795444434264
    C           -0.644562410047     0.529728020328    -0.341905644806
    H           -1.634327751763    -1.081674110346     0.726075543856
    H           -1.093771727671     0.231173681954     1.760874621340
    C            0.716873983171    -0.033948610329    -0.307201480630
    H           -1.079813987305     0.296869073469    -1.304992431692
    H           -0.553920785521     1.608432925610    -0.281596943645
    N            1.738040447792    -0.526959677976    -0.243388127128

  Mulliken Charges: (a.u.)
   Center  Symbol    Alpha    Beta     Spin     Total
       1     H     0.40901  0.40901  0.00000  0.18198
       2     C     3.24215  3.24215  0.00000 -0.48431
       3     C     3.18234  3.18234  0.00000 -0.36468
       4     H     0.40507  0.40507  0.00000  0.18985
       5     H     0.40532  0.40532  0.00000  0.18937
       6     C     2.85003  2.85003  0.00000  0.29993
       7     H     0.38831  0.38831  0.00000  0.22338
       8     H     0.38959  0.38959  0.00000  0.22082
       9     N     3.72817  3.72817  0.00000 -0.45634

   Total alpha = 15.00000, Total beta = 15.00000, Total charge =  0.00000
