  ==> Input File <==

--------------------------------------------------------------------------
set {
	reference rhf
	basis 6-31G*
}

set_num_threads( 4 )
memory 2 gb

molecule MOL {
0 1

H	 -3.301617	 0.570527	 0.000000
C	 -2.250981	 0.344174	 0.000000
C	 -1.813665	 -0.976045	 0.000000
C	 -1.315303	 1.358057	 0.000000
H	 -2.528860	 -1.779366	 0.000000
C	 -0.467298	 -1.270142	 0.000000
H	 -1.635074	 2.385107	 0.000000
C	 0.047081	 1.078114	 0.000000
H	 -0.115948	 -2.285222	 0.000000
C	 0.472063	 -0.241155	 0.000000
H	 0.749976	 1.888426	 0.000000
O	 1.765256	 -0.628444	 0.000000
C	 2.087255	 -1.972677	 0.210772
H	 1.750406	 -2.314006	 1.184096
H	 3.164246	 -2.035774	 0.166948
H	 1.662229	 -2.608435	 -0.558967

	symmetry c1
}
set optking {
	frozen_dihedral = ("
		13 12 10 8
	")
}

ee = optimize('scf')
oeprop('DIPOLE', 'QUADRUPOLE', 'MULLIKEN_CHARGES')
f=open( 'psi4out.xyz', 'w' )
f.write( "16  " )
f.write( str(ee) + "\n" )
f.write( MOL.save_string_xyz() )
f.close()
--------------------------------------------------------------------------

    Molecular point group: c1
  Charge       = 0
  Multiplicity = 1
  Basis Set: 6-31G*
  Basis Set:
  @DF-RHF Final Energy:  -344.57353061355718
    Total Energy =                       -344.5735306135570681
    Molecular point group: c1
  Basis Set: 6-31G*
  Basis Set:
  Basis Set: 6-31G*
  Basis Set:
  @DF-RHF Final Energy:  -344.57740469816696
    Total Energy =                       -344.5774046981670722
  Basis Set: 6-31G*
  Basis Set:
  Basis Set: 6-31G*
  Basis Set:
  @DF-RHF Final Energy:  -344.58194329158954
    Total Energy =                       -344.5819432915895391
  Basis Set: 6-31G*
  Basis Set:
  Basis Set: 6-31G*
  Basis Set:
  @DF-RHF Final Energy:  -344.58255752775102
    Total Energy =                       -344.5825575277510211
  Basis Set: 6-31G*
  Basis Set:
  Basis Set: 6-31G*
  Basis Set:
  @DF-RHF Final Energy:  -344.58262599474102
    Total Energy =                       -344.5826259947413064
  Basis Set: 6-31G*
  Basis Set:
  Basis Set: 6-31G*
  Basis Set:
  @DF-RHF Final Energy:  -344.58263346908376
    Total Energy =                       -344.5826334690835893
  Basis Set: 6-31G*
  Basis Set:
  Basis Set: 6-31G*
  Basis Set:
  @DF-RHF Final Energy:  -344.58263757433463
    Total Energy =                       -344.5826375743343988
  Basis Set: 6-31G*
  Basis Set:
  Charge       = 0
  Multiplicity = 1
  Basis Set: 6-31G*
  Basis Set:

    Orbital Energies (a.u.)
    -----------------------

    Doubly Occupied:

       1A    -20.584730     2A    -11.293768     3A    -11.279872
       4A    -11.232861     5A    -11.231343     6A    -11.223829
       7A    -11.219387     8A    -11.219233     9A     -1.413817
      10A     -1.145766    11A     -1.021586    12A     -1.012678
      13A     -0.941401    14A     -0.830416    15A     -0.804585
      16A     -0.721418    17A     -0.663888    18A     -0.661621
      19A     -0.655864    20A     -0.616682    21A     -0.586805
      22A     -0.575915    23A     -0.524456    24A     -0.519708
      25A     -0.508519    26A     -0.476039    27A     -0.461131
      28A     -0.334580    29A     -0.305213

  @DF-RHF Final Energy:  -344.58263775878834

   => Energetics <=

    Nuclear Repulsion Energy =            348.1253871098404034
    One-Electron Energy =               -1157.2818288820421913
    Two-Electron Energy =                 464.5738040134136781
    DFT Exchange-Correlation Energy =       0.0000000000000000
    Empirical Dispersion Energy =           0.0000000000000000
    PCM Polarization Energy =               0.0000000000000000
    EFP Energy =                            0.0000000000000000
    Total Energy =                       -344.5826377587881097
    Molecular point group: c1
  Basis Set: 6-31G*
  Basis Set:

  -Total Gradient:
     Atom            X                  Y                   Z
    ------   -----------------  -----------------  -----------------
       1        0.000000206936     0.000000604483    -0.000003857520
       2        0.000002990968     0.000016960695    -0.000011177075
       3        0.000007071294    -0.000009587352     0.000020705985
       4       -0.000023719400    -0.000004934156     0.000014174220
       5       -0.000003938814     0.000004021324    -0.000002670415
       6       -0.000009868975    -0.000012870278    -0.000010922390
       7       -0.000003711086     0.000000343950     0.000000434313
       8        0.000035862801    -0.000016302711     0.000747300781
       9        0.000002964718     0.000007745802     0.000001725368
      10       -0.000012106761     0.000089405404    -0.000708946321
      11       -0.000002161510    -0.000002774602     0.000000646195
      12       -0.000051016948    -0.000192423841    -0.000829080840
      13        0.000057120903     0.000127705049     0.000783278824
      14       -0.000001654458    -0.000007096157    -0.000003427292
      15        0.000002282888    -0.000013239431    -0.000003320931
      16       -0.000000322560     0.000012441818     0.000005137098

  **** Optimization is complete! (in 8 steps) ****
    Final optimized geometry and variables:
    Molecular point group: c1

    Geometry (in Angstrom), charge = 0, multiplicity = 1:

    H           -3.193631718802     1.011264656624    -0.025954410498
    C           -2.156721660027     0.728513171798    -0.027344296870
    C           -1.792870019357    -0.602380039422    -0.020681337428
    C           -1.160984253517     1.699402227911    -0.034434247935
    H           -2.549461946588    -1.366986270250    -0.014790687759
    C           -0.454496388771    -0.980592005225    -0.022305245662
    H           -1.426593569973     2.741689766963    -0.037149270217
    C            0.169762677719     1.340739270835    -0.033852348892
    H           -0.202357904755    -2.023314243309    -0.019512475503
    C            0.529799882534    -0.005036443503    -0.031199711489
    H            0.949065064654     2.079991712928    -0.036687000037
    O            1.855982262771    -0.258577575100    -0.038444719061
    C            2.313100040622    -1.563118498618     0.174442811021
    H            1.936373376642    -1.966765709578     1.108452943406
    H            3.390213419202    -1.502493326219     0.220824898834
    H            2.031713192453    -2.222369163359    -0.640114905676

  Mulliken Charges: (a.u.)
   Center  Symbol    Alpha    Beta     Spin     Total
       1     H     0.40123  0.40123  0.00000  0.19755
       2     C     3.11191  3.11191  0.00000 -0.22381
       3     C     3.09114  3.09114  0.00000 -0.18227
       4     C     3.09197  3.09197  0.00000 -0.18395
       5     H     0.39965  0.39965  0.00000  0.20070
       6     C     3.14421  3.14421  0.00000 -0.28843
       7     H     0.39878  0.39878  0.00000  0.20243
       8     C     3.12533  3.12533  0.00000 -0.25066
       9     H     0.39742  0.39742  0.00000  0.20516
      10     C     2.78275  2.78275  0.00000  0.43450
      11     H     0.39295  0.39295  0.00000  0.21410
      12     O     4.32624  4.32624  0.00000 -0.65247
      13     C     3.09214  3.09214  0.00000 -0.18428
      14     H     0.41926  0.41926  0.00000  0.16149
      15     H     0.40481  0.40481  0.00000  0.19038
      16     H     0.42022  0.42022  0.00000  0.15956

   Total alpha = 29.00000, Total beta = 29.00000, Total charge =  0.00000
