                              Psi4 1.0.54 Driver

  ==> Input File <==

--------------------------------------------------------------------------
set {
	reference rhf
	basis cc-pvtz
}

set_num_threads( 4 )
memory 2 gb

molecule MOL {
0 1

H	 2.614283	 2.028610	 0.296620
O	 3.358864	 1.662087	 -0.142800
C	 3.565468	 0.338079	 0.273842
C	 4.999022	 0.051562	 0.695168
H	 2.903723	 0.186754	 1.115968
H	 3.259188	 -0.357137	 -0.505464
C	 6.017328	 0.148779	 -0.438608
H	 5.269630	 0.740220	 1.489950
H	 5.028659	 -0.948777	 1.120424
C	 7.439633	 -0.177348	 0.014745
H	 5.992273	 1.148878	 -0.858341
H	 5.732589	 -0.533374	 -1.237907
C	 8.490542	 -0.167585	 -1.096897
H	 7.734936	 0.521291	 0.793800
H	 7.437580	 -1.160874	 0.476418
C	 8.769780	 1.203198	 -1.710676
H	 9.419094	 -0.560057	 -0.691576
H	 8.188986	 -0.858115	 -1.881363
C	 9.893859	 1.177550	 -2.743245
H	 9.027432	 1.903820	 -0.919340
H	 7.871600	 1.592115	 -2.180803
C	 10.172730	 2.543850	 -3.360778
H	 10.800516	 0.801580	 -2.277202
H	 9.641828	 0.471723	 -3.530233
H	 10.459138	 3.264997	 -2.602388
H	 10.976500	 2.490695	 -4.086199
H	 9.295150	 2.931048	 -3.868007

	symmetry c1
}
set optking {
	frozen_dihedral = ("
		4 3 2 1
	")
}

ee,wfn = optimize('scf', return_wfn=True)
oeprop( wfn, 'DIPOLE', 'QUADRUPOLE', 'MULLIKEN_CHARGES')
f=open( 'psi4out.xyz', 'w' )
f.write( "27  " )
f.write( str(ee) + "\n" )
f.write( MOL.save_string_xyz() )
f.close()
--------------------------------------------------------------------------

    Molecular point group: c1
  Charge       = 0
  Multiplicity = 1
  Basis Set: CC-PVTZ
  Basis Set:
  @DF-RHF Final Energy:  -388.42546472733625
    Total Energy =                       -388.4254647273360206
    Molecular point group: c1
  Basis Set: CC-PVTZ
  Basis Set:
  Basis Set: CC-PVTZ
  Basis Set:
  @DF-RHF Final Energy:  -388.30710926026381
    Total Energy =                       -388.3071092602638146
  Basis Set: CC-PVTZ
  Basis Set:
  Basis Set: CC-PVTZ
  Basis Set:
  @DF-RHF Final Energy:  -388.40036620679780
    Total Energy =                       -388.4003662067975711
  Basis Set: CC-PVTZ
  Basis Set:
  Basis Set: CC-PVTZ
  Basis Set:
  @DF-RHF Final Energy:  -388.42613729955656
    Total Energy =                       -388.4261372995559896
  Basis Set: CC-PVTZ
  Basis Set:
  @DF-RHF Final Energy:  -388.42682049501485
    Total Energy =                       -388.4268204950146810
  Basis Set: CC-PVTZ
  Basis Set:
  @DF-RHF Final Energy:  -388.42690305185471
    Total Energy =                       -388.4269030518547652
  Basis Set: CC-PVTZ
  Basis Set:
  Basis Set: CC-PVTZ
  Basis Set:
  @DF-RHF Final Energy:  -388.42689436554707
    Total Energy =                       -388.4268943655467865
  Basis Set: CC-PVTZ
  Basis Set:
  Basis Set: CC-PVTZ
  Basis Set:
  @DF-RHF Final Energy:  -388.42691773034909
    Total Energy =                       -388.4269177303489187
  Basis Set: CC-PVTZ
  Basis Set:
  Charge       = 0
  Multiplicity = 1
  Basis Set: CC-PVTZ
  Basis Set:

    Orbital Energies (a.u.)
    -----------------------

    Doubly Occupied:

       1A    -20.545154     2A    -11.266166     3A    -11.209913
       4A    -11.208241     5A    -11.207025     6A    -11.206315
       7A    -11.204678     8A    -11.203866     9A    -11.202233
      10A     -1.362666    11A     -1.089066    12A     -1.057203
      13A     -1.008589    14A     -0.943636    15A     -0.880346
      16A     -0.812795    17A     -0.795964    18A     -0.771748
      19A     -0.703048    20A     -0.647594    21A     -0.640622
      22A     -0.609698    23A     -0.588979    24A     -0.583929
      25A     -0.569209    26A     -0.546226    27A     -0.538274
      28A     -0.522535    29A     -0.505412    30A     -0.496454
      31A     -0.476034    32A     -0.469238    33A     -0.460892
      34A     -0.454254    35A     -0.444676    36A     -0.433554
      37A     -0.427113

  @DF-RHF Final Energy:  -388.42691796781634

   => Energetics <=

    Nuclear Repulsion Energy =            460.4372946921641301
    One-Electron Energy =               -1439.5417230723107878
    Two-Electron Energy =                 590.6775104123304345
    DFT Exchange-Correlation Energy =       0.0000000000000000
    Empirical Dispersion Energy =           0.0000000000000000
    PCM Polarization Energy =               0.0000000000000000
    EFP Energy =                            0.0000000000000000
    Total Energy =                       -388.4269179678161663
    Molecular point group: c1
  Basis Set: CC-PVTZ
  Basis Set:

  -Total Gradient:
     Atom            X                  Y                   Z
    ------   -----------------  -----------------  -----------------
       1        0.000344555788     0.000526275568     0.000502473806
       2       -0.000490418394    -0.000611631416    -0.000428633968
       3        0.000301885846    -0.000043808652    -0.000530191021
       4       -0.000140569330     0.000118057713     0.000460717517
       5       -0.000028776842     0.000014623490    -0.000004716239
       6       -0.000008576546    -0.000023940775     0.000019520855
       7        0.000029826848    -0.000028080821     0.000024810421
       8       -0.000009249405    -0.000008219097    -0.000001744207
       9        0.000009441872     0.000007104118    -0.000018054429
      10       -0.000021670187     0.000045441180     0.000006938880
      11        0.000015129976    -0.000012144262     0.000026409549
      12       -0.000006139374    -0.000006507792    -0.000003429874
      13       -0.000001197108    -0.000001483898    -0.000032237043
      14        0.000002587558     0.000007275838     0.000010483611
      15       -0.000031457649     0.000008851224    -0.000021293363
      16        0.000017063342     0.000004091271     0.000031192783
      17       -0.000020761898     0.000009147418    -0.000016634955
      18       -0.000000146945    -0.000006216277    -0.000005856918
      19       -0.000004093260     0.000003411062    -0.000034009504
      20       -0.000008838965     0.000009005071     0.000008495623
      21        0.000052214451    -0.000006274229     0.000002853240
      22       -0.000000595889    -0.000007661719     0.000008933398
      23       -0.000029665476     0.000007575032    -0.000007904415
      24        0.000005789345    -0.000004797891    -0.000005321195
      25        0.000005564152     0.000000331735    -0.000005878613
      26        0.000002660122     0.000008457956     0.000002111021
      27        0.000015437965    -0.000008881846     0.000010965043

  **** Optimization is complete! (in 9 steps) ****
    Final optimized geometry and variables:
    Molecular point group: c1

    Geometry (in Angstrom), charge = 0, multiplicity = 1:

    H           -4.279516812475    -0.282339322745     1.375649622362
    O           -3.459212942824    -0.460713454548     0.958658265798
    C           -2.809388578983    -1.538792801120     1.588849375661
    C           -1.371578953996    -1.179614370725     1.918897665752
    H           -3.331117049818    -1.814571386601     2.499993513173
    H           -2.835948648849    -2.400986451719     0.928257471986
    C           -0.525167733020    -0.860765356448     0.689348538806
    H           -1.373933356216    -0.327991346650     2.593221749178
    H           -0.930286142536    -2.012157546949     2.461985156283
    C            0.908315668396    -0.471711655334     1.045605865777
    H           -1.004943968331    -0.065467358945     0.133942560643
    H           -0.507666378855    -1.729826129356     0.034605945102
    C            1.825470645273    -0.226236335106    -0.154055663297
    H            0.893372804813     0.417404239754     1.671913772444
    H            1.343036398938    -1.261075597654     1.653426139094
    C            1.467902170847     0.994713312151    -0.999451246388
    H            2.842541222542    -0.108646631075     0.210210296557
    H            1.832301721754    -1.111294750598    -0.786299263239
    C            2.460320430538     1.249582370103    -2.130969898930
    H            1.423947822362     1.872676703020    -0.358458353378
    H            0.475440066626     0.877187793645    -1.422620452566
    C            2.104803662516     2.466875149015    -2.978089969006
    H            3.455275948764     1.379883971410    -1.713956674491
    H            2.510881399405     0.370687574757    -2.768182060056
    H            2.078733219540     3.368784604139    -2.375433394603
    H            2.828790681018     2.620038980454    -3.770382900226
    H            1.129521674265     2.351386798821    -3.439113703538

  Mulliken Charges: (a.u.)
   Center  Symbol    Alpha    Beta     Spin     Total
       1     H     0.39256  0.39256  0.00000  0.21488
       2     O     4.20312  4.20312  0.00000 -0.40624
       3     C     2.97612  2.97612  0.00000  0.04776
       4     C     3.08457  3.08457  0.00000 -0.16913
       5     H     0.46527  0.46527  0.00000  0.06947
       6     H     0.46952  0.46952  0.00000  0.06096
       7     C     3.09515  3.09515  0.00000 -0.19030
       8     H     0.45683  0.45683  0.00000  0.08634
       9     H     0.45570  0.45570  0.00000  0.08861
      10     C     3.09849  3.09849  0.00000 -0.19699
      11     H     0.44129  0.44129  0.00000  0.11742
      12     H     0.45738  0.45738  0.00000  0.08524
      13     C     3.09756  3.09756  0.00000 -0.19512
      14     H     0.45373  0.45373  0.00000  0.09254
      15     H     0.45031  0.45031  0.00000  0.09938
      16     C     3.08794  3.08794  0.00000 -0.17587
      17     H     0.44946  0.44946  0.00000  0.10108
      18     H     0.45449  0.45449  0.00000  0.09102
      19     C     3.08379  3.08379  0.00000 -0.16757
      20     H     0.45569  0.45569  0.00000  0.08862
      21     H     0.45154  0.45154  0.00000  0.09693
      22     C     3.14973  3.14973  0.00000 -0.29946
      23     H     0.45491  0.45491  0.00000  0.09019
      24     H     0.45512  0.45512  0.00000  0.08976
      25     H     0.45556  0.45556  0.00000  0.08889
      26     H     0.44925  0.44925  0.00000  0.10151
      27     H     0.45495  0.45495  0.00000  0.09009

   Total alpha = 37.00000, Total beta = 37.00000, Total charge = -0.00000

*** Psi4 exiting successfully. Buy a developer a beer!
