  ==> Input File <==

--------------------------------------------------------------------------
set {
	reference rhf
	basis cc-pvtz
}

set_num_threads( 4 )
memory 2 gb

molecule MOL {
0 1

H	 -3.941973	 0.934228	 -0.390224
C	 -3.240162	 0.342701	 0.161016
C	 -2.105997	 -0.000418	 -0.398703
H	 -3.485368	 0.047206	 1.162193
O	 -1.189946	 -0.765863	 0.237511
H	 -1.846458	 0.297311	 -1.398265
C	 0.026572	 -0.995256	 -0.379403
C	 1.057223	 0.049888	 -0.004615
H	 -0.054361	 -1.010670	 -1.459674
H	 0.397526	 -1.952058	 -0.044198
F	 0.494010	 0.969820	 0.752747
F	 2.057940	 -0.468702	 0.674456
F	 1.558668	 0.647599	 -1.058063

	symmetry c1
}
set optking {
	frozen_dihedral = ("
		11 8 7 9
	")
}

ee = optimize('scf')
oeprop('DIPOLE', 'QUADRUPOLE', 'MULLIKEN_CHARGES')
f=open( 'psi4out.xyz', 'w' )
f.write( "13  " )
f.write( str(ee) + "\n" )
f.write( MOL.save_string_xyz() )
f.close()
--------------------------------------------------------------------------

    Molecular point group: c1
  Charge       = 0
  Multiplicity = 1
  Basis Set: CC-PVTZ
  Basis Set:
  @DF-RHF Final Energy:  -527.73395748261532
    Total Energy =                       -527.7339574826152102
    Molecular point group: c1
  Basis Set: CC-PVTZ
  Basis Set:
  Basis Set: CC-PVTZ
  Basis Set:
  @DF-RHF Final Energy:  -527.73513867077872
    Total Energy =                       -527.7351386707787242
  Basis Set: CC-PVTZ
  Basis Set:
  Basis Set: CC-PVTZ
  Basis Set:
  @DF-RHF Final Energy:  -527.73545611433428
    Total Energy =                       -527.7354561143340561
  Basis Set: CC-PVTZ
  Basis Set:
  Basis Set: CC-PVTZ
  Basis Set:
  @DF-RHF Final Energy:  -527.73548978377414
    Total Energy =                       -527.7354897837745966
  Basis Set: CC-PVTZ
  Basis Set:
  Basis Set: CC-PVTZ
  Basis Set:
  @DF-RHF Final Energy:  -527.73549407414203
    Total Energy =                       -527.7354940741421387
  Basis Set: CC-PVTZ
  Basis Set:
  Basis Set: CC-PVTZ
  Basis Set:
  @DF-RHF Final Energy:  -527.73549567926398
    Total Energy =                       -527.7354956792638632
  Basis Set: CC-PVTZ
  Basis Set:
  Basis Set: CC-PVTZ
  Basis Set:
  @DF-RHF Final Energy:  -527.73549700114722
    Total Energy =                       -527.7354970011469959
  Basis Set: CC-PVTZ
  Basis Set:
  Charge       = 0
  Multiplicity = 1
  Basis Set: CC-PVTZ
  Basis Set:

    Orbital Energies (a.u.)
    -----------------------

    Doubly Occupied:

       1A    -26.340193     2A    -26.339620     3A    -26.338559
       4A    -20.603199     5A    -11.499702     6A    -11.319717
       7A    -11.298411     8A    -11.214605     9A     -1.750621
      10A     -1.646799    11A     -1.644138    12A     -1.444146
      13A     -1.083907    14A     -1.019114    15A     -0.932502
      16A     -0.843674    17A     -0.837932    18A     -0.827953
      19A     -0.796425    20A     -0.730958    21A     -0.723138
      22A     -0.701671    23A     -0.680119    24A     -0.668537
      25A     -0.661878    26A     -0.649786    27A     -0.634277
      28A     -0.587220    29A     -0.565122    30A     -0.528831
      31A     -0.516245    32A     -0.357218

  @DF-RHF Final Energy:  -527.73549763737242

   => Energetics <=

    Nuclear Repulsion Energy =            413.0108242350008823
    One-Electron Energy =               -1549.9202069452278465
    Two-Electron Energy =                 609.1738850728545458
    DFT Exchange-Correlation Energy =       0.0000000000000000
    Empirical Dispersion Energy =           0.0000000000000000
    PCM Polarization Energy =               0.0000000000000000
    EFP Energy =                            0.0000000000000000
    Total Energy =                       -527.7354976373724185
    Molecular point group: c1
  Basis Set: CC-PVTZ
  Basis Set:

  -Total Gradient:
     Atom            X                  Y                   Z
    ------   -----------------  -----------------  -----------------
       1        0.000004276827     0.000007269318     0.000005418278
       2        0.000010083083     0.000006222749     0.000004664793
       3        0.000023481838    -0.000028927275    -0.000006790289
       4        0.000002594116     0.000002538327     0.000002536533
       5       -0.000075686100    -0.000029008498     0.000027409168
       6        0.000004513960     0.000004800620    -0.000002240165
       7       -0.000369327987     0.000473246602     0.000098990897
       8       -0.000153546091     0.000235725132    -0.000405629518
       9        0.000422003743    -0.000425770824    -0.000018430828
      10       -0.000021488989     0.000003382809     0.000001211516
      11        0.000099057205    -0.000230142762     0.000419368204
      12        0.000009828192    -0.000011978246    -0.000043367304
      13        0.000044210200    -0.000007357955    -0.000083141289

  **** Optimization is complete! (in 8 steps) ****
    Final optimized geometry and variables:
    Molecular point group: c1

    Geometry (in Angstrom), charge = 0, multiplicity = 1:

    H           -3.901034435421     0.978230340874    -0.363687543346
    C           -3.244019272038     0.313332666463     0.158389022222
    C           -2.076547139128     0.020600855404    -0.359749391853
    H           -3.559958299760    -0.094876622059     1.098307767702
    O           -1.209542643400    -0.825025058890     0.241791104950
    H           -1.748609424059     0.430520936909    -1.298517590640
    C            0.021335337211    -1.026158807407    -0.353502165212
    C            1.054774775169     0.061645611947    -0.010932940126
    H           -0.055901588528    -1.083088359303    -1.431721448206
    H            0.403993079007    -1.964243211061     0.014171901880
    F            0.546466805449     1.030617831637     0.706298694170
    F            2.068400163252    -0.443940826005     0.661477959560
    F            1.554476014249     0.598169029282    -1.108856503419

  Mulliken Charges: (a.u.)
   Center  Symbol    Alpha    Beta     Spin     Total
       1     H     0.42544  0.42544  0.00000  0.14913
       2     C     3.19580  3.19580  0.00000 -0.39159
       3     C     2.95825  2.95825  0.00000  0.08349
       4     H     0.42495  0.42495  0.00000  0.15010
       5     O     4.13889  4.13889  0.00000 -0.27777
       6     H     0.43446  0.43446  0.00000  0.13108
       7     C     3.03508  3.03508  0.00000 -0.07016
       8     C     2.67215  2.67215  0.00000  0.65571
       9     H     0.45468  0.45468  0.00000  0.09064
      10     H     0.43465  0.43465  0.00000  0.13070
      11     F     4.60226  4.60226  0.00000 -0.20452
      12     F     4.61029  4.61029  0.00000 -0.22058
      13     F     4.61311  4.61311  0.00000 -0.22621

   Total alpha = 32.00000, Total beta = 32.00000, Total charge = -0.00000
