  ==> Input File <==

--------------------------------------------------------------------------
set {
	reference rhf
	basis 6-31G*
}

set_num_threads( 1 )
memory 2 gb

molecule MOL {
0 1

O	 -1.725191	 2.076834	 -1.443582
C	 -1.785358	 1.043870	 -0.848771
C	 -0.743291	 -0.039812	 -1.063330
C	 -2.874347	 0.774037	 0.165463
C	 0.546724	 0.279624	 -0.290696
H	 -0.527669	 -0.083052	 -2.125376
H	 -1.129665	 -1.007708	 -0.756868
C	 1.631333	 -0.777471	 -0.511575
H	 0.896071	 1.256583	 -0.605165
H	 0.328084	 0.351512	 0.773624
C	 2.915987	 -0.544314	 0.291766
H	 1.874231	 -0.825030	 -1.571511
H	 1.229224	 -1.753188	 -0.246749
C	 3.373361	 0.914346	 0.347591
H	 3.708709	 -1.142521	 -0.150311
H	 2.780642	 -0.921148	 1.303579
H	 3.506512	 1.320010	 -0.651625
H	 4.322697	 0.999599	 0.867103
H	 2.660624	 1.545032	 0.868198
H	 -3.515559	 -0.027599	 -0.191596
H	 -3.466198	 1.665570	 0.319301
H	 -2.448068	 0.446559	 1.109311

	symmetry c1
}
set optking {
	frozen_dihedral = ("
		6 3 2 1,
		6 3 5 8,
		3 5 8 12
	")
}

ee = energy('scf')
oeprop('DIPOLE', 'QUADRUPOLE', 'MULLIKEN_CHARGES')
f=open( 'psi4out.xyz', 'w' )
f.write( "22  " )
f.write( str(ee) + "\n" )
f.write( MOL.save_string_xyz() )
f.close()
--------------------------------------------------------------------------

    Molecular point group: c1

    Geometry (in Angstrom), charge = 0, multiplicity = 1:

       Center              X                  Y                   Z               Mass
    ------------   -----------------  -----------------  -----------------  -----------------
           O         -1.895896232372     1.596037396833    -1.031056869129    15.994914619560
           C         -1.956063232372     0.563073396833    -0.436245869129    12.000000000000
           C         -0.913996232372    -0.520608603167    -0.650804869129    12.000000000000
           C         -3.045052232372     0.293240396833     0.577988130871    12.000000000000
           C          0.376018767628    -0.201172603167     0.121829130871    12.000000000000
           H         -0.698374232372    -0.563848603167    -1.712850869129     1.007825032070
           H         -1.300370232372    -1.488504603167    -0.344342869129     1.007825032070
           C          1.460627767628    -1.258267603167    -0.099049869129    12.000000000000
           H          0.725365767628     0.775786396833    -0.192639869129     1.007825032070
           H          0.157378767628    -0.129284603167     1.186149130871     1.007825032070
           C          2.745281767628    -1.025110603167     0.704291130871    12.000000000000
           H          1.703525767628    -1.305826603167    -1.158985869129     1.007825032070
           H          1.058518767628    -2.233984603167     0.165776130871     1.007825032070
           C          3.202655767628     0.433549396833     0.760116130871    12.000000000000
           H          3.538003767628    -1.623317603167     0.262214130871     1.007825032070
           H          2.609936767628    -1.401944603167     1.716104130871     1.007825032070
           H          3.335806767628     0.839213396833    -0.239099869129     1.007825032070
           H          4.151991767628     0.518802396833     1.279628130871     1.007825032070
           H          2.489918767628     1.064235396833     1.280723130871     1.007825032070
           H         -3.686264232372    -0.508395603167     0.220929130871     1.007825032070
           H         -3.636903232372     1.184773396833     0.731826130871     1.007825032070
           H         -2.618773232372    -0.034237603167     1.521836130871     1.007825032070

  Charge       = 0
  Multiplicity = 1
  Basis Set: 6-31G*
  Basis Set:

    Orbital Energies (a.u.)
    -----------------------

    Doubly Occupied:

       1A    -20.547225     2A    -11.324354     3A    -11.229279
       4A    -11.228702     5A    -11.228139     6A    -11.222057
       7A    -11.220293     8A    -11.211049     9A     -1.392974
      10A     -1.096209    11A     -1.043866    12A     -0.998669
      13A     -0.936971    14A     -0.862310    15A     -0.780868
      16A     -0.733085    17A     -0.664093    18A     -0.644266
      19A     -0.628557    20A     -0.619407    21A     -0.594137
      22A     -0.585050    23A     -0.562272    24A     -0.537740
      25A     -0.535623    26A     -0.524139    27A     -0.496243
      28A     -0.488233    29A     -0.466710    30A     -0.464686
      31A     -0.459601    32A     -0.396123

  @DF-RHF Final Energy:  -348.09579715701966

   => Energetics <=

    Nuclear Repulsion Energy =            374.7911918942394323
    One-Electron Energy =               -1214.3277269173718196
    Two-Electron Energy =                 491.4407378661124994
    DFT Exchange-Correlation Energy =       0.0000000000000000
    Empirical Dispersion Energy =           0.0000000000000000
    PCM Polarization Energy =               0.0000000000000000
    EFP Energy =                            0.0000000000000000
    Total Energy =                       -348.0957971570198879

  Mulliken Charges: (a.u.)
   Center  Symbol    Alpha    Beta     Spin     Total
       1     O     4.26250  4.26250  0.00000 -0.52500
       2     C     2.73721  2.73721  0.00000  0.52559
       3     C     3.19907  3.19907  0.00000 -0.39815
       4     C     3.28952  3.28952  0.00000 -0.57905
       5     C     3.16652  3.16652  0.00000 -0.33303
       6     H     0.40132  0.40132  0.00000  0.19736
       7     H     0.41716  0.41716  0.00000  0.16567
       8     C     3.15253  3.15253  0.00000 -0.30505
       9     H     0.40212  0.40212  0.00000  0.19575
      10     H     0.42145  0.42145  0.00000  0.15710
      11     C     3.15264  3.15264  0.00000 -0.30528
      12     H     0.42013  0.42013  0.00000  0.15974
      13     H     0.42159  0.42159  0.00000  0.15683
      14     C     3.24502  3.24502  0.00000 -0.49004
      15     H     0.41918  0.41918  0.00000  0.16165
      16     H     0.42241  0.42241  0.00000  0.15518
      17     H     0.41991  0.41991  0.00000  0.16017
      18     H     0.41791  0.41791  0.00000  0.16418
      19     H     0.41803  0.41803  0.00000  0.16395
      20     H     0.40692  0.40692  0.00000  0.18616
      21     H     0.39712  0.39712  0.00000  0.20576
      22     H     0.40975  0.40975  0.00000  0.18050

   Total alpha = 32.00000, Total beta = 32.00000, Total charge =  0.00000
