                              Psi4 1.0.54 Driver

  ==> Input File <==

--------------------------------------------------------------------------
set {
	reference rhf
	basis cc-pvtz
}

set_num_threads( 4 )
memory 2 gb

molecule MOL {
0 1

H	 -3.144994	 -1.202467	 -0.018751
O	 -2.321472	 -0.864941	 -0.318626
C	 -2.021813	 0.336996	 0.342658
C	 -0.669613	 0.837286	 -0.127252
H	 -2.780861	 1.084746	 0.127159
H	 -2.006390	 0.184138	 1.420053
C	 0.490865	 -0.082543	 0.241244
H	 -0.708709	 0.967192	 -1.204587
H	 -0.507562	 1.822272	 0.303070
C	 0.924407	 0.057133	 1.697658
H	 1.332122	 0.126998	 -0.409475
H	 0.203140	 -1.114589	 0.050938
C	 2.079076	 -0.867386	 2.068855
H	 1.213678	 1.087157	 1.887596
H	 0.077757	 -0.145806	 2.348572
H	 2.952865	 -0.664773	 1.458645
H	 2.364569	 -0.743214	 3.107305
H	 1.809812	 -1.908286	 1.922329

	symmetry c1
}
set optking {
	frozen_dihedral = ("
		10 7 4 8
	")
}

ee,wfn = optimize('scf', return_wfn=True)
oeprop( wfn, 'DIPOLE', 'QUADRUPOLE', 'MULLIKEN_CHARGES')
f=open( 'psi4out.xyz', 'w' )
f.write( "18  " )
f.write( str(ee) + "\n" )
f.write( MOL.save_string_xyz() )
f.close()
--------------------------------------------------------------------------

    Molecular point group: c1
  Charge       = 0
  Multiplicity = 1
  Basis Set: CC-PVTZ
  Basis Set:
  @DF-RHF Final Energy:  -271.28469820927342
    Total Energy =                       -271.2846982092735288
    Molecular point group: c1
  Basis Set: CC-PVTZ
  Basis Set:
  Basis Set: CC-PVTZ
  Basis Set:
  @DF-RHF Final Energy:  -271.28494914760472
    Total Energy =                       -271.2849491476047774
  Basis Set: CC-PVTZ
  Basis Set:
  Basis Set: CC-PVTZ
  Basis Set:
  @DF-RHF Final Energy:  -271.28497721684158
    Total Energy =                       -271.2849772168410709
  Basis Set: CC-PVTZ
  Basis Set:
  Charge       = 0
  Multiplicity = 1
  Basis Set: CC-PVTZ
  Basis Set:

    Orbital Energies (a.u.)
    -----------------------

    Doubly Occupied:

       1A    -20.546346     2A    -11.265681     3A    -11.210628
       4A    -11.210029     5A    -11.205002     6A    -11.203534
       7A     -1.364163     8A     -1.076272     9A     -1.008801
      10A     -0.914737    11A     -0.829291    12A     -0.775404
      13A     -0.706193    14A     -0.650516    15A     -0.622303
      16A     -0.585224    17A     -0.566797    18A     -0.557843
      19A     -0.533712    20A     -0.504240    21A     -0.487186
      22A     -0.469111    23A     -0.456611    24A     -0.449703
      25A     -0.430714

  @DF-RHF Final Energy:  -271.28497806796202

   => Energetics <=

    Nuclear Repulsion Energy =            252.2734295088886540
    One-Electron Energy =                -867.8567304738508028
    Two-Electron Energy =                 344.2983228970001619
    DFT Exchange-Correlation Energy =       0.0000000000000000
    Empirical Dispersion Energy =           0.0000000000000000
    PCM Polarization Energy =               0.0000000000000000
    EFP Energy =                            0.0000000000000000
    Total Energy =                       -271.2849780679620153
    Molecular point group: c1
  Basis Set: CC-PVTZ
  Basis Set:

  -Total Gradient:
     Atom            X                  Y                   Z
    ------   -----------------  -----------------  -----------------
       1       -0.000011727246    -0.000016390209    -0.000007660885
       2       -0.000016210951     0.000032140874     0.000014394710
       3        0.000008101320    -0.000013450991     0.000020947519
       4       -0.000848249068    -0.001231226951    -0.000301974676
       5       -0.000016045862    -0.000012000998    -0.000009961934
       6       -0.000012061875    -0.000011529622    -0.000002696886
       7       -0.000861608179    -0.000904686678     0.000479886468
       8        0.000953117862     0.001286865357     0.000133507912
       9        0.000022643246    -0.000023284535    -0.000003098254
      10        0.000784285833     0.000866431164    -0.000322862457
      11        0.000021213727     0.000013210678    -0.000002561639
      12       -0.000006097846     0.000026962799     0.000002686353
      13       -0.000026613977    -0.000011784649     0.000003506586
      14       -0.000005995036     0.000005394684    -0.000015517912
      15        0.000001890107    -0.000000858174     0.000000169678
      16       -0.000007060895     0.000002571340     0.000001918563
      17        0.000006002894    -0.000006085791     0.000012460833
      18        0.000014415943    -0.000002278298    -0.000003143980

  **** Optimization is complete! (in 4 steps) ****
    Final optimized geometry and variables:
    Molecular point group: c1

    Geometry (in Angstrom), charge = 0, multiplicity = 1:

    H           -2.852052745906    -1.082855740095    -0.690754416850
    O           -2.021907844243    -0.748345478872    -0.975165824389
    C           -1.739087778098     0.462447077351    -0.322176308244
    C           -0.375409098320     0.956418713959    -0.769379751282
    H           -2.489192015582     1.208833203338    -0.571025328053
    H           -1.761067700341     0.325096843119     0.755832223627
    C            0.796393780044     0.050620989912    -0.381732698010
    H           -0.397636612400     1.080034563677    -1.846688747598
    H           -0.222930835619     1.948449646714    -0.351512011755
    C            1.232780316575     0.176881378344     1.076774729086
    H            1.645023444112     0.297620013664    -1.013398430979
    H            0.540449530030    -0.979098276078    -0.603619693300
    C            2.403671679580    -0.736443615980     1.424956329306
    H            1.508937634619     1.208579504659     1.278328640995
    H            0.400061647337    -0.049629752443     1.736079757923
    H            3.268690336105    -0.514891282216     0.808581508229
    H            2.698476418753    -0.621272556199     2.461890099027
    H            2.146202470673    -1.778396013069     1.267389404826

  Mulliken Charges: (a.u.)
   Center  Symbol    Alpha    Beta     Spin     Total
       1     H     0.39570  0.39570  0.00000  0.20860
       2     O     4.19856  4.19856  0.00000 -0.39712
       3     C     2.97209  2.97209  0.00000  0.05581
       4     C     3.09825  3.09825  0.00000 -0.19650
       5     H     0.46430  0.46430  0.00000  0.07139
       6     H     0.47346  0.47346  0.00000  0.05308
       7     C     3.09465  3.09465  0.00000 -0.18930
       8     H     0.44629  0.44629  0.00000  0.10743
       9     H     0.45545  0.45545  0.00000  0.08910
      10     C     3.08410  3.08410  0.00000 -0.16820
      11     H     0.45073  0.45073  0.00000  0.09855
      12     H     0.44526  0.44526  0.00000  0.10948
      13     C     3.14974  3.14974  0.00000 -0.29948
      14     H     0.45625  0.45625  0.00000  0.08750
      15     H     0.45661  0.45661  0.00000  0.08678
      16     H     0.45498  0.45498  0.00000  0.09005
      17     H     0.44955  0.44955  0.00000  0.10090
      18     H     0.45403  0.45403  0.00000  0.09194

   Total alpha = 25.00000, Total beta = 25.00000, Total charge = -0.00000

*** Psi4 exiting successfully. Buy a developer a beer!
