  ==> Input File <==

--------------------------------------------------------------------------
set {
	reference rhf
	basis cc-pvtz
}

set_num_threads( 4 )
memory 2 gb

molecule MOL {
0 1

H	 -2.498963	 -0.741158	 -0.729149
O	 -2.346257	 -0.289210	 0.080372
C	 -1.183935	 0.486039	 -0.009831
C	 0.062853	 -0.375310	 0.027457
H	 -1.178881	 1.094526	 -0.908634
H	 -1.184406	 1.155156	 0.838676
O	 1.172093	 0.457955	 -0.054438
H	 0.052476	 -1.081302	 -0.804627
H	 0.076323	 -0.955658	 0.947560
C	 1.652808	 0.904690	 1.170536
H	 1.965734	 0.075349	 1.801048
H	 2.506584	 1.538294	 0.980012
H	 0.901430	 1.479930	 1.706305

	symmetry c1
}
set optking {
	frozen_dihedral = ("
		10 7 4 8
	")
}

ee = optimize('scf')
oeprop('DIPOLE', 'QUADRUPOLE', 'MULLIKEN_CHARGES')
f=open( 'psi4out.xyz', 'w' )
f.write( "13  " )
f.write( str(ee) + "\n" )
f.write( MOL.save_string_xyz() )
f.close()
--------------------------------------------------------------------------

    Molecular point group: c1
  Charge       = 0
  Multiplicity = 1
  Basis Set: CC-PVTZ
  Basis Set:
  @DF-RHF Final Energy:  -268.05816407249068
    Total Energy =                       -268.0581640724907402
    Molecular point group: c1
  Basis Set: CC-PVTZ
  Basis Set:
  Basis Set: CC-PVTZ
  Basis Set:
  @DF-RHF Final Energy:  -268.05920608268991
    Total Energy =                       -268.0592060826900251
  Basis Set: CC-PVTZ
  Basis Set:
  Basis Set: CC-PVTZ
  Basis Set:
  @DF-RHF Final Energy:  -268.05944293345260
    Total Energy =                       -268.0594429334527717
  Basis Set: CC-PVTZ
  Basis Set:
  Basis Set: CC-PVTZ
  Basis Set:
  @DF-RHF Final Energy:  -268.05944809407561
    Total Energy =                       -268.0594480940757194
  Basis Set: CC-PVTZ
  Basis Set:
  Charge       = 0
  Multiplicity = 1
  Basis Set: CC-PVTZ
  Basis Set:

    Orbital Energies (a.u.)
    -----------------------

    Doubly Occupied:

       1A    -20.554439     2A    -20.554265     3A    -11.269375
       4A    -11.268519     5A    -11.267463     6A     -1.388420
       7A     -1.370094     8A     -1.015369     9A     -0.925686
      10A     -0.837872    11A     -0.712166    12A     -0.675595
      13A     -0.658629    14A     -0.643137    15A     -0.597081
      16A     -0.574213    17A     -0.532026    18A     -0.513820
      19A     -0.470960    20A     -0.463670    21A     -0.408838

  @DF-RHF Final Energy:  -268.05944853732831

   => Energetics <=

    Nuclear Repulsion Energy =            191.8699454040351782
    One-Electron Energy =                -746.4555205439852443
    Two-Electron Energy =                 286.5261266026218436
    DFT Exchange-Correlation Energy =       0.0000000000000000
    Empirical Dispersion Energy =           0.0000000000000000
    PCM Polarization Energy =               0.0000000000000000
    EFP Energy =                            0.0000000000000000
    Total Energy =                       -268.0594485373281941
    Molecular point group: c1
  Basis Set: CC-PVTZ
  Basis Set:

  -Total Gradient:
     Atom            X                  Y                   Z
    ------   -----------------  -----------------  -----------------
       1       -0.000022846255    -0.000000393527     0.000002728795
       2        0.000029678670     0.000003444134    -0.000042515760
       3       -0.000001881898    -0.000018403523     0.000057099920
       4       -0.000058729716     0.000021560392    -0.000061021802
       5       -0.000013920690    -0.000002273205    -0.000001207176
       6        0.000011666993     0.000014464622    -0.000010317218
       7       -0.000015082188     0.000120844922    -0.000014632412
       8        0.000046275510    -0.000071534236     0.000056037643
       9       -0.000004679124     0.000013566665     0.000005616804
      10        0.000028481895    -0.000089044433    -0.000017122570
      11        0.000003846003     0.000003477292     0.000006624491
      12       -0.000001370630    -0.000000860769     0.000005771550
      13       -0.000001438566     0.000005151665     0.000012937735

  **** Optimization is complete! (in 5 steps) ****
    Final optimized geometry and variables:
    Molecular point group: c1

    Geometry (in Angstrom), charge = 0, multiplicity = 1:

    H           -2.317647280257    -1.025341945747    -0.994972567587
    O           -2.212109002554    -0.545483951380    -0.193766705897
    C           -1.070226841814     0.262371540716    -0.260939977050
    C            0.202048210976    -0.569284185883    -0.200348640246
    H           -1.061960918670     0.867422921891    -1.162440627155
    H           -1.122031447412     0.936417606376     0.582909189135
    O            1.346533175806     0.223286411994    -0.279056686750
    H            0.226994389143    -1.249865786450    -1.044701268503
    H            0.200227748449    -1.172292884344     0.703733949445
    C            1.857778318600     0.672900385473     0.935722518738
    H            2.155023237509    -0.158611233917     1.569528261277
    H            2.728985708358     1.273795932174     0.719409689351
    H            1.144731118666     1.284230828911     1.481580548638

  Mulliken Charges: (a.u.)
   Center  Symbol    Alpha    Beta     Spin     Total
       1     H     0.39339  0.39339  0.00000  0.21322
       2     O     4.20295  4.20295  0.00000 -0.40590
       3     C     2.97086  2.97086  0.00000  0.05827
       4     C     2.98434  2.98434  0.00000  0.03132
       5     H     0.46604  0.46604  0.00000  0.06792
       6     H     0.45897  0.45897  0.00000  0.08207
       7     O     4.18077  4.18077  0.00000 -0.36154
       8     H     0.45809  0.45809  0.00000  0.08383
       9     H     0.46748  0.46748  0.00000  0.06505
      10     C     3.03055  3.03055  0.00000 -0.06111
      11     H     0.46813  0.46813  0.00000  0.06374
      12     H     0.44685  0.44685  0.00000  0.10629
      13     H     0.47157  0.47157  0.00000  0.05685

   Total alpha = 21.00000, Total beta = 21.00000, Total charge = -0.00000
