                              Psi4 1.0.54 Driver

  ==> Input File <==

--------------------------------------------------------------------------
set {
	reference rhf
	basis cc-pvtz
}

set_num_threads( 4 )
memory 2 gb

molecule MOL {
0 1

O	 0.074770	 1.259872	 0.000487
C	 0.029490	 0.077183	 0.000078
C	 -1.232113	 -0.748027	 0.000015
O	 1.106773	 -0.690081	 -0.000204
C	 -2.501422	 0.088592	 -0.000052
H	 -1.188777	 -1.400384	 -0.865133
H	 -1.188857	 -1.400312	 0.865225
H	 -2.548170	 0.725504	 -0.873205
H	 -3.371613	 -0.556398	 -0.000040
H	 -2.548215	 0.725571	 0.873047
C	 0.950871	 -2.027676	 0.428953
H	 0.599243	 -2.062075	 1.449448
H	 1.926776	 -2.479481	 0.356111
H	 0.249356	 -2.551460	 -0.203323

	symmetry c1
}
set optking {
	frozen_dihedral = ("
		11 4 2 3
	")
}

ee,wfn = optimize('scf', return_wfn=True)
oeprop( wfn, 'DIPOLE', 'QUADRUPOLE', 'MULLIKEN_CHARGES')
f=open( 'psi4out.xyz', 'w' )
f.write( "14  " )
f.write( str(ee) + "\n" )
f.write( MOL.save_string_xyz() )
f.close()
--------------------------------------------------------------------------

    Molecular point group: c1
  Charge       = 0
  Multiplicity = 1
  Basis Set: CC-PVTZ
  Basis Set:
  @DF-RHF Final Energy:  -305.96312898570511
    Total Energy =                       -305.9631289857052252
    Molecular point group: c1
  Basis Set: CC-PVTZ
  Basis Set:
  Basis Set: CC-PVTZ
  Basis Set:
  @DF-RHF Final Energy:  -305.95032877219717
    Total Energy =                       -305.9503287721969400
  Basis Set: CC-PVTZ
  Basis Set:
  Basis Set: CC-PVTZ
  Basis Set:
  @DF-RHF Final Energy:  -305.97046272314464
    Total Energy =                       -305.9704627231445215
  Basis Set: CC-PVTZ
  Basis Set:
  Basis Set: CC-PVTZ
  Basis Set:
  @DF-RHF Final Energy:  -305.97227285421326
    Total Energy =                       -305.9722728542133154
  Basis Set: CC-PVTZ
  Basis Set:
  @DF-RHF Final Energy:  -305.96925733648425
    Total Energy =                       -305.9692573364844748
  Basis Set: CC-PVTZ
  Basis Set:
  @DF-RHF Final Energy:  -305.97277838724358
    Total Energy =                       -305.9727783872435793
  Basis Set: CC-PVTZ
  Basis Set:
  Basis Set: CC-PVTZ
  Basis Set:
  @DF-RHF Final Energy:  -305.97291226706204
    Total Energy =                       -305.9729122670620427
  Basis Set: CC-PVTZ
  Basis Set:
  Basis Set: CC-PVTZ
  Basis Set:
  @DF-RHF Final Energy:  -305.97292010798765
    Total Energy =                       -305.9729201079876475
  Basis Set: CC-PVTZ
  Basis Set:
  Charge       = 0
  Multiplicity = 1
  Basis Set: CC-PVTZ
  Basis Set:

    Orbital Energies (a.u.)
    -----------------------

    Doubly Occupied:

       1A    -20.594639     2A    -20.530062     3A    -11.366901
       4A    -11.293948     5A    -11.246809     6A    -11.218988
       7A     -1.466503     8A     -1.368826     9A     -1.064270
      10A     -0.987043    11A     -0.900336    12A     -0.769566
      13A     -0.707234    14A     -0.690272    15A     -0.675916
      16A     -0.626709    17A     -0.607281    18A     -0.559666
      19A     -0.554272    20A     -0.527181    21A     -0.511592
      22A     -0.503995    23A     -0.452938    24A     -0.436204

  @DF-RHF Final Energy:  -305.97292104034216

   => Energetics <=

    Nuclear Repulsion Energy =            248.0362347163780896
    One-Electron Energy =                -908.6960088904301074
    Two-Electron Energy =                 354.6868531337099739
    DFT Exchange-Correlation Energy =       0.0000000000000000
    Empirical Dispersion Energy =           0.0000000000000000
    PCM Polarization Energy =               0.0000000000000000
    EFP Energy =                            0.0000000000000000
    Total Energy =                       -305.9729210403420439
    Molecular point group: c1
  Basis Set: CC-PVTZ
  Basis Set:

  -Total Gradient:
     Atom            X                  Y                   Z
    ------   -----------------  -----------------  -----------------
       1        0.000000996993    -0.000026980209    -0.000007004249
       2        0.000210533789    -0.000115690332     0.003069548527
       3        0.000026921533     0.000191549277    -0.001444812331
       4       -0.000498914544    -0.000281241596    -0.003230399934
       5       -0.000004175556     0.000012594535     0.000011716476
       6       -0.000007098811    -0.000013915907     0.000013051326
       7       -0.000015595129    -0.000013281425     0.000005974326
       8       -0.000003112455     0.000003062602    -0.000001193104
       9        0.000008930656    -0.000003878668    -0.000000017585
      10       -0.000005249081    -0.000001985894    -0.000009576408
      11        0.000289066153     0.000277243553     0.001604960078
      12        0.000014282149    -0.000036542941    -0.000006119794
      13       -0.000020350748     0.000010978779    -0.000007922648
      14        0.000003765053    -0.000001911770     0.000001795321

  **** Optimization is complete! (in 9 steps) ****
    Final optimized geometry and variables:
    Molecular point group: c1

    Geometry (in Angstrom), charge = 0, multiplicity = 1:

    O            0.315146431118     1.551907096715     0.096082450558
    C            0.235291528712     0.380064715160     0.000093607980
    C           -1.082620056073    -0.356237346344    -0.111854197966
    O            1.353464191704    -0.341044944282    -0.075473315191
    C           -2.281650606573     0.578838703680    -0.079417549522
    H           -1.064330098094    -0.925423766133    -1.035559823469
    H           -1.148848521818    -1.084716374650     0.688747591889
    H           -2.239506487229     1.291515997567    -0.891131723653
    H           -3.198074898056     0.008034211613    -0.168072544838
    H           -2.312393758393     1.137452866282     0.845788368895
    C            1.384126519320    -1.726657028156     0.156375541262
    H            1.037350262470    -1.968031254725     1.152930099966
    H            2.417672520948    -2.018829744574     0.067151305023
    H            0.801730675596    -2.274095244437    -0.572546632713

  Mulliken Charges: (a.u.)
   Center  Symbol    Alpha    Beta     Spin     Total
       1     O     4.17894  4.17894  0.00000 -0.35788
       2     C     2.80705  2.80705  0.00000  0.38589
       3     C     3.12193  3.12193  0.00000 -0.24386
       4     O     4.13014  4.13014  0.00000 -0.26028
       5     C     3.13916  3.13916  0.00000 -0.27832
       6     H     0.43918  0.43918  0.00000  0.12163
       7     H     0.44297  0.44297  0.00000  0.11405
       8     H     0.44480  0.44480  0.00000  0.11040
       9     H     0.45143  0.45143  0.00000  0.09714
      10     H     0.44605  0.44605  0.00000  0.10790
      11     C     3.04518  3.04518  0.00000 -0.09036
      12     H     0.45887  0.45887  0.00000  0.08226
      13     H     0.43348  0.43348  0.00000  0.13304
      14     H     0.46081  0.46081  0.00000  0.07838

   Total alpha = 24.00000, Total beta = 24.00000, Total charge = -0.00000

*** Psi4 exiting successfully. Buy a developer a beer!
