  ==> Input File <==

--------------------------------------------------------------------------
set {
	reference rhf
	basis 6-31G*
}

set_num_threads( 4 )
memory 2 gb

molecule MOL {
0 1

H	 -0.602967	 1.838619	 0.251859
O	 0.055946	 1.300438	 -0.164479
C	 0.004957	 -0.004114	 0.366649
C	 1.201664	 -0.828089	 -0.095740
C	 -1.317755	 -0.601827	 -0.081511
H	 0.013527	 0.048298	 1.454924
H	 1.216388	 -0.895289	 -1.178704
H	 2.135132	 -0.372895	 0.226467
H	 1.166770	 -1.832878	 0.313827
H	 -1.355732	 -0.658248	 -1.164429
H	 -2.141614	 0.017037	 0.254547
H	 -1.447303	 -1.600817	 0.322594

	symmetry c1
}
set optking {
	frozen_dihedral = ("
		1 2 3 4
	")
}

ee = optimize('scf')
oeprop('DIPOLE', 'QUADRUPOLE', 'MULLIKEN_CHARGES')
f=open( 'psi4out.xyz', 'w' )
f.write( "12  " )
f.write( str(ee) + "\n" )
f.write( MOL.save_string_xyz() )
f.close()
--------------------------------------------------------------------------

    Molecular point group: c1
  Charge       = 0
  Multiplicity = 1
  Basis Set: 6-31G*
  Basis Set:
  @DF-RHF Final Energy:  -193.11323252051793
    Total Energy =                       -193.1132325205178404
    Molecular point group: c1
  Basis Set: 6-31G*
  Basis Set:
  Basis Set: 6-31G*
  Basis Set:
  @DF-RHF Final Energy:  -193.11489360765816
    Total Energy =                       -193.1148936076580753
  Basis Set: 6-31G*
  Basis Set:
  Basis Set: 6-31G*
  Basis Set:
  @DF-RHF Final Energy:  -193.11524222382880
    Total Energy =                       -193.1152422238288011
  Basis Set: 6-31G*
  Basis Set:
  Basis Set: 6-31G*
  Basis Set:
  @DF-RHF Final Energy:  -193.11524653021891
    Total Energy =                       -193.1152465302188261
  Basis Set: 6-31G*
  Basis Set:
  Charge       = 0
  Multiplicity = 1
  Basis Set: 6-31G*
  Basis Set:

    Orbital Energies (a.u.)
    -----------------------

    Doubly Occupied:

       1A    -20.551111     2A    -11.275686     3A    -11.211555
       4A    -11.206494     5A     -1.360296     6A     -1.041384
       7A     -0.938875     8A     -0.800816     9A     -0.702339
      10A     -0.622229    11A     -0.602949    12A     -0.546776
      13A     -0.536297    14A     -0.526623    15A     -0.509281
      16A     -0.466682    17A     -0.429910

  @DF-RHF Final Energy:  -193.11524724633378

   => Energetics <=

    Nuclear Repulsion Energy =            135.5010450240235684
    One-Electron Energy =                -530.5739798164664762
    Two-Electron Energy =                 201.9576875461091845
    DFT Exchange-Correlation Energy =       0.0000000000000000
    Empirical Dispersion Energy =           0.0000000000000000
    PCM Polarization Energy =               0.0000000000000000
    EFP Energy =                            0.0000000000000000
    Total Energy =                       -193.1152472463336949
    Molecular point group: c1
  Basis Set: 6-31G*
  Basis Set:

  -Total Gradient:
     Atom            X                  Y                   Z
    ------   -----------------  -----------------  -----------------
       1        0.000483145173     0.000141497886     0.000552635235
       2       -0.000511183659    -0.000171833443    -0.000567393291
       3       -0.000221485989    -0.000077338900    -0.000409617674
       4        0.000217753909     0.000104352606     0.000403136163
       5        0.000007452577     0.000016568468     0.000011352135
       6        0.000003029351    -0.000016366195    -0.000019123884
       7       -0.000007237042     0.000008212648    -0.000005904765
       8       -0.000007622060     0.000009830883     0.000021453763
       9        0.000000457956    -0.000002259894    -0.000015159769
      10        0.000009321621     0.000017013285     0.000017695662
      11        0.000023967172    -0.000006378784    -0.000003728698
      12        0.000002400991    -0.000023298563     0.000014655124

  **** Optimization is complete! (in 5 steps) ****
    Final optimized geometry and variables:
    Molecular point group: c1

    Geometry (in Angstrom), charge = 0, multiplicity = 1:

    H           -0.496211676566     1.868786399205     0.224073853181
    O            0.147978738915     1.292816759218    -0.163360456790
    C           -0.001418182679    -0.005929189149     0.364509955440
    C            1.203819899072    -0.805130655837    -0.100832462057
    C           -1.321211060083    -0.624595315450    -0.082118845491
    H            0.013917531587     0.042681472930     1.452850459091
    H            1.225239503694    -0.853758555353    -1.184675879912
    H            2.119283199184    -0.332208557210     0.235174781455
    H            1.171766948883    -1.817095377075     0.290285549926
    H           -1.360151287064    -0.684875907674    -1.164784458107
    H           -2.163635972712    -0.024150151530     0.251878583065
    H           -1.444095717779    -1.623219421902     0.326058391830

  Mulliken Charges: (a.u.)
   Center  Symbol    Alpha    Beta     Spin     Total
       1     H     0.28242  0.28242  0.00000  0.43515
       2     O     4.37146  4.37146  0.00000 -0.74292
       3     C     2.92021  2.92021  0.00000  0.15958
       4     C     3.23924  3.23924  0.00000 -0.47848
       5     C     3.24546  3.24546  0.00000 -0.49091
       6     H     0.43080  0.43080  0.00000  0.13839
       7     H     0.41494  0.41494  0.00000  0.17013
       8     H     0.41189  0.41189  0.00000  0.17623
       9     H     0.42332  0.42332  0.00000  0.15337
      10     H     0.41377  0.41377  0.00000  0.17247
      11     H     0.42508  0.42508  0.00000  0.14983
      12     H     0.42141  0.42141  0.00000  0.15717

   Total alpha = 17.00000, Total beta = 17.00000, Total charge = -0.00000
