  ==> Input File <==

--------------------------------------------------------------------------
set {
	reference rhf
	basis 6-31G*
}

set_num_threads( 1 )
memory 2 gb

molecule MOL {
0 1

H	 -2.899109	 -0.123919	 -0.671385
O	 -2.347518	 -0.290803	 0.079804
C	 -1.184022	 0.487508	 -0.006784
C	 0.062599	 -0.378592	 0.031606
H	 -1.176523	 1.099369	 -0.904519
H	 -1.187323	 1.153111	 0.844927
O	 1.171513	 0.459272	 -0.058250
H	 0.050699	 -1.089204	 -0.797170
H	 0.078739	 -0.954914	 0.954740
C	 2.397842	 -0.198080	 -0.002151
H	 2.508049	 -0.905315	 -0.822092
H	 3.173794	 0.550865	 -0.078850
H	 2.517602	 -0.735921	 0.936026

	symmetry c1
}
set optking {
	frozen_dihedral = ("
		8 4 3 5,
		10 7 4 8,
		4 7 10 13
	")
}

ee = energy('scf')
oeprop('DIPOLE', 'QUADRUPOLE', 'MULLIKEN_CHARGES')
f=open( 'psi4out.xyz', 'w' )
f.write( "13  " )
f.write( str(ee) + "\n" )
f.write( MOL.save_string_xyz() )
f.close()
--------------------------------------------------------------------------

    Molecular point group: c1

    Geometry (in Angstrom), charge = 0, multiplicity = 1:

       Center              X                  Y                   Z               Mass
    ------------   -----------------  -----------------  -----------------  -----------------
           H         -2.893808017705    -0.131951351579    -0.672361576231     1.007825032070
           O         -2.342217017705    -0.298835351579     0.078827423769    15.994914619560
           C         -1.178721017705     0.479475648421    -0.007760576231    12.000000000000
           C          0.067899982295    -0.386624351579     0.030629423769    12.000000000000
           H         -1.171222017705     1.091336648421    -0.905495576231     1.007825032070
           H         -1.182022017705     1.145078648421     0.843950423769     1.007825032070
           O          1.176813982295     0.451239648421    -0.059226576231    15.994914619560
           H          0.055999982295    -1.097236351579    -0.798146576231     1.007825032070
           H          0.084039982295    -0.962946351579     0.953763423769     1.007825032070
           C          2.403142982295    -0.206112351579    -0.003127576231    12.000000000000
           H          2.513349982295    -0.913347351579    -0.823068576231     1.007825032070
           H          3.179094982295     0.542832648421    -0.079826576231     1.007825032070
           H          2.522902982295    -0.743953351579     0.935049423769     1.007825032070

  Charge       = 0
  Multiplicity = 1
  Basis Set: 6-31G*
  Basis Set:

    Orbital Energies (a.u.)
    -----------------------

    Doubly Occupied:

       1A    -20.559915     2A    -20.557841     3A    -11.268581
       4A    -11.268313     5A    -11.267508     6A     -1.386299
       7A     -1.363676     8A     -1.017226     9A     -0.911768
      10A     -0.834246    11A     -0.711774    12A     -0.676736
      13A     -0.647754    14A     -0.641075    15A     -0.605360
      16A     -0.552785    17A     -0.545703    18A     -0.491385
      19A     -0.477644    20A     -0.436099    21A     -0.418734

  @DF-RHF Final Energy:  -267.94895702928341

   => Energetics <=

    Nuclear Repulsion Energy =            189.9578610489625419
    One-Electron Energy =                -742.5327161365856909
    Two-Electron Energy =                 284.6258980583397715
    DFT Exchange-Correlation Energy =       0.0000000000000000
    Empirical Dispersion Energy =           0.0000000000000000
    PCM Polarization Energy =               0.0000000000000000
    EFP Energy =                            0.0000000000000000
    Total Energy =                       -267.9489570292834060

  Mulliken Charges: (a.u.)
   Center  Symbol    Alpha    Beta     Spin     Total
       1     H     0.27760  0.27760  0.00000  0.44479
       2     O     4.37470  4.37470  0.00000 -0.74940
       3     C     3.00451  3.00451  0.00000 -0.00901
       4     C     2.99281  2.99281  0.00000  0.01438
       5     H     0.42369  0.42369  0.00000  0.15262
       6     H     0.41597  0.41597  0.00000  0.16807
       7     O     4.30844  4.30844  0.00000 -0.61687
       8     H     0.43054  0.43054  0.00000  0.13893
       9     H     0.42410  0.42410  0.00000  0.15179
      10     C     3.07949  3.07949  0.00000 -0.15899
      11     H     0.42895  0.42895  0.00000  0.14210
      12     H     0.41137  0.41137  0.00000  0.17727
      13     H     0.42784  0.42784  0.00000  0.14432

   Total alpha = 21.00000, Total beta = 21.00000, Total charge = -0.00000
