  ==> Input File <==

--------------------------------------------------------------------------
set {
	reference rhf
	basis 6-31G*
}

set_num_threads( 4 )
memory 2 gb

molecule MOL {
0 1

O	 -2.651064	 -0.329227	 0.808312
C	 -1.687179	 -0.497065	 1.491826
C	 -0.436870	 -1.148959	 0.927853
C	 -1.648145	 -0.044073	 2.934272
C	 0.379448	 -0.143569	 0.099626
H	 -0.751866	 -1.969704	 0.292668
H	 0.175921	 -1.555736	 1.727257
C	 1.631333	 -0.777471	 -0.511575
H	 -0.263591	 0.256410	 -0.676197
H	 0.673345	 0.695733	 0.728071
C	 2.915987	 -0.544314	 0.291766
H	 1.766672	 -0.399098	 -1.523130
H	 1.471257	 -1.849544	 -0.605828
C	 3.373361	 0.914346	 0.347591
H	 3.708709	 -1.142521	 -0.150311
H	 2.780642	 -0.921148	 1.303579
H	 3.506512	 1.320010	 -0.651625
H	 4.322697	 0.999599	 0.867103
H	 2.660624	 1.545032	 0.868198
H	 -1.583449	 -0.910284	 3.587538
H	 -2.541252	 0.517574	 3.170276
H	 -0.768643	 0.564965	 3.122296

	symmetry c1
}
set optking {
	frozen_dihedral = ("
		3 5 8 12
	")
}

ee = optimize('scf')
oeprop('DIPOLE', 'QUADRUPOLE', 'MULLIKEN_CHARGES')
f=open( 'psi4out.xyz', 'w' )
f.write( "22  " )
f.write( str(ee) + "\n" )
f.write( MOL.save_string_xyz() )
f.close()
--------------------------------------------------------------------------

    Molecular point group: c1
  Charge       = 0
  Multiplicity = 1
  Basis Set: 6-31G*
  Basis Set:
  @DF-RHF Final Energy:  -348.09370467006585
    Total Energy =                       -348.0937046700660744
    Molecular point group: c1
  Basis Set: 6-31G*
  Basis Set:
  Basis Set: 6-31G*
  Basis Set:
  @DF-RHF Final Energy:  -348.09398651627311
    Total Energy =                       -348.0939865162732190
  Basis Set: 6-31G*
  Basis Set:
  Basis Set: 6-31G*
  Basis Set:
  @DF-RHF Final Energy:  -348.09420342491740
    Total Energy =                       -348.0942034249172252
  Basis Set: 6-31G*
  Basis Set:
  Basis Set: 6-31G*
  Basis Set:
  @DF-RHF Final Energy:  -348.09422344812248
    Total Energy =                       -348.0942234481224773
  Basis Set: 6-31G*
  Basis Set:
  @DF-RHF Final Energy:  -348.09428314636273
    Total Energy =                       -348.0942831463629545
  @DF-RHF Final Energy:  -348.09430181169699
    Total Energy =                       -348.0943018116972780
  @DF-RHF Final Energy:  -348.09430885663392
    Total Energy =                       -348.0943088566338588
  @DF-RHF Final Energy:  -348.09431191114351
    Total Energy =                       -348.0943119111436772
  @DF-RHF Final Energy:  -348.09430031626971
    Total Energy =                       -348.0943003162697096
  Basis Set: 6-31G*
  Basis Set:
  @DF-RHF Final Energy:  -348.09431343220240
    Total Energy =                       -348.0943134322025685
  Basis Set: 6-31G*
  Basis Set:
  Basis Set: 6-31G*
  Basis Set:
  @DF-RHF Final Energy:  -348.09431347973543
    Total Energy =                       -348.0943134797355469
  Basis Set: 6-31G*
  Basis Set:
  Basis Set: 6-31G*
  Basis Set:
  @DF-RHF Final Energy:  -348.09431471294499
    Total Energy =                       -348.0943147129453905
  Basis Set: 6-31G*
  Basis Set:
  Charge       = 0
  Multiplicity = 1
  Basis Set: 6-31G*
  Basis Set:

    Orbital Energies (a.u.)
    -----------------------

    Doubly Occupied:

       1A    -20.547454     2A    -11.324212     3A    -11.230097
       4A    -11.229219     5A    -11.228191     6A    -11.223476
       7A    -11.222539     8A    -11.214458     9A     -1.393059
      10A     -1.095564    11A     -1.044418    12A     -0.999464
      13A     -0.938726    14A     -0.861177    15A     -0.785568
      16A     -0.735284    17A     -0.660847    18A     -0.648840
      19A     -0.625074    20A     -0.611910    21A     -0.603032
      22A     -0.583115    23A     -0.561136    24A     -0.549465
      25A     -0.529089    26A     -0.524937    27A     -0.504235
      28A     -0.487191    29A     -0.467245    30A     -0.463165
      31A     -0.461125    32A     -0.396551

  @DF-RHF Final Energy:  -348.09431497793332

   => Energetics <=

    Nuclear Repulsion Energy =            375.2826877595189217
    One-Electron Energy =               -1215.2542749273056870
    Two-Electron Energy =                 491.8772721898535565
    DFT Exchange-Correlation Energy =       0.0000000000000000
    Empirical Dispersion Energy =           0.0000000000000000
    PCM Polarization Energy =               0.0000000000000000
    EFP Energy =                            0.0000000000000000
    Total Energy =                       -348.0943149779332089
    Molecular point group: c1
  Basis Set: 6-31G*
  Basis Set:

  -Total Gradient:
     Atom            X                  Y                   Z
    ------   -----------------  -----------------  -----------------
       1        0.000001415986     0.000003403507    -0.000005833940
       2        0.000000208654     0.000005547727     0.000008819348
       3       -0.001129572224    -0.000542231570    -0.001855311305
       4       -0.000014517501    -0.000021250576     0.000004294978
       5        0.001174247873     0.000185569873     0.002290704185
       6       -0.000001263307    -0.000000100383     0.000000384193
       7        0.000000281660     0.000000447432    -0.000001202793
       8        0.001613726941     0.002702413733     0.000749737340
       9       -0.000000114394    -0.000001279123    -0.000000828442
      10       -0.000002173525     0.000001983318    -0.000001768333
      11        0.000003196557    -0.000001051709    -0.000005116161
      12       -0.001656401158    -0.002347379271    -0.001177020144
      13        0.000001928056    -0.000000133456    -0.000003818937
      14       -0.000002039227    -0.000000586548    -0.000000116474
      15       -0.000001630397    -0.000004007256     0.000000679868
      16        0.000000210890     0.000002086637     0.000001566993
      17        0.000002240285     0.000000870966    -0.000001241540
      18       -0.000002303158    -0.000001139865     0.000000562434
      19        0.000000808929     0.000002024058     0.000000611655
      20        0.000006154366     0.000006396211     0.000000282309
      21        0.000002048566     0.000002693240    -0.000001831873
      22        0.000003546126     0.000005723057    -0.000003553358

  **** Optimization is complete! (in 13 steps) ****
    Final optimized geometry and variables:
    Molecular point group: c1

    Geometry (in Angstrom), charge = 0, multiplicity = 1:

    O           -2.928211646373    -0.066884857190     0.040041965655
    C           -1.937711868086    -0.213258684058     0.689531468551
    C           -0.698590285808    -0.851809034242     0.088272897936
    C           -1.856631536361     0.248095243620     2.128054670394
    C            0.118201042184     0.179763883459    -0.709307421759
    H           -1.024154242345    -1.642484107754    -0.577787360599
    H           -0.084157390212    -1.295353975580     0.867401223003
    C            1.401368723681    -0.420741932961    -1.316314696250
    H           -0.521315877624     0.565021953816    -1.496068759672
    H            0.362891183785     1.027493221162    -0.075115517130
    C            2.668979844365    -0.210083760367    -0.479614809619
    H            1.552451042619    -0.024922808762    -2.317209810002
    H            1.249933231855    -1.488620177487    -1.455188485418
    C            3.200053246085     1.224220082481    -0.502246702561
    H            3.445987385238    -0.873608503923    -0.850098360350
    H            2.479763726660    -0.512747723713     0.548786654360
    H            3.446837116748     1.528959416227    -1.515271983742
    H            4.100056710674     1.313436116440     0.098211804648
    H            2.477333324686     1.934191602279    -0.112730442278
    H           -1.782791406336    -0.616015534727     2.783171259604
    H           -2.739710498622     0.816695982974     2.384271431282
    H           -0.968517213276     0.851153957729     2.292159916162

  Mulliken Charges: (a.u.)
   Center  Symbol    Alpha    Beta     Spin     Total
       1     O     4.26216  4.26216  0.00000 -0.52432
       2     C     2.73723  2.73723  0.00000  0.52554
       3     C     3.20143  3.20143  0.00000 -0.40287
       4     C     3.28955  3.28955  0.00000 -0.57910
       5     C     3.16583  3.16583  0.00000 -0.33165
       6     H     0.40055  0.40055  0.00000  0.19889
       7     H     0.41671  0.41671  0.00000  0.16657
       8     C     3.15727  3.15727  0.00000 -0.31454
       9     H     0.40403  0.40403  0.00000  0.19194
      10     H     0.41825  0.41825  0.00000  0.16349
      11     C     3.15459  3.15459  0.00000 -0.30918
      12     H     0.41690  0.41690  0.00000  0.16620
      13     H     0.41851  0.41851  0.00000  0.16298
      14     C     3.24051  3.24051  0.00000 -0.48102
      15     H     0.41871  0.41871  0.00000  0.16257
      16     H     0.42454  0.42454  0.00000  0.15091
      17     H     0.42006  0.42006  0.00000  0.15988
      18     H     0.41816  0.41816  0.00000  0.16369
      19     H     0.42119  0.42119  0.00000  0.15762
      20     H     0.40667  0.40667  0.00000  0.18666
      21     H     0.39700  0.39700  0.00000  0.20600
      22     H     0.41014  0.41014  0.00000  0.17971

   Total alpha = 32.00000, Total beta = 32.00000, Total charge = -0.00000
