                              Psi4 1.0.54 Driver

  ==> Input File <==

--------------------------------------------------------------------------
set {
	reference rhf
	basis cc-pvtz
}

set_num_threads( 4 )
memory 2 gb

molecule MOL {
0 1

H	 3.459101	 0.139266	 -0.762951
C	 2.749156	 -0.051729	 0.031265
C	 1.322304	 0.099773	 -0.484271
H	 2.929445	 -1.053887	 0.403481
H	 2.954281	 0.646699	 0.834672
C	 0.308557	 -0.162619	 0.622645
H	 1.143368	 -0.594400	 -1.295960
H	 1.169532	 1.100095	 -0.870217
N	 -1.069352	 -0.004081	 0.085342
H	 0.371632	 -1.172932	 0.991288
H	 0.400391	 0.548875	 1.426218
O	 -1.923725	 -0.658518	 0.581664
O	 -1.215278	 0.744335	 -0.822139

	symmetry c1
}
set optking {
	frozen_dihedral = ("
		12 9 6 3
	")
}

ee,wfn = optimize('scf', return_wfn=True)
oeprop( wfn, 'DIPOLE', 'QUADRUPOLE', 'MULLIKEN_CHARGES')
f=open( 'psi4out.xyz', 'w' )
f.write( "13  " )
f.write( str(ee) + "\n" )
f.write( MOL.save_string_xyz() )
f.close()
--------------------------------------------------------------------------

    Molecular point group: c1
  Charge       = 0
  Multiplicity = 1
  Basis Set: CC-PVTZ
  Basis Set:
  @DF-RHF Final Energy:  -321.85922967783250
    Total Energy =                       -321.8592296778324453
    Molecular point group: c1
  Basis Set: CC-PVTZ
  Basis Set:
  Basis Set: CC-PVTZ
  Basis Set:
  @DF-RHF Final Energy:  -321.58669187908504
    Total Energy =                       -321.5866918790848672
  Basis Set: CC-PVTZ
  Basis Set:
  Basis Set: CC-PVTZ
  Basis Set:
  @DF-RHF Final Energy:  -321.73781394720504
    Total Energy =                       -321.7378139472050407
  Basis Set: CC-PVTZ
  Basis Set:
  Basis Set: CC-PVTZ
  Basis Set:
  @DF-RHF Final Energy:  -321.84256364415995
    Total Energy =                       -321.8425636441598954
  Basis Set: CC-PVTZ
  Basis Set:
  @DF-RHF Final Energy:  -321.85513832676645
    Total Energy =                       -321.8551383267663368
  @DF-RHF Final Energy:  -321.85929779107232
    Total Energy =                       -321.8592977910720947
  @DF-RHF Final Energy:  -321.85885850292868
    Total Energy =                       -321.8588585029287401
  @DF-RHF Final Energy:  -321.86046690154473
    Total Energy =                       -321.8604669015450099
  Basis Set: CC-PVTZ
  Basis Set:
  @DF-RHF Final Energy:  -321.86065948859925
    Total Energy =                       -321.8606594885993104
  Basis Set: CC-PVTZ
  Basis Set:
  Basis Set: CC-PVTZ
  Basis Set:
  @DF-RHF Final Energy:  -321.86073686225791
    Total Energy =                       -321.8607368622579088
  Basis Set: CC-PVTZ
  Basis Set:
  Basis Set: CC-PVTZ
  Basis Set:
  @DF-RHF Final Energy:  -321.86073832930009
    Total Energy =                       -321.8607383293000339
  Basis Set: CC-PVTZ
  Basis Set:
  Charge       = 0
  Multiplicity = 1
  Basis Set: CC-PVTZ
  Basis Set:

    Orbital Energies (a.u.)
    -----------------------

    Doubly Occupied:

       1A    -20.591435     2A    -20.590160     3A    -15.838199
       4A    -11.298737     5A    -11.248316     6A    -11.235315
       7A     -1.637077     8A     -1.421129     9A     -1.132044
      10A     -1.026985    11A     -0.884778    12A     -0.828362
      13A     -0.763666    14A     -0.748306    15A     -0.730613
      16A     -0.661300    17A     -0.606428    18A     -0.579677
      19A     -0.552422    20A     -0.522344    21A     -0.509972
      22A     -0.487664    23A     -0.474424    24A     -0.454396

  @DF-RHF Final Energy:  -321.86073847577336

   => Energetics <=

    Nuclear Repulsion Energy =            247.6477616970893223
    One-Electron Energy =                -929.3695006705468131
    Two-Electron Energy =                 359.8610004976843584
    DFT Exchange-Correlation Energy =       0.0000000000000000
    Empirical Dispersion Energy =           0.0000000000000000
    PCM Polarization Energy =               0.0000000000000000
    EFP Energy =                            0.0000000000000000
    Total Energy =                       -321.8607384757731324
    Molecular point group: c1
  Basis Set: CC-PVTZ
  Basis Set:

  -Total Gradient:
     Atom            X                  Y                   Z
    ------   -----------------  -----------------  -----------------
       1        0.000000732377    -0.000004811470     0.000007771291
       2        0.000000730293    -0.000014348438    -0.000015549915
       3        0.000094685713     0.000260360878     0.000196521010
       4        0.000004189034     0.000005015967     0.000000540087
       5       -0.000007511780     0.000003827672    -0.000006165457
       6       -0.000067418808    -0.000285894612    -0.000126662967
       7        0.000000691989    -0.000002549781     0.000004746431
       8        0.000001562673    -0.000014496003     0.000008697454
       9       -0.000124849344    -0.000055921431    -0.000456517853
      10        0.000006304975     0.000012228410    -0.000004716298
      11       -0.000003823595     0.000000106958    -0.000012824373
      12        0.000089508193     0.000192679146     0.000364255093
      13        0.000005198282    -0.000096197300     0.000039905498

  **** Optimization is complete! (in 12 steps) ****
    Final optimized geometry and variables:
    Molecular point group: c1

    Geometry (in Angstrom), charge = 0, multiplicity = 1:

    H            2.744996366639     0.650706256312    -2.209016310982
    C            2.436433399720     0.124637223695    -1.315076004771
    C            0.968199489529     0.409410705323    -1.012078936311
    H            2.612400449310    -0.933109361067    -1.476013908436
    H            3.077412897957     0.449560961212    -0.502801415765
    C            0.528082824218    -0.327616170670     0.238204829370
    H            0.350804772308     0.098183516898    -1.846607846967
    H            0.810186878162     1.469647187148    -0.880551078163
    N           -0.911782656489    -0.115377819868     0.571181314860
    H            0.646063193762    -1.395331611914     0.162300808874
    H            1.059219892890     0.017631780548     1.115258518003
    O           -1.463010153468    -1.002525242054     1.130887731807
    O           -1.401296748788     0.926149624928     0.291480062781

  Mulliken Charges: (a.u.)
   Center  Symbol    Alpha    Beta     Spin     Total
       1     H     0.44135  0.44135  0.00000  0.11730
       2     C     3.15222  3.15222  0.00000 -0.30443
       3     C     3.09323  3.09323  0.00000 -0.18647
       4     H     0.45268  0.45268  0.00000  0.09465
       5     H     0.45284  0.45284  0.00000  0.09433
       6     C     3.04419  3.04419  0.00000 -0.08838
       7     H     0.44325  0.44325  0.00000  0.11349
       8     H     0.43453  0.43453  0.00000  0.13095
       9     N     3.27479  3.27479  0.00000  0.45042
      10     H     0.43176  0.43176  0.00000  0.13647
      11     H     0.43639  0.43639  0.00000  0.12722
      12     O     4.17169  4.17169  0.00000 -0.34338
      13     O     4.17108  4.17108  0.00000 -0.34217

   Total alpha = 24.00000, Total beta = 24.00000, Total charge =  0.00000

*** Psi4 exiting successfully. Buy a developer a beer!
