  ==> Input File <==

--------------------------------------------------------------------------
set {
	reference rhf
	basis 6-31G*
}

set_num_threads( 1 )
memory 2 gb

molecule MOL {
0 1

H	 2.335974	 -0.112656	 0.156949
O	 1.586534	 -0.678666	 -0.000226
C	 0.489431	 0.077273	 0.000046
C	 -0.764129	 -0.759190	 0.000191
O	 0.537743	 1.263962	 0.000257
C	 -2.038368	 0.075731	 -0.000248
H	 -0.717284	 -1.412404	 -0.866059
H	 -0.717458	 -1.411724	 0.866967
H	 -2.086483	 0.712501	 -0.875098
H	 -2.908485	 -0.571682	 -0.000042
H	 -2.086576	 0.713280	 0.874068

	symmetry c1
}
set optking {
	frozen_dihedral = ("
		2 3 4 7
	")
}

ee = energy('scf')
oeprop('DIPOLE', 'QUADRUPOLE', 'MULLIKEN_CHARGES')
f=open( 'psi4out.xyz', 'w' )
f.write( "11  " )
f.write( str(ee) + "\n" )
f.write( MOL.save_string_xyz() )
f.close()
--------------------------------------------------------------------------

    Molecular point group: c1

    Geometry (in Angstrom), charge = 0, multiplicity = 1:

       Center              X                  Y                   Z               Mass
    ------------   -----------------  -----------------  -----------------  -----------------
           H          2.336079837887    -0.112501285953     0.154809851171     1.007825032070
           O          1.586639837887    -0.678511285953    -0.002365148829    15.994914619560
           C          0.489536837887     0.077427714047    -0.002093148829    12.000000000000
           C         -0.764023162113    -0.759035285953    -0.001948148829    12.000000000000
           O          0.537848837887     1.264116714047    -0.001882148829    15.994914619560
           C         -2.038262162113     0.075885714047    -0.002387148829    12.000000000000
           H         -0.717178162113    -1.412249285953    -0.868198148829     1.007825032070
           H         -0.717352162113    -1.411569285953     0.864827851171     1.007825032070
           H         -2.086377162113     0.712655714047    -0.877237148829     1.007825032070
           H         -2.908379162113    -0.571527285953    -0.002181148829     1.007825032070
           H         -2.086470162113     0.713434714047     0.871928851171     1.007825032070

  Charge       = 0
  Multiplicity = 1
  Basis Set: 6-31G*
  Basis Set:

    Orbital Energies (a.u.)
    -----------------------

    Doubly Occupied:

       1A    -20.613355     2A    -20.552989     3A    -11.382097
       4A    -11.244149     5A    -11.220425     6A     -1.475670
       7A     -1.367050     8A     -1.065266     9A     -0.916934
      10A     -0.801332    11A     -0.702043    12A     -0.690563
      13A     -0.662601    14A     -0.598829    15A     -0.589641
      16A     -0.532093    17A     -0.525909    18A     -0.505261
      19A     -0.480140    20A     -0.445973

  @DF-RHF Final Energy:  -266.84552297614164

   => Energetics <=

    Nuclear Repulsion Energy =            179.7839598424123722
    One-Electron Energy =                -720.5143203256566267
    Two-Electron Energy =                 273.8848375071028158
    DFT Exchange-Correlation Energy =       0.0000000000000000
    Empirical Dispersion Energy =           0.0000000000000000
    PCM Polarization Energy =               0.0000000000000000
    EFP Energy =                            0.0000000000000000
    Total Energy =                       -266.8455229761414103

  Mulliken Charges: (a.u.)
   Center  Symbol    Alpha    Beta     Spin     Total
       1     H     0.26750  0.26750  0.00000  0.46500
       2     O     4.35045  4.35045  0.00000 -0.70091
       3     C     2.62539  2.62539  0.00000  0.74922
       4     C     3.20818  3.20818  0.00000 -0.41637
       5     O     4.27803  4.27803  0.00000 -0.55605
       6     C     3.23950  3.23950  0.00000 -0.47901
       7     H     0.39782  0.39782  0.00000  0.20436
       8     H     0.39843  0.39843  0.00000  0.20315
       9     H     0.40880  0.40880  0.00000  0.18240
      10     H     0.41669  0.41669  0.00000  0.16662
      11     H     0.40921  0.40921  0.00000  0.18158

   Total alpha = 20.00000, Total beta = 20.00000, Total charge = -0.00000
