  ==> Input File <==

--------------------------------------------------------------------------
set {
	reference rhf
	basis 6-31G*
}

set_num_threads( 4 )
memory 2 gb

molecule MOL {
0 1

H	 -1.266996	 -0.590427	 0.756254
N	 -0.626943	 -0.667432	 -0.000092
C	 -0.915411	 -1.623227	 -1.045060
C	 0.469286	 0.129090	 0.000148
H	 -0.966436	 -2.630957	 -0.646459
H	 -0.122915	 -1.574916	 -1.773994
H	 -1.856943	 -1.393830	 -1.532836
C	 1.788933	 -0.616240	 -0.000037
O	 0.411098	 1.327768	 -0.000049
H	 1.872803	 -1.245775	 -0.880381
H	 2.595421	 0.101576	 0.003713
H	 1.870096	 -1.252171	 0.875943

	symmetry c1
}
set optking {
	frozen_dihedral = ("
		3 2 4 9
	")
}

ee = optimize('scf')
oeprop('DIPOLE', 'QUADRUPOLE', 'MULLIKEN_CHARGES')
f=open( 'psi4out.xyz', 'w' )
f.write( "12  " )
f.write( str(ee) + "\n" )
f.write( MOL.save_string_xyz() )
f.close()
--------------------------------------------------------------------------

    Molecular point group: c1
  Charge       = 0
  Multiplicity = 1
  Basis Set: 6-31G*
  Basis Set:
  @DF-RHF Final Energy:  -246.97274355832900
    Total Energy =                       -246.9727435583291708
    Molecular point group: c1
  Basis Set: 6-31G*
  Basis Set:
  Basis Set: 6-31G*
  Basis Set:
  @DF-RHF Final Energy:  -246.98030955468869
    Total Energy =                       -246.9803095546888017
  Basis Set: 6-31G*
  Basis Set:
  Basis Set: 6-31G*
  Basis Set:
  @DF-RHF Final Energy:  -246.98615585652396
    Total Energy =                       -246.9861558565239648
  Basis Set: 6-31G*
  Basis Set:
  Basis Set: 6-31G*
  Basis Set:
  @DF-RHF Final Energy:  -246.99080266977120
    Total Energy =                       -246.9908026697710284
  Basis Set: 6-31G*
  Basis Set:
  @DF-RHF Final Energy:  -246.99163672561664
    Total Energy =                       -246.9916367256166154
  @DF-RHF Final Energy:  -246.99235879918285
    Total Energy =                       -246.9923587991830232
  @DF-RHF Final Energy:  -246.99302748867879
    Total Energy =                       -246.9930274886788766
  @DF-RHF Final Energy:  -246.99349655067110
    Total Energy =                       -246.9934965506708977
  @DF-RHF Final Energy:  -246.99409704715740
    Total Energy =                       -246.9940970471570836
  @DF-RHF Final Energy:  -246.99423795428228
    Total Energy =                       -246.9942379542820845
  @DF-RHF Final Energy:  -246.99431191114601
    Total Energy =                       -246.9943119111460419
  Basis Set: 6-31G*
  Basis Set:
  @DF-RHF Final Energy:  -246.99436537142847
    Total Energy =                       -246.9943653714285574
  Basis Set: 6-31G*
  Basis Set:
  Basis Set: 6-31G*
  Basis Set:
  @DF-RHF Final Energy:  -246.99439676939124
    Total Energy =                       -246.9943967693911873
  Basis Set: 6-31G*
  Basis Set:
  Basis Set: 6-31G*
  Basis Set:
  @DF-RHF Final Energy:  -246.99440492904847
    Total Energy =                       -246.9944049290483008
  Basis Set: 6-31G*
  Basis Set:
  Charge       = 0
  Multiplicity = 1
  Basis Set: 6-31G*
  Basis Set:

    Orbital Energies (a.u.)
    -----------------------

    Doubly Occupied:

       1A    -20.537442     2A    -15.572390     3A    -11.348670
       4A    -11.267939     5A    -11.230424     6A     -1.400506
       7A     -1.225161     8A     -1.007687     9A     -0.945838
      10A     -0.771539    11A     -0.676736    12A     -0.663241
      13A     -0.634048    14A     -0.597913    15A     -0.577662
      16A     -0.565683    17A     -0.549285    18A     -0.505435
      19A     -0.429655    20A     -0.394797

  @DF-RHF Final Energy:  -246.99440563645436

   => Energetics <=

    Nuclear Repulsion Energy =            181.2498555359507577
    One-Electron Energy =                -694.6844249851600352
    Two-Electron Energy =                 266.4401638127549177
    DFT Exchange-Correlation Energy =       0.0000000000000000
    Empirical Dispersion Energy =           0.0000000000000000
    PCM Polarization Energy =               0.0000000000000000
    EFP Energy =                            0.0000000000000000
    Total Energy =                       -246.9944056364543030
    Molecular point group: c1
  Basis Set: 6-31G*
  Basis Set:

  -Total Gradient:
     Atom            X                  Y                   Z
    ------   -----------------  -----------------  -----------------
       1        0.000021751964     0.000040379160    -0.000022190685
       2        0.006147865679    -0.006963743846    -0.000190293296
       3       -0.004561042943     0.004763215924    -0.002550481593
       4       -0.000135587036     0.001605303953     0.011610277981
       5        0.000000314173    -0.000005562437    -0.000001723585
       6       -0.000004754215    -0.000004263492    -0.000002718607
       7        0.000000645487     0.000000520914     0.000018895521
       8       -0.000015245683    -0.000003776121    -0.000049996595
       9       -0.001453010028     0.000577385172    -0.008812026312
      10        0.000005081850    -0.000013117349     0.000007625919
      11       -0.000008774330     0.000008075835    -0.000011543533
      12        0.000002755082    -0.000004417715     0.000004174784

  **** Optimization is complete! (in 15 steps) ****
    Final optimized geometry and variables:
    Molecular point group: c1

    Geometry (in Angstrom), charge = 0, multiplicity = 1:

    H           -1.614558135763    -0.006460516473     0.606388066474
    N           -0.786269358664    -0.505188338576     0.345207185650
    C           -1.059987402842    -1.369959715096    -0.797130143718
    C            0.240225716203     0.426073086460     0.241939293431
    H           -1.900556690282    -2.004808560688    -0.551893925724
    H           -0.212235650688    -2.012183112916    -0.997770375671
    H           -1.296517005294    -0.813044473261    -1.700777161260
    C            1.614157298700    -0.127225437987    -0.062237430270
    O            0.039846962000     1.598319425589     0.355902729669
    H            1.723280919803    -0.268609722169    -1.133569559251
    H            2.355226296236     0.590956458911     0.258531440276
    H            1.778929477460    -1.079527623350     0.425840131555

  Mulliken Charges: (a.u.)
   Center  Symbol    Alpha    Beta     Spin     Total
       1     H     0.31651  0.31651  0.00000  0.36698
       2     N     3.86578  3.86578  0.00000 -0.73156
       3     C     3.15782  3.15782  0.00000 -0.31564
       4     C     2.65877  2.65877  0.00000  0.68247
       5     H     0.40562  0.40562  0.00000  0.18875
       6     H     0.40942  0.40942  0.00000  0.18115
       7     H     0.41608  0.41608  0.00000  0.16783
       8     C     3.29235  3.29235  0.00000 -0.58470
       9     O     4.27631  4.27631  0.00000 -0.55263
      10     H     0.40419  0.40419  0.00000  0.19162
      11     H     0.39327  0.39327  0.00000  0.21345
      12     H     0.40386  0.40386  0.00000  0.19228

   Total alpha = 20.00000, Total beta = 20.00000, Total charge =  0.00000
