  ==> Input File <==

--------------------------------------------------------------------------
set {
	reference rhf
	basis 6-31G*
}

set_num_threads( 1 )
memory 2 gb

molecule MOL {
0 1

O	 -0.682937	 1.318834	 -0.186099
C	 -0.860635	 0.152188	 -0.042321
C	 -2.173363	 -0.477127	 0.338347
O	 0.083258	 -0.765189	 -0.202595
H	 -2.477673	 -1.180929	 -0.427595
H	 -2.923125	 0.290956	 0.455536
H	 -2.058825	 -1.029004	 1.264191
C	 0.871714	 -1.131578	 0.927402
C	 0.177055	 -2.182422	 1.773464
H	 1.095821	 -0.247867	 1.505305
H	 1.787832	 -1.518279	 0.504685
H	 0.831880	 -2.495403	 2.580915
H	 -0.733346	 -1.788419	 2.207399
H	 -0.066677	 -3.053733	 1.175278

	symmetry c1
}
set optking {
	frozen_dihedral = ("
		10 8 4 2
	")
}

ee = energy('scf')
oeprop('DIPOLE', 'QUADRUPOLE', 'MULLIKEN_CHARGES')
f=open( 'psi4out.xyz', 'w' )
f.write( "14  " )
f.write( str(ee) + "\n" )
f.write( MOL.save_string_xyz() )
f.close()
--------------------------------------------------------------------------

    Molecular point group: c1

    Geometry (in Angstrom), charge = 0, multiplicity = 1:

       Center              X                  Y                   Z               Mass
    ------------   -----------------  -----------------  -----------------  -----------------
           O         -0.251441430239     1.840349358149    -0.629968583042    15.994914619560
           C         -0.429139430239     0.673703358149    -0.486190583042    12.000000000000
           C         -1.741867430239     0.044388358149    -0.105522583042    12.000000000000
           O          0.514753569761    -0.243673641851    -0.646464583042    15.994914619560
           H         -2.046177430239    -0.659413641851    -0.871464583042     1.007825032070
           H         -2.491629430239     0.812471358149     0.011666416958     1.007825032070
           H         -1.627329430239    -0.507488641851     0.820321416958     1.007825032070
           C          1.303209569761    -0.610062641851     0.483532416958    12.000000000000
           C          0.608550569761    -1.660906641851     1.329594416958    12.000000000000
           H          1.527316569761     0.273648358149     1.061435416958     1.007825032070
           H          2.219327569761    -0.996763641851     0.060815416958     1.007825032070
           H          1.263375569761    -1.973887641851     2.137045416958     1.007825032070
           H         -0.301850430239    -1.266903641851     1.763529416958     1.007825032070
           H          0.364818569761    -2.532217641851     0.731408416958     1.007825032070

  Charge       = 0
  Multiplicity = 1
  Basis Set: 6-31G*
  Basis Set:

    Orbital Energies (a.u.)
    -----------------------

    Doubly Occupied:

       1A    -20.584715     2A    -20.554198     3A    -11.375997
       4A    -11.300825     5A    -11.232852     6A    -11.232081
       7A     -1.462031     8A     -1.366838     9A     -1.053168
      10A     -1.014313    11A     -0.889238    12A     -0.772527
      13A     -0.696494    14A     -0.689482    15A     -0.667802
      16A     -0.609605    17A     -0.596198    18A     -0.583512
      19A     -0.567260    20A     -0.551987    21A     -0.506590
      22A     -0.485446    23A     -0.454077    24A     -0.438435

  @DF-RHF Final Energy:  -305.84767159095679

   => Energetics <=

    Nuclear Repulsion Energy =            250.0190728165478902
    One-Electron Energy =                -912.3621373047301404
    Two-Electron Energy =                 356.4953928972257131
    DFT Exchange-Correlation Energy =       0.0000000000000000
    Empirical Dispersion Energy =           0.0000000000000000
    PCM Polarization Energy =               0.0000000000000000
    EFP Energy =                            0.0000000000000000
    Total Energy =                       -305.8476715909565087

  Mulliken Charges: (a.u.)
   Center  Symbol    Alpha    Beta     Spin     Total
       1     O     4.25638  4.25638  0.00000 -0.51276
       2     C     2.62986  2.62986  0.00000  0.74027
       3     C     3.28577  3.28577  0.00000 -0.57154
       4     O     4.31121  4.31121  0.00000 -0.62241
       5     H     0.39899  0.39899  0.00000  0.20201
       6     H     0.39913  0.39913  0.00000  0.20175
       7     H     0.40822  0.40822  0.00000  0.18356
       8     C     3.00660  3.00660  0.00000 -0.01321
       9     C     3.25452  3.25452  0.00000 -0.50904
      10     H     0.40912  0.40912  0.00000  0.18176
      11     H     0.40206  0.40206  0.00000  0.19588
      12     H     0.41335  0.41335  0.00000  0.17331
      13     H     0.41692  0.41692  0.00000  0.16616
      14     H     0.40787  0.40787  0.00000  0.18426

   Total alpha = 24.00000, Total beta = 24.00000, Total charge =  0.00000
