  ==> Input File <==

--------------------------------------------------------------------------
set {
	reference rhf
	basis 6-31G*
}

set_num_threads( 1 )
memory 2 gb

molecule MOL {
0 1

H	 -1.779309	 -0.956040	 -0.071111
O	 -2.035884	 -0.060112	 0.102722
C	 -0.955155	 0.788182	 -0.092531
C	 0.353668	 0.040312	 -0.004810
H	 -0.985057	 1.290372	 -1.054184
H	 -0.974469	 1.533190	 0.688632
F	 0.394464	 -0.937475	 -0.903053
F	 1.368604	 0.853376	 -0.249821
F	 0.546173	 -0.502608	 1.179981

	symmetry c1
}
set optking {
	frozen_dihedral = ("
		7 4 3 5
	")
}

ee = energy('scf')
oeprop('DIPOLE', 'QUADRUPOLE', 'MULLIKEN_CHARGES')
f=open( 'psi4out.xyz', 'w' )
f.write( "9  " )
f.write( str(ee) + "\n" )
f.write( MOL.save_string_xyz() )
f.close()
--------------------------------------------------------------------------

    Molecular point group: c1

    Geometry (in Angstrom), charge = 0, multiplicity = 1:

       Center              X                  Y                   Z               Mass
    ------------   -----------------  -----------------  -----------------  -----------------
           H         -1.782530215937    -0.953201195576    -0.076608726680     1.007825032070
           O         -2.039105215937    -0.057273195576     0.097224273320    15.994914619560
           C         -0.958376215937     0.791020804424    -0.098028726680    12.000000000000
           C          0.350446784063     0.043150804424    -0.010307726680    12.000000000000
           H         -0.988278215937     1.293210804424    -1.059681726680     1.007825032070
           H         -0.977690215937     1.536028804424     0.683134273320     1.007825032070
           F          0.391242784063    -0.934636195576    -0.908550726680    18.998403224000
           F          1.365382784063     0.856214804424    -0.255318726680    18.998403224000
           F          0.542951784063    -0.499769195576     1.174483273320    18.998403224000

  Charge       = 0
  Multiplicity = 1
  Basis Set: 6-31G*
  Basis Set:

    Orbital Energies (a.u.)
    -----------------------

    Doubly Occupied:

       1A    -26.352146     2A    -26.349375     3A    -26.348543
       4A    -20.587428     5A    -11.508560     6A    -11.309174
       7A     -1.748347     8A     -1.646504     9A     -1.645267
      10A     -1.401645    11A     -1.050556    12A     -0.929423
      13A     -0.838068    14A     -0.836730    15A     -0.816343
      16A     -0.723314    17A     -0.719238    18A     -0.684957
      19A     -0.670604    20A     -0.670236    21A     -0.650633
      22A     -0.641132    23A     -0.623483    24A     -0.526586
      25A     -0.477053

  @DF-RHF Final Energy:  -450.65908650505310

   => Energetics <=

    Nuclear Repulsion Energy =            277.7284670970378784
    One-Electron Energy =               -1177.2644208669289583
    Two-Electron Energy =                 448.8768672648379834
    DFT Exchange-Correlation Energy =       0.0000000000000000
    Empirical Dispersion Energy =           0.0000000000000000
    PCM Polarization Energy =               0.0000000000000000
    EFP Energy =                            0.0000000000000000
    Total Energy =                       -450.6590865050530965

  Mulliken Charges: (a.u.)
   Center  Symbol    Alpha    Beta     Spin     Total
       1     H     0.27096  0.27096  0.00000  0.45808
       2     O     4.36892  4.36892  0.00000 -0.73785
       3     C     3.02704  3.02704  0.00000 -0.05407
       4     C     2.48588  2.48588  0.00000  1.02824
       5     H     0.40786  0.40786  0.00000  0.18429
       6     H     0.40066  0.40066  0.00000  0.19867
       7     F     4.68388  4.68388  0.00000 -0.36777
       8     F     4.68010  4.68010  0.00000 -0.36020
       9     F     4.67469  4.67469  0.00000 -0.34939

   Total alpha = 25.00000, Total beta = 25.00000, Total charge =  0.00000
