  ==> Input File <==

--------------------------------------------------------------------------
set {
	reference rhf
	basis 6-31G*
}

set_num_threads( 1 )
memory 2 gb

molecule MOL {
0 1

O	 -2.071330	 -0.348712	 2.015954
C	 -1.012651	 0.179989	 2.171219
C	 0.255000	 -0.434490	 1.603960
C	 -0.882275	 1.495148	 2.906566
C	 0.379448	 -0.143569	 0.099626
H	 0.200221	 -1.506098	 1.761943
H	 1.129350	 -0.059473	 2.128270
C	 1.631333	 -0.777471	 -0.511575
H	 -0.513942	 -0.512797	 -0.391199
H	 0.406348	 0.932583	 -0.064448
C	 2.915987	 -0.544314	 0.291766
H	 1.766672	 -0.399098	 -1.523130
H	 1.471257	 -1.849544	 -0.605828
C	 3.373361	 0.914346	 0.347591
H	 3.708709	 -1.142521	 -0.150311
H	 2.780642	 -0.921148	 1.303579
H	 3.506512	 1.320010	 -0.651625
H	 4.322697	 0.999599	 0.867103
H	 2.660624	 1.545032	 0.868198
H	 -0.324391	 1.345155	 3.827180
H	 -1.862218	 1.887263	 3.140537
H	 -0.329052	 2.215484	 2.310861

	symmetry c1
}
set optking {
	frozen_dihedral = ("
		6 3 2 1,
		6 3 5 8,
		12 8 11 15
	")
}

ee = energy('scf')
oeprop('DIPOLE', 'QUADRUPOLE', 'MULLIKEN_CHARGES')
f=open( 'psi4out.xyz', 'w' )
f.write( "22  " )
f.write( str(ee) + "\n" )
f.write( MOL.save_string_xyz() )
f.close()
--------------------------------------------------------------------------

    Molecular point group: c1

    Geometry (in Angstrom), charge = 0, multiplicity = 1:

       Center              X                  Y                   Z               Mass
    ------------   -----------------  -----------------  -----------------  -----------------
           O         -2.648548384051    -0.406401745100     0.893506216879    15.994914619560
           C         -1.589869384051     0.122299254900     1.048771216879    12.000000000000
           C         -0.322218384051    -0.492179745100     0.481512216879    12.000000000000
           C         -1.459493384051     1.437458254900     1.784118216879    12.000000000000
           C         -0.197770384051    -0.201258745100    -1.022821783121    12.000000000000
           H         -0.376997384051    -1.563787745100     0.639495216879     1.007825032070
           H          0.552131615949    -0.117162745100     1.005822216879     1.007825032070
           C          1.054114615949    -0.835160745100    -1.634022783121    12.000000000000
           H         -1.091160384051    -0.570486745100    -1.513646783121     1.007825032070
           H         -0.170870384051     0.874893254900    -1.186895783121     1.007825032070
           C          2.338768615949    -0.602003745100    -0.830681783121    12.000000000000
           H          1.189453615949    -0.456787745100    -2.645577783121     1.007825032070
           H          0.894038615949    -1.907233745100    -1.728275783121     1.007825032070
           C          2.796142615949     0.856656254900    -0.774856783121    12.000000000000
           H          3.131490615949    -1.200210745100    -1.272758783121     1.007825032070
           H          2.203423615949    -0.978837745100     0.181131216879     1.007825032070
           H          2.929293615949     1.262320254900    -1.774072783121     1.007825032070
           H          3.745478615949     0.941909254900    -0.255344783121     1.007825032070
           H          2.083405615949     1.487342254900    -0.254249783121     1.007825032070
           H         -0.901609384051     1.287465254900     2.704732216879     1.007825032070
           H         -2.439436384051     1.829573254900     2.018089216879     1.007825032070
           H         -0.906270384051     2.157794254900     1.188413216879     1.007825032070

  Charge       = 0
  Multiplicity = 1
  Basis Set: 6-31G*
  Basis Set:

    Orbital Energies (a.u.)
    -----------------------

    Doubly Occupied:

       1A    -20.546850     2A    -11.324102     3A    -11.229423
       4A    -11.228227     5A    -11.228130     6A    -11.222744
       7A    -11.222154     8A    -11.216745     9A     -1.392684
      10A     -1.099817    11A     -1.041248    12A     -0.999414
      13A     -0.942243    14A     -0.864897    15A     -0.779025
      16A     -0.734643    17A     -0.665944    18A     -0.653287
      19A     -0.619929    20A     -0.614611    21A     -0.605637
      22A     -0.573119    23A     -0.565948    24A     -0.552569
      25A     -0.534587    26A     -0.520865    27A     -0.511079
      28A     -0.488071    29A     -0.466367    30A     -0.462229
      31A     -0.457181    32A     -0.397089

  @DF-RHF Final Energy:  -348.09424688121311

   => Energetics <=

    Nuclear Repulsion Energy =            382.4171865844530771
    One-Electron Energy =               -1229.5008766469675265
    Two-Electron Energy =                 498.9894431813009987
    DFT Exchange-Correlation Energy =       0.0000000000000000
    Empirical Dispersion Energy =           0.0000000000000000
    PCM Polarization Energy =               0.0000000000000000
    EFP Energy =                            0.0000000000000000
    Total Energy =                       -348.0942468812135075

  Mulliken Charges: (a.u.)
   Center  Symbol    Alpha    Beta     Spin     Total
       1     O     4.26291  4.26291  0.00000 -0.52582
       2     C     2.73481  2.73481  0.00000  0.53038
       3     C     3.20670  3.20670  0.00000 -0.41339
       4     C     3.28977  3.28977  0.00000 -0.57954
       5     C     3.16417  3.16417  0.00000 -0.32834
       6     H     0.40147  0.40147  0.00000  0.19707
       7     H     0.41365  0.41365  0.00000  0.17269
       8     C     3.15334  3.15334  0.00000 -0.30667
       9     H     0.40281  0.40281  0.00000  0.19439
      10     H     0.41984  0.41984  0.00000  0.16032
      11     C     3.16090  3.16090  0.00000 -0.32181
      12     H     0.41876  0.41876  0.00000  0.16248
      13     H     0.41799  0.41799  0.00000  0.16401
      14     C     3.24092  3.24092  0.00000 -0.48184
      15     H     0.41734  0.41734  0.00000  0.16532
      16     H     0.41993  0.41993  0.00000  0.16014
      17     H     0.41970  0.41970  0.00000  0.16060
      18     H     0.41737  0.41737  0.00000  0.16525
      19     H     0.42374  0.42374  0.00000  0.15252
      20     H     0.40705  0.40705  0.00000  0.18589
      21     H     0.39696  0.39696  0.00000  0.20608
      22     H     0.40987  0.40987  0.00000  0.18025

   Total alpha = 32.00000, Total beta = 32.00000, Total charge = -0.00000
