                              Psi4 1.0.54 Driver

  ==> Input File <==

--------------------------------------------------------------------------
set {
	reference rhf
	basis cc-pvtz
}

set_num_threads( 4 )
memory 2 gb

molecule MOL {
0 1

H	 -2.542317	 -1.344335	 -0.686306
O	 -2.658848	 -0.704215	 -0.000460
C	 -1.605397	 0.107680	 0.001145
C	 -0.310616	 -0.658853	 0.000791
O	 -1.718351	 1.284629	 -0.000627
C	 0.926581	 0.227233	 0.000178
H	 -0.327628	 -1.313681	 -0.864448
H	 -0.327041	 -1.313334	 0.866298
C	 2.220156	 -0.582071	 -0.000088
H	 0.899945	 0.878221	 -0.866390
H	 0.900542	 0.878581	 0.866486
C	 3.466689	 0.296012	 -0.000457
H	 2.239073	 -1.234095	 -0.869382
H	 2.239505	 -1.233985	 0.869270
H	 3.493549	 0.935857	 -0.875887
H	 4.368821	 -0.304526	 -0.001199
H	 3.494559	 0.935166	 0.875458

	symmetry c1
}
set optking {
	frozen_dihedral = ("
		1 2 3 5
	")
}

ee,wfn = optimize('scf', return_wfn=True)
oeprop( wfn, 'DIPOLE', 'QUADRUPOLE', 'MULLIKEN_CHARGES')
f=open( 'psi4out.xyz', 'w' )
f.write( "17  " )
f.write( str(ee) + "\n" )
f.write( MOL.save_string_xyz() )
f.close()
--------------------------------------------------------------------------

    Molecular point group: c1
  Charge       = 0
  Multiplicity = 1
  Basis Set: CC-PVTZ
  Basis Set:
  @DF-RHF Final Energy:  -345.03141293047685
    Total Energy =                       -345.0314129304769608
    Molecular point group: c1
  Basis Set: CC-PVTZ
  Basis Set:
  Basis Set: CC-PVTZ
  Basis Set:
  @DF-RHF Final Energy:  -345.03270894103207
    Total Energy =                       -345.0327089410323538
  Basis Set: CC-PVTZ
  Basis Set:
  Basis Set: CC-PVTZ
  Basis Set:
  @DF-RHF Final Energy:  -345.03285671583262
    Total Energy =                       -345.0328567158325654
  Basis Set: CC-PVTZ
  Basis Set:
  Basis Set: CC-PVTZ
  Basis Set:
  @DF-RHF Final Energy:  -345.03281789103562
    Total Energy =                       -345.0328178910356201
  Basis Set: CC-PVTZ
  Basis Set:
  Basis Set: CC-PVTZ
  Basis Set:
  @DF-RHF Final Energy:  -345.03286443255024
    Total Energy =                       -345.0328644325505820
  Basis Set: CC-PVTZ
  Basis Set:
  Charge       = 0
  Multiplicity = 1
  Basis Set: CC-PVTZ
  Basis Set:

    Orbital Energies (a.u.)
    -----------------------

    Doubly Occupied:

       1A    -20.593883     2A    -20.544785     3A    -11.373602
       4A    -11.246729     5A    -11.225245     6A    -11.224568
       7A    -11.213498     8A     -1.466168     9A     -1.372940
      10A     -1.095983    11A     -1.019926    12A     -0.909100
      13A     -0.830559    14A     -0.803819    15A     -0.715783
      16A     -0.676447    17A     -0.663299    18A     -0.640870
      19A     -0.600735    20A     -0.586237    21A     -0.551075
      22A     -0.543645    23A     -0.515386    24A     -0.495786
      25A     -0.484320    26A     -0.478141    27A     -0.476025
      28A     -0.444487

  @DF-RHF Final Energy:  -345.03286506100613

   => Energetics <=

    Nuclear Repulsion Energy =            304.3478507441161014
    One-Electron Energy =               -1073.1753601087229981
    Two-Electron Energy =                 423.7946443036006485
    DFT Exchange-Correlation Energy =       0.0000000000000000
    Empirical Dispersion Energy =           0.0000000000000000
    PCM Polarization Energy =               0.0000000000000000
    EFP Energy =                            0.0000000000000000
    Total Energy =                       -345.0328650610061914
    Molecular point group: c1
  Basis Set: CC-PVTZ
  Basis Set:

  -Total Gradient:
     Atom            X                  Y                   Z
    ------   -----------------  -----------------  -----------------
       1       -0.002942784125     0.004275905007    -0.004346123478
       2        0.003750404239    -0.005426253907     0.002859585785
       3       -0.000856479227     0.001080719498     0.007389264120
       4       -0.000064636187    -0.000008706503     0.000039998617
       5        0.000091548209     0.000071951521    -0.005895641535
       6        0.000024209327     0.000013510651    -0.000014607983
       7       -0.000003991563     0.000001282176    -0.000021137164
       8        0.000007500230     0.000001991271    -0.000029092614
       9        0.000010053687    -0.000005733662     0.000006279774
      10       -0.000002438898    -0.000008366783     0.000010226982
      11       -0.000001667680    -0.000003441920     0.000004887717
      12       -0.000002997252     0.000004246960    -0.000005867140
      13       -0.000003323362    -0.000000919609    -0.000000741700
      14       -0.000002205005     0.000001301154     0.000003801768
      15        0.000002288550     0.000003851498    -0.000003238482
      16       -0.000006843220    -0.000001609938    -0.000001229191
      17        0.000001362277     0.000000272587     0.000003634524

  **** Optimization is complete! (in 6 steps) ****
    Final optimized geometry and variables:
    Molecular point group: c1

    Geometry (in Angstrom), charge = 0, multiplicity = 1:

    H           -2.674666929953    -1.311068093825    -0.700232779395
    O           -2.716998525521    -0.657405873744    -0.023299710567
    C           -1.612642773463     0.117852654590    -0.002021699166
    C           -0.312762466687    -0.650076435692     0.013214971384
    O           -1.704187217609     1.288327981868     0.011045997533
    C            0.927913452438     0.231223605594     0.005098073704
    H           -0.312080511841    -1.320941848133    -0.843431498242
    H           -0.333620583381    -1.291166568736     0.889031029238
    C            2.220163472551    -0.579974313751     0.025405809805
    H            0.907052287184     0.869309377022    -0.871182244481
    H            0.895569154503     0.894992206374     0.861171827021
    C            3.467690437971     0.296638983929     0.019848696010
    H            2.244592387667    -1.245238170046    -0.833936402420
    H            2.233013324247    -1.218366609838     0.904831407548
    H            3.501184475094     0.922906861146    -0.865076391960
    H            4.368896927584    -0.304992833589     0.034476548426
    H            3.490147327023     0.948956730579     0.886007909590

  Mulliken Charges: (a.u.)
   Center  Symbol    Alpha    Beta     Spin     Total
       1     H     0.38868  0.38868  0.00000  0.22263
       2     O     4.16019  4.16019  0.00000 -0.32038
       3     C     2.80262  2.80262  0.00000  0.39475
       4     C     3.12279  3.12279  0.00000 -0.24559
       5     O     4.16499  4.16499  0.00000 -0.32997
       6     C     3.08498  3.08498  0.00000 -0.16997
       7     H     0.45195  0.45195  0.00000  0.09611
       8     H     0.43537  0.43537  0.00000  0.12926
       9     C     3.08632  3.08632  0.00000 -0.17264
      10     H     0.44571  0.44571  0.00000  0.10858
      11     H     0.44295  0.44295  0.00000  0.11410
      12     C     3.14927  3.14927  0.00000 -0.29853
      13     H     0.45567  0.45567  0.00000  0.08866
      14     H     0.45443  0.45443  0.00000  0.09114
      15     H     0.45348  0.45348  0.00000  0.09304
      16     H     0.44777  0.44777  0.00000  0.10446
      17     H     0.45284  0.45284  0.00000  0.09433

   Total alpha = 28.00000, Total beta = 28.00000, Total charge = -0.00000

*** Psi4 exiting successfully. Buy a developer a beer!
