  ==> Input File <==

--------------------------------------------------------------------------
set {
	reference rhf
	basis cc-pvtz
}

set_num_threads( 4 )
memory 2 gb

molecule MOL {
0 1

H	 2.776080	 0.771054	 0.290211
N	 2.326826	 -0.066186	 0.000000
C	 0.934676	 -0.005420	 0.000000
H	 2.724293	 -0.415390	 -0.840892
C	 0.226436	 -0.001077	 -1.195129
C	 0.226436	 -0.001077	 1.195129
H	 0.759091	 -0.011439	 -2.128123
C	 -1.153391	 0.009141	 -1.189028
H	 0.759091	 -0.011439	 2.128123
C	 -1.153391	 0.009141	 1.189028
H	 -1.680905	 0.012964	 -2.124348
C	 -1.857876	 0.014675	 0.000000
H	 -1.680905	 0.012964	 2.124348
H	 -2.930222	 0.022904	 0.000000

	symmetry c1
}
set optking {
	frozen_dihedral = ("
		1 2 3 5
	")
}

ee = optimize('scf')
oeprop('DIPOLE', 'QUADRUPOLE', 'MULLIKEN_CHARGES')
f=open( 'psi4out.xyz', 'w' )
f.write( "14  " )
f.write( str(ee) + "\n" )
f.write( MOL.save_string_xyz() )
f.close()
--------------------------------------------------------------------------

    Molecular point group: c1
  Charge       = 0
  Multiplicity = 1
  Basis Set: CC-PVTZ
  Basis Set:
  @DF-RHF Final Energy:  -285.82923319905115
    Total Energy =                       -285.8292331990512594
    Molecular point group: c1
  Basis Set: CC-PVTZ
  Basis Set:
  Basis Set: CC-PVTZ
  Basis Set:
  @DF-RHF Final Energy:  -285.83038893059336
    Total Energy =                       -285.8303889305933581
  Basis Set: CC-PVTZ
  Basis Set:
  Basis Set: CC-PVTZ
  Basis Set:
  @DF-RHF Final Energy:  -285.83057594765899
    Total Energy =                       -285.8305759476590424
  Basis Set: CC-PVTZ
  Basis Set:
  Basis Set: CC-PVTZ
  Basis Set:
  @DF-RHF Final Energy:  -285.83058945456264
    Total Energy =                       -285.8305894545626415
  Basis Set: CC-PVTZ
  Basis Set:
  Charge       = 0
  Multiplicity = 1
  Basis Set: CC-PVTZ
  Basis Set:

    Orbital Energies (a.u.)
    -----------------------

    Doubly Occupied:

       1A    -15.550411     2A    -11.265667     3A    -11.228387
       4A    -11.227542     5A    -11.220811     6A    -11.218063
       7A    -11.217676     8A     -1.219215     9A     -1.132034
      10A     -1.015288    11A     -0.989609    12A     -0.832366
      13A     -0.812120    14A     -0.706811    15A     -0.676760
      16A     -0.651326    17A     -0.613864    18A     -0.594801
      19A     -0.584650    20A     -0.518235    21A     -0.505835
      22A     -0.491617    23A     -0.437820    24A     -0.336823
      25A     -0.309630

  @DF-RHF Final Energy:  -285.83059069548415

   => Energetics <=

    Nuclear Repulsion Energy =            273.3637790662126008
    One-Electron Energy =                -927.6740131168680819
    Two-Electron Energy =                 368.4796433551714472
    DFT Exchange-Correlation Energy =       0.0000000000000000
    Empirical Dispersion Energy =           0.0000000000000000
    PCM Polarization Energy =               0.0000000000000000
    EFP Energy =                            0.0000000000000000
    Total Energy =                       -285.8305906954840339
    Molecular point group: c1
  Basis Set: CC-PVTZ
  Basis Set:

  -Total Gradient:
     Atom            X                  Y                   Z
    ------   -----------------  -----------------  -----------------
       1        0.000136248859     0.001230808271    -0.003208972329
       2       -0.000152272114    -0.000152190471     0.004094164970
       3       -0.000156660198    -0.003744973933    -0.000615034961
       4        0.000026970769    -0.000001163420    -0.000055386060
       5       -0.000079176189     0.002717416683    -0.000115334973
       6        0.000197245850    -0.000032118509    -0.000095326339
       7        0.000006745876    -0.000006400931    -0.000000906898
       8        0.000186381241    -0.000062641523    -0.000087867529
       9        0.000001468268     0.000011648791     0.000022371445
      10       -0.000166858378    -0.000017455693    -0.000119784168
      11       -0.000010421337     0.000014070960     0.000011473983
      12       -0.000002798506     0.000044028887     0.000196405910
      13        0.000019679142    -0.000003045359    -0.000004773893
      14       -0.000006553289     0.000002016249    -0.000021029158

  **** Optimization is complete! (in 5 steps) ****
    Final optimized geometry and variables:
    Molecular point group: c1

    Geometry (in Angstrom), charge = 0, multiplicity = 1:

    H            2.735793387305     0.778315084218     0.351387800857
    N            2.342145587749    -0.080123191002     0.029457189003
    C            0.929149751080    -0.035234103525    -0.003307081181
    H            2.725957801603    -0.272621302714    -0.869714236629
    C            0.220798562206    -0.016880273525    -1.194032719112
    C            0.228032376823    -0.004879319033     1.193805812433
    H            0.750834466857    -0.026646391219    -2.128672964770
    C           -1.161792539318     0.008731419629    -1.187478222709
    H            0.772470595623    -0.032503883982     2.118334857271
    C           -1.150603897323     0.044828651939     1.194787148455
    H           -1.693972480128     0.012930740053    -2.119940917245
    C           -1.856245459388     0.046250810091     0.004683045188
    H           -1.677134394319     0.069624679489     2.130110535709
    H           -2.928615659415     0.074343861182     0.008498667406

  Mulliken Charges: (a.u.)
   Center  Symbol    Alpha    Beta     Spin     Total
       1     H     0.41966  0.41966  0.00000  0.16067
       2     N     3.68781  3.68781  0.00000 -0.37561
       3     C     2.88743  2.88743  0.00000  0.22513
       4     H     0.42615  0.42615  0.00000  0.14770
       5     C     3.11574  3.11574  0.00000 -0.23148
       6     C     3.11263  3.11263  0.00000 -0.22526
       7     H     0.43223  0.43223  0.00000  0.13554
       8     C     3.06636  3.06636  0.00000 -0.13272
       9     H     0.42325  0.42325  0.00000  0.15350
      10     C     3.06210  3.06210  0.00000 -0.12421
      11     H     0.42407  0.42407  0.00000  0.15187
      12     C     3.09430  3.09430  0.00000 -0.18860
      13     H     0.42387  0.42387  0.00000  0.15227
      14     H     0.42440  0.42440  0.00000  0.15120

   Total alpha = 25.00000, Total beta = 25.00000, Total charge =  0.00000
