  ==> Input File <==

--------------------------------------------------------------------------
set {
	reference rhf
	basis cc-pvtz
}

set_num_threads( 4 )
memory 2 gb

molecule MOL {
0 1

H	 1.695381	 -0.990570	 0.918880
C	 0.826841	 -1.090974	 0.284633
O	 -0.000000	 0.000000	 0.518769
H	 1.153191	 -1.128361	 -0.752648
H	 0.326931	 -2.027969	 0.521244
C	 -1.165153	 0.000000	 -0.236961
H	 -1.229451	 0.882440	 -0.870223
H	 -2.002557	 0.000000	 0.445289
H	 -1.229451	 -0.882440	 -0.870223

	symmetry c1
}
set optking {
	frozen_dihedral = ("
		2 3 6 7
	")
}

ee = optimize('scf')
oeprop('DIPOLE', 'QUADRUPOLE', 'MULLIKEN_CHARGES')
f=open( 'psi4out.xyz', 'w' )
f.write( "9  " )
f.write( str(ee) + "\n" )
f.write( MOL.save_string_xyz() )
f.close()
--------------------------------------------------------------------------

    Molecular point group: c1
  Charge       = 0
  Multiplicity = 1
  Basis Set: CC-PVTZ
  Basis Set:
  @DF-RHF Final Energy:  -154.12295149671237
    Total Energy =                       -154.1229514967123180
    Molecular point group: c1
  Basis Set: CC-PVTZ
  Basis Set:
  Basis Set: CC-PVTZ
  Basis Set:
  @DF-RHF Final Energy:  -154.12335547359697
    Total Energy =                       -154.1233554735970301
  Basis Set: CC-PVTZ
  Basis Set:
  Basis Set: CC-PVTZ
  Basis Set:
  @DF-RHF Final Energy:  -154.12344491598071
    Total Energy =                       -154.1234449159805422
  Basis Set: CC-PVTZ
  Basis Set:
  Charge       = 0
  Multiplicity = 1
  Basis Set: CC-PVTZ
  Basis Set:

    Orbital Energies (a.u.)
    -----------------------

    Doubly Occupied:

       1A    -20.546513     2A    -11.263601     3A    -11.262643
       4A     -1.377538     5A     -0.975815     6A     -0.872594
       7A     -0.658565     8A     -0.654892     9A     -0.644660
      10A     -0.559094    11A     -0.527832    12A     -0.475199
      13A     -0.414674

  @DF-RHF Final Energy:  -154.12344547118494

   => Energetics <=

    Nuclear Repulsion Energy =             84.5687299787616951
    One-Electron Energy =                -376.9171122186431262
    Two-Electron Energy =                 138.2249367686965797
    DFT Exchange-Correlation Energy =       0.0000000000000000
    Empirical Dispersion Energy =           0.0000000000000000
    PCM Polarization Energy =               0.0000000000000000
    EFP Energy =                            0.0000000000000000
    Total Energy =                       -154.1234454711848230
    Molecular point group: c1
  Basis Set: CC-PVTZ
  Basis Set:

  -Total Gradient:
     Atom            X                  Y                   Z
    ------   -----------------  -----------------  -----------------
       1        0.000032634094    -0.000036890316     0.000002183872
       2        0.000119712972    -0.000046249947     0.000066801350
       3       -0.000086413526     0.000018739308    -0.000091005462
       4       -0.000034113351     0.000007699496     0.000009077539
       5       -0.000033587067     0.000054686548    -0.000009981809
       6        0.000046255020    -0.000035662539     0.000005201497
       7       -0.000031427262     0.000030417033     0.000027928475
       8       -0.000009742934     0.000003100947    -0.000003899612
       9       -0.000003317945     0.000004159469    -0.000006305850

  **** Optimization is complete! (in 4 steps) ****
    Final optimized geometry and variables:
    Molecular point group: c1

    Geometry (in Angstrom), charge = 0, multiplicity = 1:

    H            1.823109712933    -0.595831851504     0.744856907770
    C            0.957367061898    -0.717602380598     0.109766030968
    O            0.117319732942     0.367376415338     0.329700782332
    H            1.289724916842    -0.765768564248    -0.924704924375
    H            0.472591749558    -1.658373287944     0.360338427130
    C           -1.064821844022     0.382448619501    -0.410875841164
    H           -1.100791771072     1.272982757617    -1.028118502421
    H           -1.917308600082     0.391325516509     0.258730253808
    H           -1.149829624810    -0.484246464254    -1.058429910496

  Mulliken Charges: (a.u.)
   Center  Symbol    Alpha    Beta     Spin     Total
       1     H     0.44986  0.44986  0.00000  0.10028
       2     C     3.02073  3.02073  0.00000 -0.04147
       3     O     4.17305  4.17305  0.00000 -0.34609
       4     H     0.47307  0.47307  0.00000  0.05385
       5     H     0.47306  0.47306  0.00000  0.05387
       6     C     3.01606  3.01606  0.00000 -0.03213
       7     H     0.45984  0.45984  0.00000  0.08032
       8     H     0.45967  0.45967  0.00000  0.08066
       9     H     0.47464  0.47464  0.00000  0.05071

   Total alpha = 13.00000, Total beta = 13.00000, Total charge = -0.00000
