  ==> Input File <==

--------------------------------------------------------------------------
set {
	reference rhf
	basis 6-31G*
}

set_num_threads( 4 )
memory 2 gb

molecule MOL {
0 1

H	 1.384172	 -1.792249	 0.840284
O	 0.711448	 -1.216678	 0.505844
C	 1.135793	 0.118896	 0.612333
C	 0.031547	 1.023609	 0.088541
H	 2.038831	 0.279348	 0.026102
H	 1.373562	 0.362499	 1.645398
C	 -1.134819	 0.293262	 -0.585751
H	 0.474374	 1.714721	 -0.623187
H	 -0.338529	 1.620940	 0.920081
C	 -1.917817	 -0.639439	 0.339494
H	 -0.758119	 -0.268455	 -1.433105
H	 -1.813832	 1.041889	 -0.986690
H	 -2.777680	 -1.057197	 -0.174994
H	 -1.310268	 -1.471279	 0.680599
H	 -2.283753	 -0.111424	 1.216626

	symmetry c1
}
set optking {
	frozen_dihedral = ("
		2 3 4 8
	")
}

ee = optimize('scf')
oeprop('DIPOLE', 'QUADRUPOLE', 'MULLIKEN_CHARGES')
f=open( 'psi4out.xyz', 'w' )
f.write( "15  " )
f.write( str(ee) + "\n" )
f.write( MOL.save_string_xyz() )
f.close()
--------------------------------------------------------------------------

    Molecular point group: c1
  Charge       = 0
  Multiplicity = 1
  Basis Set: 6-31G*
  Basis Set:
  @DF-RHF Final Energy:  -232.12864504281598
    Total Energy =                       -232.1286450428158332
    Molecular point group: c1
  Basis Set: 6-31G*
  Basis Set:
  Basis Set: 6-31G*
  Basis Set:
  @DF-RHF Final Energy:  -232.13397195850311
    Total Energy =                       -232.1339719585031389
  Basis Set: 6-31G*
  Basis Set:
  Basis Set: 6-31G*
  Basis Set:
  @DF-RHF Final Energy:  -232.13501380379654
    Total Energy =                       -232.1350138037963120
  Basis Set: 6-31G*
  Basis Set:
  Basis Set: 6-31G*
  Basis Set:
  @DF-RHF Final Energy:  -232.13524422652284
    Total Energy =                       -232.1352442265227296
  Basis Set: 6-31G*
  Basis Set:
  Basis Set: 6-31G*
  Basis Set:
  @DF-RHF Final Energy:  -232.13530659782663
    Total Energy =                       -232.1353065978265136
  Basis Set: 6-31G*
  Basis Set:
  Basis Set: 6-31G*
  Basis Set:
  @DF-RHF Final Energy:  -232.13531288417659
    Total Energy =                       -232.1353128841764715
  Basis Set: 6-31G*
  Basis Set:
  Charge       = 0
  Multiplicity = 1
  Basis Set: 6-31G*
  Basis Set:

    Orbital Energies (a.u.)
    -----------------------

    Doubly Occupied:

       1A    -20.554527     2A    -11.269822     3A    -11.213546
       4A    -11.206242     5A    -11.192884     6A     -1.361110
       7A     -1.056326     8A     -0.966412     9A     -0.861550
      10A     -0.774316    11A     -0.703120    12A     -0.647065
      13A     -0.605439    14A     -0.573935    15A     -0.547924
      16A     -0.531222    17A     -0.506512    18A     -0.474313
      19A     -0.460287    20A     -0.446597    21A     -0.424791

  @DF-RHF Final Energy:  -232.13531358408420

   => Energetics <=

    Nuclear Repulsion Energy =            192.9614018316863735
    One-Electron Energy =                -697.4375523828169889
    Two-Electron Energy =                 272.3408369670462434
    DFT Exchange-Correlation Energy =       0.0000000000000000
    Empirical Dispersion Energy =           0.0000000000000000
    PCM Polarization Energy =               0.0000000000000000
    EFP Energy =                            0.0000000000000000
    Total Energy =                       -232.1353135840843720
    Molecular point group: c1
  Basis Set: 6-31G*
  Basis Set:

  -Total Gradient:
     Atom            X                  Y                   Z
    ------   -----------------  -----------------  -----------------
       1       -0.000002164459     0.000004268380     0.000001137768
       2        0.000319540543     0.000008219061    -0.000843691162
       3       -0.000463193614    -0.000240772346     0.000954448633
       4        0.000340904688     0.000846188159     0.000807768170
       5       -0.000009780882     0.000034857104    -0.000008031655
       6        0.000005603652     0.000019979940     0.000012425768
       7       -0.000022920528    -0.000006029677    -0.000030008380
       8       -0.000145678936    -0.000664427490    -0.000893837455
       9       -0.000000766029    -0.000015757258    -0.000013056478
      10        0.000005993711     0.000043118643     0.000010011463
      11       -0.000007375712     0.000018632077     0.000026765091
      12       -0.000028174342    -0.000029369095     0.000018755297
      13       -0.000024129281    -0.000027920043    -0.000002786579
      14        0.000016196117     0.000000762466    -0.000019598149
      15        0.000015945072     0.000008250083    -0.000020302332

  **** Optimization is complete! (in 7 steps) ****
    Final optimized geometry and variables:
    Molecular point group: c1

    Geometry (in Angstrom), charge = 0, multiplicity = 1:

    H            1.870054436849    -1.622913026660     0.474734492572
    O            1.114946117463    -1.120407755186     0.204285353970
    C            1.380138876126     0.247854061670     0.392483337884
    C            0.179408696633     1.114068948414    -0.047813379753
    H            2.257297364359     0.526836299246    -0.186839900365
    H            1.613273344838     0.441949836054     1.436589656485
    C           -0.956278633467     0.379154945689    -0.776204300593
    H            0.555479762873     1.891922846156    -0.705897835241
    H           -0.236101810913     1.624244179568     0.816751709970
    C           -1.886903218481    -0.407011506774     0.147641536266
    H           -0.542186787533    -0.281731652196    -1.529069238961
    H           -1.543346685421     1.125645336172    -1.306163537912
    H           -2.682994891894    -0.879976980697    -0.420574463130
    H           -1.349695416445    -1.179880348050     0.681192295260
    H           -2.352769842496     0.251086984175     0.877383015502

  Mulliken Charges: (a.u.)
   Center  Symbol    Alpha    Beta     Spin     Total
       1     H     0.28017  0.28017  0.00000  0.43966
       2     O     4.37067  4.37067  0.00000 -0.74135
       3     C     2.99177  2.99177  0.00000  0.01647
       4     C     3.17620  3.17620  0.00000 -0.35241
       5     H     0.43025  0.43025  0.00000  0.13949
       6     H     0.42937  0.42937  0.00000  0.14127
       7     C     3.14565  3.14565  0.00000 -0.29130
       8     H     0.41873  0.41873  0.00000  0.16253
       9     H     0.41952  0.41952  0.00000  0.16096
      10     C     3.24128  3.24128  0.00000 -0.48256
      11     H     0.41229  0.41229  0.00000  0.17541
      12     H     0.42547  0.42547  0.00000  0.14906
      13     H     0.42406  0.42406  0.00000  0.15188
      14     H     0.40564  0.40564  0.00000  0.18871
      15     H     0.42891  0.42891  0.00000  0.14218

   Total alpha = 21.00000, Total beta = 21.00000, Total charge =  0.00000
