  ==> Input File <==

--------------------------------------------------------------------------
set {
	reference rhf
	basis 6-31G*
}

set_num_threads( 1 )
memory 2 gb

molecule MOL {
0 1

H	 -3.261111	 -0.295142	 1.469456
C	 -3.306842	 -0.277400	 0.373456
C	 -2.660244	 0.921717	 -0.272021
O	 -3.838538	 -1.161155	 -0.216482
C	 -1.220012	 1.144545	 0.209990
H	 -2.705793	 0.797307	 -1.347733
H	 -3.263782	 1.790044	 -0.010477
C	 -0.252658	 0.041456	 -0.226725
H	 -0.873521	 2.100229	 -0.171974
H	 -1.211708	 1.231594	 1.295398
C	 1.180775	 0.282413	 0.250794
H	 -0.266029	 -0.034465	 -1.312038
H	 -0.597733	 -0.921000	 0.146291
C	 2.148627	 -0.814315	 -0.201312
H	 1.516199	 1.249228	 -0.115937
H	 1.192670	 0.346017	 1.338083
C	 3.580890	 -0.659131	 0.322722
H	 2.166869	 -0.852443	 -1.289387
H	 1.762857	 -1.776509	 0.128956
C	 3.968018	 -1.653489	 1.418625
H	 3.696386	 0.349518	 0.711613
H	 4.279390	 -0.745476	 -0.507076
H	 3.276355	 -1.600809	 2.255342
H	 3.972166	 -2.676185	 1.056617
H	 4.962323	 -1.439492	 1.798833

	symmetry c1
}
set optking {
	frozen_dihedral = ("
		6 3 5 8,
		6 3 2 4,
		3 5 8 12,
		12 8 11 14,
		8 11 14 18
	")
}

ee = energy('scf')
oeprop('DIPOLE', 'QUADRUPOLE', 'MULLIKEN_CHARGES')
f=open( 'psi4out.xyz', 'w' )
f.write( "25  " )
f.write( str(ee) + "\n" )
f.write( MOL.save_string_xyz() )
f.close()
--------------------------------------------------------------------------

    Molecular point group: c1

    Geometry (in Angstrom), charge = 0, multiplicity = 1:

       Center              X                  Y                   Z               Mass
    ------------   -----------------  -----------------  -----------------  -----------------
           H         -3.219163646426    -0.035698006956     1.277976943535     1.007825032070
           C         -3.264894646426    -0.017956006956     0.181976943535    12.000000000000
           C         -2.618296646426     1.181160993044    -0.463500056465    12.000000000000
           O         -3.796590646426    -0.901711006956    -0.407961056465    15.994914619560
           C         -1.178064646426     1.403988993044     0.018510943535    12.000000000000
           H         -2.663845646426     1.056750993044    -1.539212056465     1.007825032070
           H         -3.221834646426     2.049487993044    -0.201956056465     1.007825032070
           C         -0.210710646426     0.300899993044    -0.418204056465    12.000000000000
           H         -0.831573646426     2.359672993044    -0.363453056465     1.007825032070
           H         -1.169760646426     1.491037993044     1.103918943535     1.007825032070
           C          1.222722353574     0.541856993044     0.059314943535    12.000000000000
           H         -0.224081646426     0.224978993044    -1.503517056465     1.007825032070
           H         -0.555785646426    -0.661556006956    -0.045188056465     1.007825032070
           C          2.190574353574    -0.554871006956    -0.392791056465    12.000000000000
           H          1.558146353574     1.508671993044    -0.307416056465     1.007825032070
           H          1.234617353574     0.605460993044     1.146603943535     1.007825032070
           C          3.622837353574    -0.399687006956     0.131242943535    12.000000000000
           H          2.208816353574    -0.592999006956    -1.480866056465     1.007825032070
           H          1.804804353574    -1.517065006956    -0.062523056465     1.007825032070
           C          4.009965353574    -1.394045006956     1.227145943535    12.000000000000
           H          3.738333353574     0.608961993044     0.520133943535     1.007825032070
           H          4.321337353574    -0.486032006956    -0.698555056465     1.007825032070
           H          3.318302353574    -1.341365006956     2.063862943535     1.007825032070
           H          4.014113353574    -2.416741006956     0.865137943535     1.007825032070
           H          5.004270353574    -1.180048006956     1.607353943535     1.007825032070

  Charge       = 0
  Multiplicity = 1
  Basis Set: 6-31G*
  Basis Set:

    Orbital Energies (a.u.)
    -----------------------

    Doubly Occupied:

       1A    -20.562065     2A    -11.326199     3A    -11.235431
       4A    -11.234698     5A    -11.223821     6A    -11.220950
       7A    -11.216521     8A    -11.215567     9A    -11.210941
      10A     -1.402034    11A     -1.103890    12A     -1.069236
      13A     -1.014510    14A     -0.943140    15A     -0.871195
      16A     -0.817220    17A     -0.790734    18A     -0.786497
      19A     -0.664136    20A     -0.662678    21A     -0.632503
      22A     -0.622411    23A     -0.603799    24A     -0.596115
      25A     -0.567700    26A     -0.555952    27A     -0.533788
      28A     -0.521924    29A     -0.512905    30A     -0.497270
      31A     -0.485847    32A     -0.481358    33A     -0.464602
      34A     -0.457080    35A     -0.440808    36A     -0.409596

  @DF-RHF Final Energy:  -387.11809571534786

   => Energetics <=

    Nuclear Repulsion Energy =            437.4216135507069794
    One-Electron Energy =               -1391.1694757290408688
    Two-Electron Energy =                 566.6297664629852306
    DFT Exchange-Correlation Energy =       0.0000000000000000
    Empirical Dispersion Energy =           0.0000000000000000
    PCM Polarization Energy =               0.0000000000000000
    EFP Energy =                            0.0000000000000000
    Total Energy =                       -387.1180957153486588

  Mulliken Charges: (a.u.)
   Center  Symbol    Alpha    Beta     Spin     Total
       1     H     0.43260  0.43260  0.00000  0.13480
       2     C     2.83086  2.83086  0.00000  0.33828
       3     C     3.20807  3.20807  0.00000 -0.41615
       4     O     4.23773  4.23773  0.00000 -0.47547
       5     C     3.16662  3.16662  0.00000 -0.33325
       6     H     0.39968  0.39968  0.00000  0.20064
       7     H     0.40669  0.40669  0.00000  0.18662
       8     C     3.15575  3.15575  0.00000 -0.31150
       9     H     0.41284  0.41284  0.00000  0.17432
      10     H     0.41963  0.41963  0.00000  0.16073
      11     C     3.15440  3.15440  0.00000 -0.30879
      12     H     0.41789  0.41789  0.00000  0.16423
      13     H     0.41814  0.41814  0.00000  0.16372
      14     C     3.15511  3.15511  0.00000 -0.31022
      15     H     0.42200  0.42200  0.00000  0.15601
      16     H     0.42327  0.42327  0.00000  0.15346
      17     C     3.15507  3.15507  0.00000 -0.31015
      18     H     0.42007  0.42007  0.00000  0.15987
      19     H     0.42005  0.42005  0.00000  0.15989
      20     C     3.24013  3.24013  0.00000 -0.48027
      21     H     0.42123  0.42123  0.00000  0.15755
      22     H     0.41963  0.41963  0.00000  0.16073
      23     H     0.42256  0.42256  0.00000  0.15489
      24     H     0.42009  0.42009  0.00000  0.15982
      25     H     0.41988  0.41988  0.00000  0.16024

   Total alpha = 36.00000, Total beta = 36.00000, Total charge =  0.00000
