                              Psi4 1.0.54 Driver

  ==> Input File <==

--------------------------------------------------------------------------
set {
	reference rhf
	basis cc-pvtz
}

set_num_threads( 4 )
memory 2 gb

molecule MOL {
0 1

H	 4.556179	 0.351908	 0.850498
C	 3.710946	 -0.300974	 0.667645
C	 2.410431	 0.491783	 0.598003
H	 3.897657	 -0.829299	 -0.261360
H	 3.683415	 -1.035975	 1.465161
C	 1.195359	 -0.387698	 0.342897
H	 2.469910	 1.237581	 -0.186862
H	 2.269404	 1.034296	 1.529865
N	 -0.018273	 0.395747	 0.258946
H	 1.323623	 -0.911354	 -0.599706
H	 1.136573	 -1.157977	 1.117686
C	 -1.215959	 -0.382435	 0.027143
H	 -0.125774	 0.940571	 1.088963
C	 -2.451944	 0.502410	 -0.038737
H	 -1.099441	 -0.906065	 -0.917003
H	 -1.361991	 -1.152527	 0.790498
C	 -3.752217	 -0.292550	 0.005776
H	 -2.407325	 1.093801	 -0.946480
H	 -2.431979	 1.206234	 0.790023
H	 -3.817783	 -0.982946	 -0.828547
H	 -4.612613	 0.364348	 -0.042306
H	 -3.830160	 -0.871666	 0.919868

	symmetry c1
}
set optking {
	frozen_dihedral = ("
		15 12 14 18
	")
}

ee,wfn = optimize('scf', return_wfn=True)
oeprop( wfn, 'DIPOLE', 'QUADRUPOLE', 'MULLIKEN_CHARGES')
f=open( 'psi4out.xyz', 'w' )
f.write( "22  " )
f.write( str(ee) + "\n" )
f.write( MOL.save_string_xyz() )
f.close()
--------------------------------------------------------------------------

    Molecular point group: c1
  Charge       = 0
  Multiplicity = 1
  Basis Set: CC-PVTZ
  Basis Set:
  @DF-RHF Final Energy:  -290.48942489150829
    Total Energy =                       -290.4894248915082358
    Molecular point group: c1
  Basis Set: CC-PVTZ
  Basis Set:
  Basis Set: CC-PVTZ
  Basis Set:
  @DF-RHF Final Energy:  -290.48951117713176
    Total Energy =                       -290.4895111771314760
  Basis Set: CC-PVTZ
  Basis Set:
  Basis Set: CC-PVTZ
  Basis Set:
  @DF-RHF Final Energy:  -290.48953283766366
    Total Energy =                       -290.4895328376634325
  Basis Set: CC-PVTZ
  Basis Set:
  Charge       = 0
  Multiplicity = 1
  Basis Set: CC-PVTZ
  Basis Set:

    Orbital Energies (a.u.)
    -----------------------

    Doubly Occupied:

       1A    -15.527831     2A    -11.236295     3A    -11.236054
       4A    -11.211885     5A    -11.211759     6A    -11.207514
       7A    -11.207314     8A     -1.207176     9A     -1.060242
      10A     -1.026910    11A     -0.928603    12A     -0.868830
      13A     -0.811684    14A     -0.793879    15A     -0.670173
      16A     -0.627896    17A     -0.616336    18A     -0.612678
      19A     -0.575055    20A     -0.563180    21A     -0.531270
      22A     -0.528951    23A     -0.513965    24A     -0.485341
      25A     -0.483470    26A     -0.474638    27A     -0.466504
      28A     -0.451760    29A     -0.361283

  @DF-RHF Final Energy:  -290.48953311638343

   => Energetics <=

    Nuclear Repulsion Energy =            313.6743986655088747
    One-Electron Energy =               -1013.3309009524132307
    Two-Electron Energy =                 409.1669691705209857
    DFT Exchange-Correlation Energy =       0.0000000000000000
    Empirical Dispersion Energy =           0.0000000000000000
    PCM Polarization Energy =               0.0000000000000000
    EFP Energy =                            0.0000000000000000
    Total Energy =                       -290.4895331163833703
    Molecular point group: c1
  Basis Set: CC-PVTZ
  Basis Set:

  -Total Gradient:
     Atom            X                  Y                   Z
    ------   -----------------  -----------------  -----------------
       1        0.000001971194     0.000000055490     0.000002031206
       2       -0.000000649133     0.000000232612     0.000010790442
       3        0.000000125379    -0.000009206366    -0.000002527469
       4       -0.000002419824     0.000002273525    -0.000001275295
       5        0.000001997792    -0.000003039597     0.000000059182
       6        0.000001556712     0.000025904595    -0.000028433629
       7       -0.000007381032    -0.000005472024    -0.000001981924
       8        0.000003978426     0.000003285853     0.000001943058
       9       -0.000002475498    -0.000046779345     0.000002209823
      10        0.000007467894    -0.000010586802     0.000000527409
      11        0.000006293520     0.000001931446     0.000003035156
      12       -0.002019981759    -0.002752286224     0.000827590943
      13       -0.000021585618    -0.000011445295    -0.000021292177
      14        0.001833355146     0.002735511878     0.001367622003
      15        0.001452961797     0.001945612443    -0.000870839471
      16       -0.000009130081    -0.000006183088    -0.000005565924
      17       -0.000008269202     0.000008106116     0.000013405607
      18       -0.001219017480    -0.001856313015    -0.001283158869
      19       -0.000003900813    -0.000012228105    -0.000006635021
      20        0.000000010263    -0.000001420700    -0.000001844859
      21       -0.000009246995    -0.000002779830    -0.000000506376
      22       -0.000005660689    -0.000005173567    -0.000005153814

  **** Optimization is complete! (in 4 steps) ****
    Final optimized geometry and variables:
    Molecular point group: c1

    Geometry (in Angstrom), charge = 0, multiplicity = 1:

    H            4.572878259864     0.395120389863     0.573214875626
    C            3.733289717361    -0.264804169305     0.389515199187
    C            2.424352836394     0.515071833572     0.334691254531
    H            3.919754168221    -0.782884369948    -0.545290652825
    H            3.718006622059    -1.007079829025     1.180603035852
    C            1.216863144779    -0.374423602889     0.078171471071
    H            2.471579572168     1.268643525566    -0.443545304030
    H            2.283193102960     1.047329380784     1.272437617547
    N           -0.004784347077     0.397434513481     0.006593298226
    H            1.346342699564    -0.889368038099    -0.869086829995
    H            1.169771366650    -1.151437158745     0.847147235564
    C           -1.197818409859    -0.391265565068    -0.219655688394
    H           -0.111082926063     0.937975781243     0.839410654893
    C           -2.434880397577     0.492091421499    -0.315760770044
    H           -1.062793542202    -0.918076548618    -1.159157051792
    H           -1.344378917222    -1.149805383727     0.554174853289
    C           -3.731758144824    -0.311626623554    -0.322140828968
    H           -2.373973814552     1.079840616768    -1.224711876668
    H           -2.446717621335     1.190981171506     0.515999267558
    H           -3.750669842570    -1.017815172593    -1.145935313359
    H           -4.592889101264     0.337865379487    -0.426814541726
    H           -3.852193332552    -0.875111971753     0.596955652657

  Mulliken Charges: (a.u.)
   Center  Symbol    Alpha    Beta     Spin     Total
       1     H     0.44772  0.44772  0.00000  0.10457
       2     C     3.15359  3.15359  0.00000 -0.30718
       3     C     3.08028  3.08028  0.00000 -0.16056
       4     H     0.45476  0.45476  0.00000  0.09049
       5     H     0.45613  0.45613  0.00000  0.08774
       6     C     3.02203  3.02203  0.00000 -0.04406
       7     H     0.44913  0.44913  0.00000  0.10174
       8     H     0.45969  0.45969  0.00000  0.08062
       9     N     3.63989  3.63989  0.00000 -0.27977
      10     H     0.45932  0.45932  0.00000  0.08137
      11     H     0.47532  0.47532  0.00000  0.04935
      12     C     3.02432  3.02432  0.00000 -0.04864
      13     H     0.44512  0.44512  0.00000  0.10976
      14     C     3.07818  3.07818  0.00000 -0.15637
      15     H     0.45794  0.45794  0.00000  0.08412
      16     H     0.47410  0.47410  0.00000  0.05179
      17     C     3.15402  3.15402  0.00000 -0.30804
      18     H     0.44986  0.44986  0.00000  0.10028
      19     H     0.45946  0.45946  0.00000  0.08108
      20     H     0.45510  0.45510  0.00000  0.08980
      21     H     0.44784  0.44784  0.00000  0.10432
      22     H     0.45619  0.45619  0.00000  0.08762

   Total alpha = 29.00000, Total beta = 29.00000, Total charge = -0.00000

*** Psi4 exiting successfully. Buy a developer a beer!
