  ==> Input File <==

--------------------------------------------------------------------------
set {
	reference rhf
	basis 6-31G*
}

set_num_threads( 4 )
memory 2 gb

molecule MOL {
0 1

H	 -2.106015	 -1.146601	 -1.129634
N	 -1.397775	 -0.438564	 -1.153269
C	 -0.563778	 -0.502042	 0.037919
H	 -1.871470	 0.443369	 -1.203893
C	 0.575259	 0.508231	 -0.048326
H	 -0.149144	 -1.503868	 0.098083
H	 -1.122160	 -0.338513	 0.963236
C	 1.954651	 -0.143624	 0.035137
H	 0.475158	 1.060484	 -0.977307
H	 0.469181	 1.234488	 0.755973
H	 2.103292	 -0.853109	 -0.774172
H	 2.742821	 0.599562	 -0.030094
H	 2.083613	 -0.679371	 0.971560

	symmetry c1
}
set optking {
	frozen_dihedral = ("
		6 3 5 9
	")
}

ee = optimize('scf')
oeprop('DIPOLE', 'QUADRUPOLE', 'MULLIKEN_CHARGES')
f=open( 'psi4out.xyz', 'w' )
f.write( "13  " )
f.write( str(ee) + "\n" )
f.write( MOL.save_string_xyz() )
f.close()
--------------------------------------------------------------------------

    Molecular point group: c1
  Charge       = 0
  Multiplicity = 1
  Basis Set: 6-31G*
  Basis Set:
  @DF-RHF Final Energy:  -173.27592563410713
    Total Energy =                       -173.2759256341071250
    Molecular point group: c1
  Basis Set: 6-31G*
  Basis Set:
  Basis Set: 6-31G*
  Basis Set:
  @DF-RHF Final Energy:  -173.27621221538098
    Total Energy =                       -173.2762122153808946
  Basis Set: 6-31G*
  Basis Set:
  Basis Set: 6-31G*
  Basis Set:
  @DF-RHF Final Energy:  -173.27632191109777
    Total Energy =                       -173.2763219110976820
  Basis Set: 6-31G*
  Basis Set:
  Charge       = 0
  Multiplicity = 1
  Basis Set: 6-31G*
  Basis Set:

    Orbital Energies (a.u.)
    -----------------------

    Doubly Occupied:

       1A    -15.533141     2A    -11.240105     3A    -11.211754
       4A    -11.206795     5A     -1.175747     6A     -1.031304
       7A     -0.897266     8A     -0.800245     9A     -0.653134
      10A     -0.638877    11A     -0.594047    12A     -0.566124
      13A     -0.531775    14A     -0.485749    15A     -0.475682
      16A     -0.468806    17A     -0.379741

  @DF-RHF Final Energy:  -173.27632263589948

   => Energetics <=

    Nuclear Repulsion Energy =            131.8650168079619789
    One-Electron Energy =                -494.5021006933047261
    Two-Electron Energy =                 189.3607612494433283
    DFT Exchange-Correlation Energy =       0.0000000000000000
    Empirical Dispersion Energy =           0.0000000000000000
    PCM Polarization Energy =               0.0000000000000000
    EFP Energy =                            0.0000000000000000
    Total Energy =                       -173.2763226358994189
    Molecular point group: c1
  Basis Set: 6-31G*
  Basis Set:

  -Total Gradient:
     Atom            X                  Y                   Z
    ------   -----------------  -----------------  -----------------
       1       -0.000020051705    -0.000008988514    -0.000025207338
       2        0.000019072733    -0.000066647382     0.000072356461
       3       -0.000109782883     0.000119974376    -0.000493780149
       4        0.000035835228    -0.000014999711     0.000038166630
       5        0.000318240883    -0.000292468639    -0.000085628732
       6       -0.000016299168     0.000020102319     0.000295819090
       7       -0.000006473827    -0.000010998956     0.000026508627
       8       -0.000024166210     0.000031210414     0.000007793587
       9       -0.000200405181     0.000243458105     0.000142510567
      10       -0.000000428049    -0.000016444362     0.000000637773
      11       -0.000018518735    -0.000010385709     0.000020815084
      12        0.000008457753     0.000001406515    -0.000013724067
      13        0.000014519156     0.000004781546     0.000013732465

  **** Optimization is complete! (in 4 steps) ****
    Final optimized geometry and variables:
    Molecular point group: c1

    Geometry (in Angstrom), charge = 0, multiplicity = 1:

    H           -2.235022676917    -0.994139897290    -0.832029352933
    N           -1.515131383379    -0.297827423472    -0.868632817462
    C           -0.687608928488    -0.352089192374     0.330469663017
    H           -1.976827558847     0.589681746614    -0.934461626004
    C            0.468756216666     0.665005331983     0.254189122312
    H           -0.286900133783    -1.358238005332     0.397269188120
    H           -1.260273321973    -0.190899987082     1.245541728597
    C            1.851597613029     0.017230935917     0.322191561396
    H            0.380311735827     1.215477028852    -0.677009442714
    H            0.376712732872     1.393677619701     1.055158124046
    H            1.987522538509    -0.685815175594    -0.494008217857
    H            2.638632610287     0.762205033911     0.256623225769
    H            1.986796394405    -0.524834491251     1.254293273160

  Mulliken Charges: (a.u.)
   Center  Symbol    Alpha    Beta     Spin     Total
       1     H     0.33354  0.33354  0.00000  0.33293
       2     N     3.92069  3.92069  0.00000 -0.84139
       3     C     3.06510  3.06510  0.00000 -0.13019
       4     H     0.33548  0.33548  0.00000  0.32905
       5     C     3.15714  3.15714  0.00000 -0.31429
       6     H     0.41778  0.41778  0.00000  0.16445
       7     H     0.43228  0.43228  0.00000  0.13544
       8     C     3.24216  3.24216  0.00000 -0.48431
       9     H     0.41245  0.41245  0.00000  0.17510
      10     H     0.42310  0.42310  0.00000  0.15381
      11     H     0.41641  0.41641  0.00000  0.16718
      12     H     0.42060  0.42060  0.00000  0.15881
      13     H     0.42328  0.42328  0.00000  0.15343

   Total alpha = 17.00000, Total beta = 17.00000, Total charge =  0.00000
