  ==> Input File <==

--------------------------------------------------------------------------
set {
	reference rhf
	basis 6-31G*
}

set_num_threads( 4 )
memory 2 gb

molecule MOL {
0 1

O	 -3.258604	 0.420159	 -0.991373
C	 -2.668563	 0.129746	 -0.000350
C	 -3.187552	 0.385199	 1.391290
O	 -1.481751	 -0.454642	 0.000584
H	 -4.138889	 -0.120409	 1.506097
H	 -2.496601	 0.043986	 2.147992
H	 -3.365129	 1.447747	 1.506780
C	 -0.334255	 0.388708	 0.000906
C	 0.891947	 -0.504646	 0.000751
H	 -0.365390	 1.025305	 -0.873475
H	 -0.365484	 1.024911	 0.875569
C	 2.191998	 0.301789	 0.000897
H	 0.855148	 -1.151283	 -0.871571
H	 0.855132	 -1.151660	 0.872805
C	 3.441114	 -0.581407	 0.000108
H	 2.215074	 0.954890	 -0.869742
H	 2.215465	 0.953923	 0.872248
C	 4.739576	 0.224112	 -0.001102
H	 3.419457	 -1.233487	 -0.870178
H	 3.420834	 -1.233096	 0.870717
H	 4.804918	 0.861552	 -0.878265
H	 5.606527	 -0.429058	 -0.001824
H	 4.806469	 0.861674	 0.875853

	symmetry c1
}
set optking {
	frozen_dihedral = ("
		1 2 4 8
	")
}

ee = optimize('scf')
oeprop('DIPOLE', 'QUADRUPOLE', 'MULLIKEN_CHARGES')
f=open( 'psi4out.xyz', 'w' )
f.write( "23  " )
f.write( str(ee) + "\n" )
f.write( MOL.save_string_xyz() )
f.close()
--------------------------------------------------------------------------

    Molecular point group: c1
  Charge       = 0
  Multiplicity = 1
  Basis Set: 6-31G*
  Basis Set:
  @DF-RHF Final Energy:  -422.95757655520242
    Total Energy =                       -422.9575765552025359
    Molecular point group: c1
  Basis Set: 6-31G*
  Basis Set:
  Basis Set: 6-31G*
  Basis Set:
  @DF-RHF Final Energy:  -422.95781067876061
    Total Energy =                       -422.9578106787600973
  Basis Set: 6-31G*
  Basis Set:
  Basis Set: 6-31G*
  Basis Set:
  @DF-RHF Final Energy:  -422.95878672650684
    Total Energy =                       -422.9587867265067871
  Basis Set: 6-31G*
  Basis Set:
  Basis Set: 6-31G*
  Basis Set:
  @DF-RHF Final Energy:  -422.95903426621572
    Total Energy =                       -422.9590342662162357
  Basis Set: 6-31G*
  Basis Set:
  @DF-RHF Final Energy:  -422.95905149027726
    Total Energy =                       -422.9590514902770337
  @DF-RHF Final Energy:  -422.95906867677627
    Total Energy =                       -422.9590686767761554
  @DF-RHF Final Energy:  -422.95906339528187
    Total Energy =                       -422.9590633952822145
  @DF-RHF Final Energy:  -422.95909321639886
    Total Energy =                       -422.9590932163994239
  @DF-RHF Final Energy:  -422.95915040009726
    Total Energy =                       -422.9591504000968598
  @DF-RHF Final Energy:  -422.95859485607394
    Total Energy =                       -422.9585948560738871
  @DF-RHF Final Energy:  -422.95921285572592
    Total Energy =                       -422.9592128557259230
  @DF-RHF Final Energy:  -422.95939742045505
    Total Energy =                       -422.9593974204556162
  @DF-RHF Final Energy:  -422.95966260806586
    Total Energy =                       -422.9596626080658552
  @DF-RHF Final Energy:  -422.95992267990238
    Total Energy =                       -422.9599226799017515
  @DF-RHF Final Energy:  -422.96001251993505
    Total Energy =                       -422.9600125199352760
  @DF-RHF Final Energy:  -422.96016796665424
    Total Energy =                       -422.9601679666536711
  @DF-RHF Final Energy:  -422.96021196729095
    Total Energy =                       -422.9602119672907747
  @DF-RHF Final Energy:  -422.95678747879924
    Total Energy =                       -422.9567874787987876
  @DF-RHF Final Energy:  -422.95560088085819
    Total Energy =                       -422.9556008808588103
  @DF-RHF Final Energy:  -422.95268882043109
    Total Energy =                       -422.9526888204309216
  @DF-RHF Final Energy:  -422.95942970142079
    Total Energy =                       -422.9594297014207314
  @DF-RHF Final Energy:  -422.95971137422771
    Total Energy =                       -422.9597113742280499
  @DF-RHF Final Energy:  -422.95655485060945
    Total Energy =                       -422.9565548506102459
  @DF-RHF Final Energy:  -422.95145218892077
    Total Energy =                       -422.9514521889208254
  @DF-RHF Final Energy:  -422.95987956490183
    Total Energy =                       -422.9598795649021667
  @DF-RHF Final Energy:  -422.95820919077289
    Total Energy =                       -422.9582091907733457
  @DF-RHF Final Energy:  -422.95979053067771
    Total Energy =                       -422.9597905306776511
  @DF-RHF Final Energy:  -422.95992685795500
    Total Energy =                       -422.9599268579552245
  @DF-RHF Final Energy:  -422.95990601366037
    Total Energy =                       -422.9599060136608841
  @DF-RHF Final Energy:  -422.96008222818665
    Total Energy =                       -422.9600822281867067
  @DF-RHF Final Energy:  -422.96010210132351
    Total Energy =                       -422.9601021013235140
  @DF-RHF Final Energy:  -422.96014813087447
    Total Energy =                       -422.9601481308740176
  @DF-RHF Final Energy:  -422.96017175410907
    Total Energy =                       -422.9601717541097514
  @DF-RHF Final Energy:  -422.96018895923169
    Total Energy =                       -422.9601889592319139
  @DF-RHF Final Energy:  -422.96020241257673
    Total Energy =                       -422.9602024125769049
  @DF-RHF Final Energy:  -422.96021089538363
    Total Energy =                       -422.9602108953827155
  Basis Set: 6-31G*
  Basis Set:
  @DF-RHF Final Energy:  -422.96022682928242
    Total Energy =                       -422.9602268292819645
  Basis Set: 6-31G*
  Basis Set:
  Basis Set: 6-31G*
  Basis Set:
  @DF-RHF Final Energy:  -422.96023842963331
    Total Energy =                       -422.9602384296335913
  Basis Set: 6-31G*
  Basis Set:
  Basis Set: 6-31G*
  Basis Set:
  @DF-RHF Final Energy:  -422.96025224357260
    Total Energy =                       -422.9602522435734500
  Basis Set: 6-31G*
  Basis Set:
  Charge       = 0
  Multiplicity = 1
  Basis Set: 6-31G*
  Basis Set:

    Orbital Energies (a.u.)
    -----------------------

    Doubly Occupied:

       1A    -20.582686     2A    -20.555060     3A    -11.377005
       4A    -11.292274     5A    -11.236672     6A    -11.226927
       7A    -11.226330     8A    -11.223476     9A    -11.214693
      10A     -1.456840    11A     -1.365504    12A     -1.094712
      13A     -1.036950    14A     -1.008409    15A     -0.934263
      16A     -0.842806    17A     -0.804964    18A     -0.775015
      19A     -0.698045    20A     -0.685955    21A     -0.654033
      22A     -0.648363    23A     -0.619216    24A     -0.591158
      25A     -0.582162    26A     -0.575946    27A     -0.560632
      28A     -0.548502    29A     -0.515086    30A     -0.502062
      31A     -0.489239    32A     -0.479542    33A     -0.473358
      34A     -0.471864    35A     -0.451846    36A     -0.433938

  @DF-RHF Final Energy:  -422.96026260552060

   => Energetics <=

    Nuclear Repulsion Energy =            448.5395433442965896
    One-Electron Energy =               -1464.5285449886087008
    Two-Electron Energy =                 593.0287390387915138
    DFT Exchange-Correlation Energy =       0.0000000000000000
    Empirical Dispersion Energy =           0.0000000000000000
    PCM Polarization Energy =               0.0000000000000000
    EFP Energy =                            0.0000000000000000
    Total Energy =                       -422.9602626055205974
    Molecular point group: c1
  Basis Set: 6-31G*
  Basis Set:

  -Total Gradient:
     Atom            X                  Y                   Z
    ------   -----------------  -----------------  -----------------
       1       -0.003287930478    -0.003680685918    -0.002572606508
       2        0.004152452885     0.006992331266     0.003594493064
       3        0.000223079169    -0.000655390272    -0.001458202737
       4       -0.000434081841    -0.001790159049    -0.002906433099
       5       -0.000398019198     0.000658213082     0.000420588741
       6       -0.000263212735    -0.000868489008     0.000609190556
       7        0.000100124332    -0.000315083364     0.000305174236
       8       -0.000591881250    -0.001080521802     0.002557009885
       9        0.001504174194    -0.000186717695    -0.000056974078
      10       -0.000541107551     0.000401871704    -0.000156589553
      11        0.000188301630    -0.000031542547    -0.000593883493
      12       -0.000126773920    -0.000298932413    -0.002881620768
      13       -0.000315394329     0.000936340217    -0.000050780450
      14       -0.000752687050    -0.000260590938     0.000974445552
      15        0.000450051454     0.000110575346     0.001423015467
      16        0.000159914087     0.000291886036     0.000707120783
      17        0.000181389751    -0.000512234279     0.000342682633
      18       -0.000380141728     0.000512891689     0.000729845579
      19       -0.000299141554     0.000440845028     0.000100457385
      20       -0.000336194050    -0.000523266756     0.000325185445
      21        0.000521649792     0.000051618647    -0.000615045003
      22        0.000456532669     0.000187701329    -0.000474327264
      23       -0.000211104268    -0.000380660299    -0.000322746371

    Molecular point group: c1

    Geometry (in Angstrom), charge = 0, multiplicity = 1:

    O           -3.233007157013     0.427356610709    -1.054661606817
    C           -2.693545601132     0.161784728340    -0.036247187450
    C           -3.314382910253     0.358305222310     1.321915922179
    O           -1.499550901490    -0.470584669779    -0.004794804950
    H           -3.767783538125    -0.580351394712     1.624564138539
    H           -2.574231905484     0.612500591021     2.070200555763
    H           -4.085513527416     1.113209884885     1.277312392078
    C           -0.340063013616     0.347381240080    -0.012291097462
    C            0.878109780543    -0.556972923443    -0.056393218907
    H           -0.375013761073     1.000495115252    -0.877856120905
    H           -0.325143344067     0.968247970098     0.879362357654
    C            2.190125152745     0.228078831631    -0.025328865022
    H            0.819382723714    -1.156918716601    -0.958730610299
    H            0.825627209335    -1.240811191491     0.788028395414
    C            3.427597472184    -0.670552944008    -0.075022494107
    H            2.220765318948     0.930583481590    -0.855423498690
    H            2.229576673138     0.827589007188     0.883276361453
    C            4.734710129159     0.121731090689    -0.074503057984
    H            3.381781009955    -1.288647198565    -0.968245659407
    H            3.410535835646    -1.354021198926     0.771586702639
    H            4.794786446197     0.780994676121    -0.936687562782
    H            5.596706219259    -0.537965413895    -0.109781765688
    H            4.821956950105     0.733137590858     0.818273006541

  Mulliken Charges: (a.u.)
   Center  Symbol    Alpha    Beta     Spin     Total
       1     O     4.24986  4.24986  0.00000 -0.49972
       2     C     2.62652  2.62652  0.00000  0.74695
       3     C     3.28713  3.28713  0.00000 -0.57426
       4     O     4.32158  4.32158  0.00000 -0.64315
       5     H     0.39553  0.39553  0.00000  0.20893
       6     H     0.40774  0.40774  0.00000  0.18451
       7     H     0.39746  0.39746  0.00000  0.20508
       8     C     2.99564  2.99564  0.00000  0.00872
       9     C     3.16293  3.16293  0.00000 -0.32586
      10     H     0.41179  0.41179  0.00000  0.17641
      11     H     0.42578  0.42578  0.00000  0.14844
      12     C     3.16098  3.16098  0.00000 -0.32196
      13     H     0.40874  0.40874  0.00000  0.18252
      14     H     0.41318  0.41318  0.00000  0.17365
      15     C     3.15154  3.15154  0.00000 -0.30307
      16     H     0.42012  0.42012  0.00000  0.15975
      17     H     0.42294  0.42294  0.00000  0.15411
      18     C     3.24016  3.24016  0.00000 -0.48033
      19     H     0.42007  0.42007  0.00000  0.15986
      20     H     0.42100  0.42100  0.00000  0.15801
      21     H     0.42063  0.42063  0.00000  0.15874
      22     H     0.41740  0.41740  0.00000  0.16520
      23     H     0.42126  0.42126  0.00000  0.15747

   Total alpha = 36.00000, Total beta = 36.00000, Total charge =  0.00000
