  ==> Input File <==

--------------------------------------------------------------------------
set {
	reference rhf
	basis 6-31G*
}

set_num_threads( 4 )
memory 2 gb

molecule MOL {
0 1

O	 3.225979	 0.970355	 -0.599647
C	 2.701189	 0.057885	 -0.047330
C	 1.245376	 -0.013843	 0.345420
O	 3.347903	 -1.046386	 0.304773
C	 0.455112	 1.231400	 -0.050772
H	 0.838542	 -0.913825	 -0.103701
H	 1.208210	 -0.175333	 1.419774
C	 -0.998893	 1.219485	 0.433193
H	 0.482531	 1.345121	 -1.130325
H	 0.957290	 2.103070	 0.354729
C	 -1.883438	 0.145884	 -0.207175
H	 -1.431207	 2.195402	 0.224832
H	 -1.019646	 1.105716	 1.516076
C	 -3.347647	 0.245583	 0.225435
H	 -1.822183	 0.231698	 -1.291012
H	 -1.510341	 -0.844814	 0.042401
C	 -3.569713	 -0.103913	 1.698075
H	 -3.951744	 -0.414504	 -0.394717
H	 -3.710593	 1.254951	 0.037965
C	 -5.035019	 -0.005597	 2.121057
H	 -3.206659	 -1.111881	 1.887374
H	 -2.970039	 0.557689	 2.319729
H	 -5.160137	 -0.258980	 3.169269
H	 -5.656702	 -0.681759	 1.540961
H	 -5.418329	 1.000542	 1.976032
C	 4.728119	 -1.109107	 -0.004993
H	 4.882018	 -1.033965	 -1.071845
H	 5.068212	 -2.067527	 0.355250
H	 5.265056	 -0.311663	 0.488280

	symmetry c1
}
set optking {
	frozen_dihedral = ("
		17 14 11 15
	")
}

ee = optimize('scf')
oeprop('DIPOLE', 'QUADRUPOLE', 'MULLIKEN_CHARGES')
f=open( 'psi4out.xyz', 'w' )
f.write( "29  " )
f.write( str(ee) + "\n" )
f.write( MOL.save_string_xyz() )
f.close()
--------------------------------------------------------------------------

    Molecular point group: c1
  Charge       = 0
  Multiplicity = 1
  Basis Set: 6-31G*
  Basis Set:
  @DF-RHF Final Energy:  -501.04198394488242
    Total Energy =                       -501.0419839448823041
    Molecular point group: c1
  Basis Set: 6-31G*
  Basis Set:
  Basis Set: 6-31G*
  Basis Set:
  @DF-RHF Final Energy:  -501.04225805918315
    Total Energy =                       -501.0422580591836095
  Basis Set: 6-31G*
  Basis Set:
  Basis Set: 6-31G*
  Basis Set:
  @DF-RHF Final Energy:  -501.04245203457810
    Total Energy =                       -501.0424520345779911
  Basis Set: 6-31G*
  Basis Set:
  Basis Set: 6-31G*
  Basis Set:
  @DF-RHF Final Energy:  -501.04245589658717
    Total Energy =                       -501.0424558965869437
  Basis Set: 6-31G*
  Basis Set:
  @DF-RHF Final Energy:  -501.04244910758496
    Total Energy =                       -501.0424491075840479
  Basis Set: 6-31G*
  Basis Set:
  @DF-RHF Final Energy:  -501.04246248664936
    Total Energy =                       -501.0424624866495833
  Basis Set: 6-31G*
  Basis Set:
  Basis Set: 6-31G*
  Basis Set:
  @DF-RHF Final Energy:  -501.04245668690101
    Total Energy =                       -501.0424566869013461
  Basis Set: 6-31G*
  Basis Set:
  Basis Set: 6-31G*
  Basis Set:
  @DF-RHF Final Energy:  -501.04246444674152
    Total Energy =                       -501.0424644467408370
  Basis Set: 6-31G*
  Basis Set:
  Charge       = 0
  Multiplicity = 1
  Basis Set: 6-31G*
  Basis Set:

    Orbital Energies (a.u.)
    -----------------------

    Doubly Occupied:

       1A    -20.603353     2A    -20.545174     3A    -11.371980
       4A    -11.280649     5A    -11.234714     6A    -11.219081
       7A    -11.217332     8A    -11.216288     9A    -11.215841
      10A    -11.214740    11A    -11.209240    12A     -1.469047
      13A     -1.362489    14A     -1.098140    15A     -1.066098
      16A     -1.018064    17A     -0.977101    18A     -0.929008
      19A     -0.861775    20A     -0.813901    21A     -0.779049
      22A     -0.761539    23A     -0.700650    24A     -0.682322
      25A     -0.671764    26A     -0.642414    27A     -0.627639
      28A     -0.609889    29A     -0.597960    30A     -0.580666
      31A     -0.563134    32A     -0.556426    33A     -0.542337
      34A     -0.524625    35A     -0.512991    36A     -0.510450
      37A     -0.495569    38A     -0.483355    39A     -0.472315
      40A     -0.457498    41A     -0.456742    42A     -0.447375
      43A     -0.445515    44A     -0.436592

  @DF-RHF Final Energy:  -501.04246453052940

   => Energetics <=

    Nuclear Repulsion Energy =            615.2166867012361990
    One-Electron Energy =               -1901.5526306994493098
    Two-Electron Energy =                 785.2934794676847332
    DFT Exchange-Correlation Energy =       0.0000000000000000
    Empirical Dispersion Energy =           0.0000000000000000
    PCM Polarization Energy =               0.0000000000000000
    EFP Energy =                            0.0000000000000000
    Total Energy =                       -501.0424645305284912
    Molecular point group: c1
  Basis Set: 6-31G*
  Basis Set:

  -Total Gradient:
     Atom            X                  Y                   Z
    ------   -----------------  -----------------  -----------------
       1       -0.000006778997    -0.000008375048    -0.000021245242
       2        0.000015293410     0.000029353586     0.000059668796
       3        0.000000001484    -0.000001480867    -0.000012727703
       4       -0.000003100057    -0.000008475438    -0.000014728045
       5       -0.000004303310    -0.000013330166    -0.000007761938
       6       -0.000004702123     0.000003377986    -0.000002147216
       7        0.000001929284    -0.000001990089    -0.000000675836
       8        0.000020363246     0.000004286997     0.000028068410
       9       -0.000002133228    -0.000005973718     0.000000488899
      10       -0.000000772154     0.000004332438    -0.000000337002
      11        0.000029809091     0.000466004582    -0.000025130873
      12        0.000009960986     0.000004375219    -0.000000332685
      13        0.000005167291     0.000003935979    -0.000001106823
      14        0.000050576285     0.000382004033     0.000112215867
      15       -0.000054833567    -0.000506913700    -0.000032900147
      16       -0.000003438092     0.000006218285    -0.000005903062
      17       -0.000049998356    -0.000338505124    -0.000069440292
      18       -0.000000738773    -0.000002448033     0.000002137000
      19        0.000002938616    -0.000005870089    -0.000000921779
      20        0.000000025055    -0.000011190123    -0.000003857530
      21       -0.000001891410     0.000001180262     0.000000495003
      22       -0.000001629242    -0.000000301148    -0.000001513515
      23        0.000000638022    -0.000005258843    -0.000001883561
      24       -0.000004096819     0.000003934756    -0.000004943551
      25        0.000002119488     0.000001818812     0.000005505562
      26       -0.000000213926    -0.000000507995    -0.000000533164
      27        0.000000650081    -0.000000123591    -0.000000218396
      28       -0.000000091134    -0.000000215360    -0.000000332676
      29       -0.000000751171     0.000000136401     0.000000061500

  **** Optimization is complete! (in 9 steps) ****
    Final optimized geometry and variables:
    Molecular point group: c1

    Geometry (in Angstrom), charge = 0, multiplicity = 1:

    O            3.108070427539     0.836686556869    -1.026151775614
    C            2.599254752935    -0.075806559912    -0.459110675516
    C            1.154577530209    -0.148614153531    -0.027428197839
    O            3.256266885110    -1.179204160572    -0.123736072068
    C            0.352337499558     1.094897769790    -0.404620321899
    H            0.736685366142    -1.049756450341    -0.463933686609
    H            1.146349286597    -0.308320047336     1.047818595136
    C           -1.087280482714     1.082282751899     0.121325702563
    H            0.348735008678     1.205136552057    -1.484866956519
    H            0.864861499202     1.968264536600    -0.016037319387
    C           -1.979767241739    -0.001236873506    -0.494246858398
    H           -1.529718611149     2.054349315911    -0.085491853707
    H           -1.069790763825     0.981742929848     1.204012014404
    C           -3.461856248402     0.110209928287    -0.116898660798
    H           -1.894364884222     0.050899827664    -1.578017087987
    H           -1.620816158427    -0.988370325912    -0.210879588629
    C           -3.773387856728    -0.185807635318     1.352783960820
    H           -4.027493410552    -0.583768910742    -0.735425137808
    H           -3.824636844465     1.105143582324    -0.369834418371
    C           -5.270911824803    -0.143983904145     1.656682727142
    H           -3.380610234031    -1.167423332828     1.610915200975
    H           -3.262047618584     0.526783796063     1.994040114410
    H           -5.466495876752    -0.358585462743     2.702787096138
    H           -5.812593389563    -0.874174059466     1.062037763952
    H           -5.688020302422     0.834712344373     1.436556445868
    C            4.627706800796    -1.240875574504    -0.470477724804
    H            4.752782273113    -1.166398962941    -1.541143135631
    H            4.978258386425    -2.198704825376    -0.118807910091
    H            5.176960381118    -0.442563323994     0.007598355840

  Mulliken Charges: (a.u.)
   Center  Symbol    Alpha    Beta     Spin     Total
       1     O     4.28597  4.28597  0.00000 -0.57193
       2     C     2.60490  2.60490  0.00000  0.79019
       3     C     3.20966  3.20966  0.00000 -0.41932
       4     O     4.30744  4.30744  0.00000 -0.61488
       5     C     3.15376  3.15376  0.00000 -0.30752
       6     H     0.39868  0.39868  0.00000  0.20264
       7     H     0.40129  0.40129  0.00000  0.19742
       8     C     3.15805  3.15805  0.00000 -0.31610
       9     H     0.41320  0.41320  0.00000  0.17360
      10     H     0.40877  0.40877  0.00000  0.18246
      11     C     3.15668  3.15668  0.00000 -0.31336
      12     H     0.41869  0.41869  0.00000  0.16262
      13     H     0.42190  0.42190  0.00000  0.15621
      14     C     3.15176  3.15176  0.00000 -0.30352
      15     H     0.42092  0.42092  0.00000  0.15816
      16     H     0.42377  0.42377  0.00000  0.15245
      17     C     3.15343  3.15343  0.00000 -0.30685
      18     H     0.42187  0.42187  0.00000  0.15626
      19     H     0.42348  0.42348  0.00000  0.15304
      20     C     3.23920  3.23920  0.00000 -0.47839
      21     H     0.42391  0.42391  0.00000  0.15219
      22     H     0.42099  0.42099  0.00000  0.15801
      23     H     0.41933  0.41933  0.00000  0.16134
      24     H     0.42177  0.42177  0.00000  0.15647
      25     H     0.42146  0.42146  0.00000  0.15707
      26     C     3.09240  3.09240  0.00000 -0.18480
      27     H     0.40908  0.40908  0.00000  0.18184
      28     H     0.40852  0.40852  0.00000  0.18296
      29     H     0.40914  0.40914  0.00000  0.18173

   Total alpha = 44.00000, Total beta = 44.00000, Total charge =  0.00000
