                              Psi4 1.0.54 Driver

  ==> Input File <==

--------------------------------------------------------------------------
set {
	reference rhf
	basis cc-pvtz
}

set_num_threads( 4 )
memory 2 gb

molecule MOL {
0 1

H	 2.511918	 -1.826350	 -0.455462
O	 2.824271	 -1.154299	 0.131461
C	 2.076458	 -0.067370	 -0.038225
C	 0.626018	 -0.337582	 0.258241
O	 2.538288	 0.965419	 -0.381593
C	 -0.267326	 0.883135	 0.076490
H	 0.325620	 -1.161483	 -0.378003
H	 0.574537	 -0.713685	 1.275261
C	 -1.726822	 0.642622	 0.463839
H	 -0.210803	 1.217591	 -0.953497
H	 0.129920	 1.693110	 0.675679
C	 -2.480891	 -0.340606	 -0.429852
H	 -2.243098	 1.597649	 0.438609
H	 -1.776542	 0.301208	 1.495542
C	 -3.955933	 -0.460128	 -0.060472
H	 -2.393755	 -0.020485	 -1.464726
H	 -2.024244	 -1.323637	 -0.374360
H	 -4.467673	 -1.160944	 -0.709827
H	 -4.458917	 0.497287	 -0.144505
H	 -4.076458	 -0.806900	 0.960497

	symmetry c1
}
set optking {
	frozen_dihedral = ("
		1 2 3 5
	")
}

ee,wfn = optimize('scf', return_wfn=True)
oeprop( wfn, 'DIPOLE', 'QUADRUPOLE', 'MULLIKEN_CHARGES')
f=open( 'psi4out.xyz', 'w' )
f.write( "20  " )
f.write( str(ee) + "\n" )
f.write( MOL.save_string_xyz() )
f.close()
--------------------------------------------------------------------------

    Molecular point group: c1
  Charge       = 0
  Multiplicity = 1
  Basis Set: CC-PVTZ
  Basis Set:
  @DF-RHF Final Energy:  -384.07560535948937
    Total Energy =                       -384.0756053594889181
    Molecular point group: c1
  Basis Set: CC-PVTZ
  Basis Set:
  Basis Set: CC-PVTZ
  Basis Set:
  @DF-RHF Final Energy:  -384.07696333004958
    Total Energy =                       -384.0769633300494661
  Basis Set: CC-PVTZ
  Basis Set:
  Basis Set: CC-PVTZ
  Basis Set:
  @DF-RHF Final Energy:  -384.07707182675506
    Total Energy =                       -384.0770718267548318
  Basis Set: CC-PVTZ
  Basis Set:
  Basis Set: CC-PVTZ
  Basis Set:
  @DF-RHF Final Energy:  -384.07691519650740
    Total Energy =                       -384.0769151965076844
  Basis Set: CC-PVTZ
  Basis Set:
  Basis Set: CC-PVTZ
  Basis Set:
  @DF-RHF Final Energy:  -384.07712678852124
    Total Energy =                       -384.0771267885216957
  Basis Set: CC-PVTZ
  Basis Set:
  Charge       = 0
  Multiplicity = 1
  Basis Set: CC-PVTZ
  Basis Set:

    Orbital Energies (a.u.)
    -----------------------

    Doubly Occupied:

       1A    -20.590408     2A    -20.546838     3A    -11.373486
       4A    -11.244585     5A    -11.224398     6A    -11.222642
       7A    -11.221656     8A    -11.213725     9A     -1.464540
      10A     -1.371984    11A     -1.100421    12A     -1.043562
      13A     -0.960738    14A     -0.866820    15A     -0.824064
      16A     -0.788700    17A     -0.718405    18A     -0.673147
      19A     -0.667171    20A     -0.637457    21A     -0.617482
      22A     -0.590188    23A     -0.567500    24A     -0.563073
      25A     -0.531347    26A     -0.517820    27A     -0.497869
      28A     -0.497188    29A     -0.474103    30A     -0.469371
      31A     -0.461702    32A     -0.445462

  @DF-RHF Final Energy:  -384.07712743842427

   => Energetics <=

    Nuclear Repulsion Energy =            376.0474527596558687
    One-Electron Energy =               -1268.2734544943141373
    Two-Electron Energy =                 508.1488742962336005
    DFT Exchange-Correlation Energy =       0.0000000000000000
    Empirical Dispersion Energy =           0.0000000000000000
    PCM Polarization Energy =               0.0000000000000000
    EFP Energy =                            0.0000000000000000
    Total Energy =                       -384.0771274384246112
    Molecular point group: c1
  Basis Set: CC-PVTZ
  Basis Set:

  -Total Gradient:
     Atom            X                  Y                   Z
    ------   -----------------  -----------------  -----------------
       1        0.003513433585     0.002084013105    -0.003885169095
       2       -0.004805057668    -0.003028005519     0.002820036154
       3        0.001998508659     0.001910727781     0.005745586545
       4        0.000021855734     0.000043245020     0.000067008143
       5       -0.000715621630    -0.001000618329    -0.004717301881
       6        0.000012348859     0.000010531966     0.000010556560
       7       -0.000020582651    -0.000024429969    -0.000031608048
       8       -0.000020982220    -0.000004152399    -0.000019376483
       9       -0.000013762729     0.000024305565    -0.000003910040
      10        0.000000763451     0.000002561700     0.000016447798
      11        0.000000835679    -0.000010233598     0.000005075781
      12        0.000011541382     0.000001414777    -0.000012475752
      13       -0.000006406536     0.000000565614    -0.000009345975
      14       -0.000005420849     0.000014085195     0.000002963772
      15        0.000004498003    -0.000007334017     0.000009846186
      16       -0.000005254032     0.000001067422     0.000005825052
      17        0.000027599398    -0.000014772669    -0.000007340039
      18        0.000002503304    -0.000001813836     0.000001094212
      19        0.000003313427    -0.000000409208    -0.000001036018
      20       -0.000004113165    -0.000000748603     0.000003123128

  **** Optimization is complete! (in 6 steps) ****
    Final optimized geometry and variables:
    Molecular point group: c1

    Geometry (in Angstrom), charge = 0, multiplicity = 1:

    H            2.629517110358    -1.851214798818    -0.510192762019
    O            2.879995851370    -1.159478436034     0.078427415831
    C            2.085280383205    -0.071312846619    -0.052833772658
    C            0.629645928627    -0.332476239972     0.247938215385
    O            2.536734459442     0.968015934586    -0.358731415735
    C           -0.261775630892     0.891720021592     0.080771453282
    H            0.308146464272    -1.150293474578    -0.390305507912
    H            0.582936311490    -0.715978540758     1.262722120439
    C           -1.718810419695     0.657361547287     0.481189390706
    H           -0.213085496914     1.231720314671    -0.947963817199
    H            0.146837185665     1.695358439590     0.680265329140
    C           -2.486571048305    -0.320750853266    -0.406616385951
    H           -2.230389912868     1.614926336714     0.461985512337
    H           -1.760616229245     0.315146883161     1.512913638123
    C           -3.957374197404    -0.437878350847    -0.019680962563
    H           -2.411220869164     0.002278560154    -1.441593754623
    H           -2.032394204598    -1.305712819687    -0.359561199919
    H           -4.478134233977    -1.137696485374    -0.662884798004
    H           -4.459387198259     0.520433669331    -0.097832589906
    H           -4.066361382078    -0.784252657012     1.002678545399

  Mulliken Charges: (a.u.)
   Center  Symbol    Alpha    Beta     Spin     Total
       1     H     0.38941  0.38941  0.00000  0.22117
       2     O     4.16501  4.16501  0.00000 -0.33003
       3     C     2.79981  2.79981  0.00000  0.40039
       4     C     3.12203  3.12203  0.00000 -0.24406
       5     O     4.16244  4.16244  0.00000 -0.32488
       6     C     3.09570  3.09570  0.00000 -0.19140
       7     H     0.45129  0.45129  0.00000  0.09742
       8     H     0.43514  0.43514  0.00000  0.12971
       9     C     3.09923  3.09923  0.00000 -0.19847
      10     H     0.44547  0.44547  0.00000  0.10905
      11     H     0.43659  0.43659  0.00000  0.12681
      12     C     3.08709  3.08709  0.00000 -0.17419
      13     H     0.44489  0.44489  0.00000  0.11022
      14     H     0.45318  0.45318  0.00000  0.09365
      15     C     3.14930  3.14930  0.00000 -0.29860
      16     H     0.45236  0.45236  0.00000  0.09528
      17     H     0.45591  0.45591  0.00000  0.08818
      18     H     0.44771  0.44771  0.00000  0.10457
      19     H     0.45294  0.45294  0.00000  0.09413
      20     H     0.45448  0.45448  0.00000  0.09104

   Total alpha = 32.00000, Total beta = 32.00000, Total charge =  0.00000

*** Psi4 exiting successfully. Buy a developer a beer!
