                              Psi4 1.0.54 Driver

  ==> Input File <==

--------------------------------------------------------------------------
set {
	reference rhf
	basis cc-pvtz
}

set_num_threads( 4 )
memory 2 gb

molecule MOL {
0 1

H	 3.687662	 -0.979351	 -0.211534
O	 2.824271	 -1.154299	 0.131461
C	 2.076458	 -0.067370	 -0.038225
C	 0.626018	 -0.337582	 0.258241
O	 2.538288	 0.965419	 -0.381593
C	 -0.267326	 0.883135	 0.076490
H	 0.325620	 -1.161483	 -0.378003
H	 0.574537	 -0.713685	 1.275261
C	 -1.726822	 0.642622	 0.463839
H	 -0.210803	 1.217591	 -0.953497
H	 0.129920	 1.693110	 0.675679
C	 -2.480891	 -0.340606	 -0.429852
H	 -2.243098	 1.597649	 0.438609
H	 -1.776542	 0.301208	 1.495542
C	 -3.955933	 -0.460128	 -0.060472
H	 -2.393755	 -0.020485	 -1.464726
H	 -2.024244	 -1.323637	 -0.374360
H	 -4.467673	 -1.160944	 -0.709827
H	 -4.458917	 0.497287	 -0.144505
H	 -4.076458	 -0.806900	 0.960497

	symmetry c1
}
set optking {
	frozen_dihedral = ("
		1 2 3 5
	")
}

ee,wfn = optimize('scf', return_wfn=True)
oeprop( wfn, 'DIPOLE', 'QUADRUPOLE', 'MULLIKEN_CHARGES')
f=open( 'psi4out.xyz', 'w' )
f.write( "20  " )
f.write( str(ee) + "\n" )
f.write( MOL.save_string_xyz() )
f.close()
--------------------------------------------------------------------------

    Molecular point group: c1
  Charge       = 0
  Multiplicity = 1
  Basis Set: CC-PVTZ
  Basis Set:
  @DF-RHF Final Energy:  -384.09442107609436
    Total Energy =                       -384.0944210760944770
    Molecular point group: c1
  Basis Set: CC-PVTZ
  Basis Set:
  Basis Set: CC-PVTZ
  Basis Set:
  @DF-RHF Final Energy:  -384.09314193071782
    Total Energy =                       -384.0931419307179908
  Basis Set: CC-PVTZ
  Basis Set:
  Basis Set: CC-PVTZ
  Basis Set:
  @DF-RHF Final Energy:  -384.09442667106964
    Total Energy =                       -384.0944266710696411
  Basis Set: CC-PVTZ
  Basis Set:
  Basis Set: CC-PVTZ
  Basis Set:
  @DF-RHF Final Energy:  -384.09447706685336
    Total Energy =                       -384.0944770668538695
  Basis Set: CC-PVTZ
  Basis Set:
  Basis Set: CC-PVTZ
  Basis Set:
  @DF-RHF Final Energy:  -384.09447949614753
    Total Energy =                       -384.0944794961476987
  Basis Set: CC-PVTZ
  Basis Set:
  Basis Set: CC-PVTZ
  Basis Set:
  @DF-RHF Final Energy:  -384.09448103205722
    Total Energy =                       -384.0944810320576721
  Basis Set: CC-PVTZ
  Basis Set:
  Charge       = 0
  Multiplicity = 1
  Basis Set: CC-PVTZ
  Basis Set:

    Orbital Energies (a.u.)
    -----------------------

    Doubly Occupied:

       1A    -20.603420     2A    -20.540707     3A    -11.373409
       4A    -11.238573     5A    -11.221003     6A    -11.218809
       7A    -11.218194     8A    -11.210592     9A     -1.476941
      10A     -1.369127    11A     -1.097544    12A     -1.042227
      13A     -0.962484    14A     -0.870289    15A     -0.817965
      16A     -0.777994    17A     -0.703755    18A     -0.692789
      19A     -0.667077    20A     -0.635924    21A     -0.607948
      22A     -0.595266    23A     -0.574791    24A     -0.556729
      25A     -0.542490    26A     -0.513257    27A     -0.496361
      28A     -0.484506    29A     -0.471507    30A     -0.468426
      31A     -0.458375    32A     -0.446278

  @DF-RHF Final Energy:  -384.09448172823500

   => Energetics <=

    Nuclear Repulsion Energy =            376.5711336159325811
    One-Electron Energy =               -1269.4217213855779391
    Two-Electron Energy =                 508.7561060414103054
    DFT Exchange-Correlation Energy =       0.0000000000000000
    Empirical Dispersion Energy =           0.0000000000000000
    PCM Polarization Energy =               0.0000000000000000
    EFP Energy =                            0.0000000000000000
    Total Energy =                       -384.0944817282350527
    Molecular point group: c1
  Basis Set: CC-PVTZ
  Basis Set:

  -Total Gradient:
     Atom            X                  Y                   Z
    ------   -----------------  -----------------  -----------------
       1       -0.001116128819    -0.001468544308    -0.003104842524
       2        0.001462913909     0.002209114853     0.005459951815
       3       -0.000726249970    -0.001765157375    -0.005760284589
       4        0.000037872479     0.000048328931     0.000167348854
       5        0.000299653251     0.001020334050     0.003256604826
       6        0.000022725427    -0.000028371522    -0.000007111927
       7       -0.000008234305    -0.000015341881    -0.000015574974
       8        0.000002086841    -0.000021436414    -0.000001173241
       9        0.000016794685    -0.000005783958     0.000014046673
      10       -0.000005281478     0.000005099408     0.000003870647
      11        0.000005795864     0.000013374174     0.000008840345
      12       -0.000006330511     0.000025558609    -0.000032351228
      13        0.000008412386     0.000003513512    -0.000009828914
      14       -0.000005147302     0.000008392929     0.000014795376
      15        0.000009247292    -0.000019749633     0.000013379797
      16       -0.000006438491     0.000002072001    -0.000007302545
      17        0.000008276981    -0.000006166112    -0.000001399641
      18       -0.000000713995    -0.000008965406     0.000002322821
      19        0.000005466076     0.000001641254    -0.000008065058
      20       -0.000004720324     0.000002086884     0.000006773483

  **** Optimization is complete! (in 7 steps) ****
    Final optimized geometry and variables:
    Molecular point group: c1

    Geometry (in Angstrom), charge = 0, multiplicity = 1:

    H            3.701627211285    -0.978724790241    -0.137664056655
    O            2.831873933667    -1.142538118111     0.193841129279
    C            2.074766188979    -0.077005699622    -0.057898063449
    C            0.625619806828    -0.339815215810     0.250857403768
    O            2.530780436332     0.940217848676    -0.451012662891
    C           -0.263796098522     0.884330743990     0.073376684426
    H            0.317434366512    -1.161965204278    -0.384586285552
    H            0.578710198939    -0.717086849106     1.267390520742
    C           -1.722054163592     0.649897606722     0.469157166107
    H           -0.211362448533     1.218249494407    -0.956837354745
    H            0.139788468218     1.693157623926     0.670274342807
    C           -2.485274743843    -0.330106066178    -0.420455069131
    H           -2.234438134540     1.607102341741     0.446864305128
    H           -1.767454703835     0.308688222194     1.501143944633
    C           -3.956613726494    -0.450904228218    -0.036690193538
    H           -2.408343853471    -0.006625541900    -1.455125523705
    H           -2.028268755210    -1.313404950346    -0.372744028706
    H           -4.473974565573    -1.152537827683    -0.680704958001
    H           -4.461344274623     0.505975958723    -0.116328554660
    H           -4.066982097135    -0.797282107512     0.985575416586

  Mulliken Charges: (a.u.)
   Center  Symbol    Alpha    Beta     Spin     Total
       1     H     0.38215  0.38215  0.00000  0.23570
       2     O     4.16095  4.16095  0.00000 -0.32191
       3     C     2.80369  2.80369  0.00000  0.39261
       4     C     3.11171  3.11171  0.00000 -0.22342
       5     O     4.19044  4.19044  0.00000 -0.38087
       6     C     3.09272  3.09272  0.00000 -0.18543
       7     H     0.43812  0.43812  0.00000  0.12375
       8     H     0.43722  0.43722  0.00000  0.12556
       9     C     3.09914  3.09914  0.00000 -0.19828
      10     H     0.44521  0.44521  0.00000  0.10957
      11     H     0.43978  0.43978  0.00000  0.12043
      12     C     3.08687  3.08687  0.00000 -0.17374
      13     H     0.44552  0.44552  0.00000  0.10896
      14     H     0.45394  0.45394  0.00000  0.09213
      15     C     3.14957  3.14957  0.00000 -0.29913
      16     H     0.45248  0.45248  0.00000  0.09504
      17     H     0.45437  0.45437  0.00000  0.09125
      18     H     0.44775  0.44775  0.00000  0.10451
      19     H     0.45358  0.45358  0.00000  0.09285
      20     H     0.45480  0.45480  0.00000  0.09040

   Total alpha = 32.00000, Total beta = 32.00000, Total charge =  0.00000

*** Psi4 exiting successfully. Buy a developer a beer!
