  ==> Input File <==

--------------------------------------------------------------------------
set {
	reference rhf
	basis 6-31G*
}

set_num_threads( 4 )
memory 2 gb

molecule MOL {
0 1

H	 -3.892951	 0.981613	 -0.358725
C	 -3.196921	 0.361773	 0.172313
C	 -2.076860	 -0.007332	 -0.404944
H	 -3.439953	 0.057760	 1.173024
O	 -0.861342	 0.292551	 0.123683
H	 -2.053492	 -0.581970	 -1.314032
C	 0.268575	 0.022385	 -0.632723
C	 0.603647	 1.164439	 -1.565317
H	 0.161323	 -0.878293	 -1.226837
H	 1.097940	 -0.103869	 0.047497
F	 1.708291	 0.875059	 -2.237498
F	 -0.359149	 1.376437	 -2.447311
F	 0.807725	 2.291146	 -0.914722

	symmetry c1
}
set optking {
	frozen_dihedral = ("
		6 3 2 1
	")
}

ee = optimize('scf')
oeprop('DIPOLE', 'QUADRUPOLE', 'MULLIKEN_CHARGES')
f=open( 'psi4out.xyz', 'w' )
f.write( "13  " )
f.write( str(ee) + "\n" )
f.write( MOL.save_string_xyz() )
f.close()
--------------------------------------------------------------------------

    Molecular point group: c1
  Charge       = 0
  Multiplicity = 1
  Basis Set: 6-31G*
  Basis Set:
  @DF-RHF Final Energy:  -527.45730237887096
    Total Energy =                       -527.4573023788707360
    Molecular point group: c1
  Basis Set: 6-31G*
  Basis Set:
  Basis Set: 6-31G*
  Basis Set:
  @DF-RHF Final Energy:  -527.48456873405348
    Total Energy =                       -527.4845687340535960
  Basis Set: 6-31G*
  Basis Set:
  Basis Set: 6-31G*
  Basis Set:
  @DF-RHF Final Energy:  -527.50643832021944
    Total Energy =                       -527.5064383202191038
  Basis Set: 6-31G*
  Basis Set:
  Basis Set: 6-31G*
  Basis Set:
  @DF-RHF Final Energy:  -527.50906572636836
    Total Energy =                       -527.5090657263684761
  Basis Set: 6-31G*
  Basis Set:
  @DF-RHF Final Energy:  -527.50934588118719
    Total Energy =                       -527.5093458811873006
  @DF-RHF Final Energy:  -527.50942425963694
    Total Energy =                       -527.5094242596371714
  @DF-RHF Final Energy:  -527.50946861273405
    Total Energy =                       -527.5094686127338264
  @DF-RHF Final Energy:  -527.50943326070296
    Total Energy =                       -527.5094332607030765
  @DF-RHF Final Energy:  -527.44402830585307
    Total Energy =                       -527.4440283058535215
  @DF-RHF Final Energy:  -527.43288583217054
    Total Energy =                       -527.4328858321706548
  @DF-RHF Final Energy:  -527.48369995249732
    Total Energy =                       -527.4836999524974317
  @DF-RHF Final Energy:  -527.48971092300690
    Total Energy =                       -527.4897109230068963
  @DF-RHF Final Energy:  -527.49571958189267
    Total Energy =                       -527.4957195818925584
  @DF-RHF Final Energy:  -527.50596108832326
    Total Energy =                       -527.5059610883233745
  @DF-RHF Final Energy:  -527.50932572565284
    Total Energy =                       -527.5093257256530705
  Basis Set: 6-31G*
  Basis Set:
  @DF-RHF Final Energy:  -527.50945955168515
    Total Energy =                       -527.5094595516851541
  Basis Set: 6-31G*
  Basis Set:
  Basis Set: 6-31G*
  Basis Set:
  @DF-RHF Final Energy:  -527.50948759663515
    Total Energy =                       -527.5094875966352674
  Basis Set: 6-31G*
  Basis Set:
  Basis Set: 6-31G*
  Basis Set:
  @DF-RHF Final Energy:  -527.50949426349689
    Total Energy =                       -527.5094942634971176
  Basis Set: 6-31G*
  Basis Set:
  Charge       = 0
  Multiplicity = 1
  Basis Set: 6-31G*
  Basis Set:

    Orbital Energies (a.u.)
    -----------------------

    Doubly Occupied:

       1A    -26.345661     2A    -26.345048     3A    -26.341501
       4A    -20.608169     5A    -11.504308     6A    -11.319111
       7A    -11.308305     8A    -11.218828     9A     -1.742817
      10A     -1.641019    11A     -1.639262    12A     -1.437579
      13A     -1.086152    14A     -1.014269    15A     -0.925521
      16A     -0.838705    17A     -0.832006    18A     -0.824385
      19A     -0.793419    20A     -0.723085    21A     -0.712321
      22A     -0.697429    23A     -0.675255    24A     -0.659877
      25A     -0.654616    26A     -0.644206    27A     -0.629906
      28A     -0.590254    29A     -0.559848    30A     -0.516119
      31A     -0.510100    32A     -0.349215

  @DF-RHF Final Energy:  -527.50949498709883

   => Energetics <=

    Nuclear Repulsion Energy =            411.9235583575588748
    One-Electron Energy =               -1547.4895236042120814
    Two-Electron Energy =                 608.0564702595545441
    DFT Exchange-Correlation Energy =       0.0000000000000000
    Empirical Dispersion Energy =           0.0000000000000000
    PCM Polarization Energy =               0.0000000000000000
    EFP Energy =                            0.0000000000000000
    Total Energy =                       -527.5094949870986056
    Molecular point group: c1
  Basis Set: 6-31G*
  Basis Set:

  -Total Gradient:
     Atom            X                  Y                   Z
    ------   -----------------  -----------------  -----------------
       1        0.004161944957     0.026681009054     0.008961102741
       2       -0.000219989353    -0.048793436387    -0.006227003735
       3       -0.016859486596     0.044611113125    -0.016948158438
       4        0.000019739059     0.000041193549     0.000011451567
       5        0.000117936386    -0.000248826243    -0.000025489172
       6        0.012810310073    -0.022314474328     0.014239787381
       7       -0.000071815580     0.000038670438    -0.000026160189
       8        0.000061213318     0.000026473463    -0.000024625299
       9        0.000014701677    -0.000006661747    -0.000008486220
      10        0.000009211636     0.000006993789    -0.000013688004
      11        0.000013452636    -0.000047382890    -0.000014274469
      12       -0.000029026124    -0.000028218694     0.000038695060
      13       -0.000028192085     0.000033546871     0.000036848780

  **** Optimization is complete! (in 19 steps) ****
    Final optimized geometry and variables:
    Molecular point group: c1

    Geometry (in Angstrom), charge = 0, multiplicity = 1:

    H           -4.017724876872    -0.466165792638     0.989390425949
    C           -3.026952496462    -0.728905112666     1.314369312276
    C           -1.962273244715    -0.631032904029     0.526505966490
    H           -2.857211603635    -0.467262909410     2.347675791709
    O           -0.757295838396    -0.358194519493     1.107514994755
    H           -1.836777982364    -1.154148001153    -0.405886336227
    C            0.402433417796    -0.789792436826     0.478475870663
    C            0.934749362019     0.261561926584    -0.468304223021
    H            0.257947091058    -1.708115855080    -0.078802292988
    H            1.150091392206    -0.960642646805     1.239282392617
    F            2.051911100275    -0.174497826207    -1.031030614317
    F            0.074179202917     0.528647767909    -1.437489030709
    F            1.205675242854     1.392358244754     0.149859085497

  Mulliken Charges: (a.u.)
   Center  Symbol    Alpha    Beta     Spin     Total
       1     H     0.40450  0.40450  0.00000  0.19100
       2     C     3.23087  3.23087  0.00000 -0.46174
       3     C     2.89839  2.89839  0.00000  0.20322
       4     H     0.40773  0.40773  0.00000  0.18455
       5     O     4.29899  4.29899  0.00000 -0.59799
       6     H     0.40773  0.40773  0.00000  0.18454
       7     C     3.06567  3.06567  0.00000 -0.13134
       8     C     2.45516  2.45516  0.00000  1.08969
       9     H     0.40460  0.40460  0.00000  0.19080
      10     H     0.38941  0.38941  0.00000  0.22119
      11     F     4.68270  4.68270  0.00000 -0.36539
      12     F     4.67984  4.67984  0.00000 -0.35968
      13     F     4.67442  4.67442  0.00000 -0.34884

   Total alpha = 32.00000, Total beta = 32.00000, Total charge = -0.00000
