                              Psi4 1.0.54 Driver

  ==> Input File <==

--------------------------------------------------------------------------
set {
	reference rhf
	basis cc-pvtz
}

set_num_threads( 4 )
memory 2 gb

molecule MOL {
0 1

H	 1.641598	 -2.038924	 2.731768
O	 1.572505	 -1.819739	 1.814772
C	 0.787753	 -0.752294	 1.695787
C	 0.626018	 -0.337582	 0.258241
O	 0.297710	 -0.225311	 2.633864
C	 -0.267326	 0.883135	 0.076490
H	 1.622930	 -0.175755	 -0.133980
H	 0.231859	 -1.195626	 -0.277325
C	 -1.726822	 0.642622	 0.463839
H	 -0.210803	 1.217591	 -0.953497
H	 0.129920	 1.693110	 0.675679
C	 -2.480891	 -0.340606	 -0.429852
H	 -2.243098	 1.597649	 0.438609
H	 -1.776542	 0.301208	 1.495542
C	 -3.955933	 -0.460128	 -0.060472
H	 -2.393755	 -0.020485	 -1.464726
H	 -2.024244	 -1.323637	 -0.374360
H	 -4.467673	 -1.160944	 -0.709827
H	 -4.458917	 0.497287	 -0.144505
H	 -4.076458	 -0.806900	 0.960497

	symmetry c1
}
set optking {
	frozen_dihedral = ("
		7 4 6 10
	")
}

ee,wfn = optimize('scf', return_wfn=True)
oeprop( wfn, 'DIPOLE', 'QUADRUPOLE', 'MULLIKEN_CHARGES')
f=open( 'psi4out.xyz', 'w' )
f.write( "20  " )
f.write( str(ee) + "\n" )
f.write( MOL.save_string_xyz() )
f.close()
--------------------------------------------------------------------------

    Molecular point group: c1
  Charge       = 0
  Multiplicity = 1
  Basis Set: CC-PVTZ
  Basis Set:
  @DF-RHF Final Energy:  -384.09294682641189
    Total Energy =                       -384.0929468264114348
    Molecular point group: c1
  Basis Set: CC-PVTZ
  Basis Set:
  Basis Set: CC-PVTZ
  Basis Set:
  @DF-RHF Final Energy:  -384.09378843283525
    Total Energy =                       -384.0937884328354812
  Basis Set: CC-PVTZ
  Basis Set:
  Basis Set: CC-PVTZ
  Basis Set:
  @DF-RHF Final Energy:  -384.09169914049812
    Total Energy =                       -384.0916991404984628
  Basis Set: CC-PVTZ
  Basis Set:
  Basis Set: CC-PVTZ
  Basis Set:
  @DF-RHF Final Energy:  -384.09402086849980
    Total Energy =                       -384.0940208685001380
  Basis Set: CC-PVTZ
  Basis Set:
  @DF-RHF Final Energy:  -384.09412212317636
    Total Energy =                       -384.0941221231764757
  Basis Set: CC-PVTZ
  Basis Set:
  @DF-RHF Final Energy:  -384.09417214838243
    Total Energy =                       -384.0941721483823130
  Basis Set: CC-PVTZ
  Basis Set:
  Basis Set: CC-PVTZ
  Basis Set:
  @DF-RHF Final Energy:  -384.09418895420191
    Total Energy =                       -384.0941889542020817
  Basis Set: CC-PVTZ
  Basis Set:
  Basis Set: CC-PVTZ
  Basis Set:
  @DF-RHF Final Energy:  -384.09419130486191
    Total Energy =                       -384.0941913048617380
  Basis Set: CC-PVTZ
  Basis Set:
  Charge       = 0
  Multiplicity = 1
  Basis Set: CC-PVTZ
  Basis Set:

    Orbital Energies (a.u.)
    -----------------------

    Doubly Occupied:

       1A    -20.604910     2A    -20.540818     3A    -11.374233
       4A    -11.238904     5A    -11.222157     6A    -11.215737
       7A    -11.212270     8A    -11.207710     9A     -1.478398
      10A     -1.369579    11A     -1.095097    12A     -1.040158
      13A     -0.959718    14A     -0.872172    15A     -0.817295
      16A     -0.774578    17A     -0.705817    18A     -0.690263
      19A     -0.665748    20A     -0.634697    21A     -0.605261
      22A     -0.594464    23A     -0.575611    24A     -0.557469
      25A     -0.535003    26A     -0.513439    27A     -0.500866
      28A     -0.486476    29A     -0.468719    30A     -0.464383
      31A     -0.454426    32A     -0.443618

  @DF-RHF Final Energy:  -384.09419153203993

   => Energetics <=

    Nuclear Repulsion Energy =            385.7569400980412979
    One-Electron Energy =               -1287.8622763036426022
    Two-Electron Energy =                 518.0111446735609206
    DFT Exchange-Correlation Energy =       0.0000000000000000
    Empirical Dispersion Energy =           0.0000000000000000
    PCM Polarization Energy =               0.0000000000000000
    EFP Energy =                            0.0000000000000000
    Total Energy =                       -384.0941915320404405
    Molecular point group: c1
  Basis Set: CC-PVTZ
  Basis Set:

  -Total Gradient:
     Atom            X                  Y                   Z
    ------   -----------------  -----------------  -----------------
       1        0.000002527731    -0.000001412907    -0.000000905555
       2       -0.000014208261     0.000001321884     0.000031953006
       3        0.000019249222     0.000066456926     0.000003807854
       4       -0.000162112137    -0.000136307703    -0.000279616934
       5        0.000007558446    -0.000062388667    -0.000020402691
       6        0.000231746831     0.000180521695     0.000112840655
       7        0.000078100268     0.000078586037     0.000199264573
       8        0.000007674674    -0.000004663547     0.000002381371
       9        0.000002814428    -0.000007100218     0.000005768374
      10       -0.000174330831    -0.000128585399    -0.000050798102
      11       -0.000005244683     0.000004952890    -0.000000224458
      12        0.000003931387     0.000003877708     0.000001434709
      13       -0.000003340793     0.000000929540    -0.000002286028
      14        0.000002007168     0.000004029720    -0.000000313047
      15        0.000003461661     0.000001022673    -0.000000362136
      16        0.000000455529    -0.000001220695    -0.000002080814
      17       -0.000000061020    -0.000001475713    -0.000000851455
      18        0.000000677194     0.000000361983    -0.000001494096
      19       -0.000000535489     0.000001667100     0.000001008359
      20       -0.000000371320    -0.000000573309     0.000000876416

  **** Optimization is complete! (in 9 steps) ****
    Final optimized geometry and variables:
    Molecular point group: c1

    Geometry (in Angstrom), charge = 0, multiplicity = 1:

    H            2.190386569198    -1.795099778516     1.884770873916
    O            2.027456705687    -1.619779925222     0.970090026890
    C            1.468703867461    -0.417622298048     0.865891245489
    C            1.225986084746    -0.036744119840    -0.571244749869
    O            1.235136085401     0.249784962251     1.814000198248
    C            0.324833912905     1.181279356620    -0.754462374395
    H            2.209326651917     0.160411772388    -0.988260391669
    H            0.855468706208    -0.908884087838    -1.092857575168
    C           -1.145433699374     0.975944296820    -0.381267163882
    H            0.386035592240     1.485662272195    -1.794906466926
    H            0.726253253059     1.996161221611    -0.165595936133
    C           -1.907446220457     0.004473722158    -1.281406636868
    H           -1.636879183851     1.943548255162    -0.425607227388
    H           -1.216277269897     0.651041999102     0.651097376842
    C           -3.386468899061    -0.092693469262    -0.920610545001
    H           -1.810103991709     0.321141646013    -2.316759684595
    H           -1.467566886004    -0.986325383333    -1.223275015287
    H           -3.904825721727    -0.787790037349    -1.571074201538
    H           -3.874773635049     0.871842928283    -1.010077000629
    H           -3.517489431316    -0.434108525738     0.100686051890

  Mulliken Charges: (a.u.)
   Center  Symbol    Alpha    Beta     Spin     Total
       1     H     0.38207  0.38207  0.00000  0.23586
       2     O     4.15997  4.15997  0.00000 -0.31994
       3     C     2.80186  2.80186  0.00000  0.39627
       4     C     3.12233  3.12233  0.00000 -0.24465
       5     O     4.19364  4.19364  0.00000 -0.38729
       6     C     3.09913  3.09913  0.00000 -0.19825
       7     H     0.42948  0.42948  0.00000  0.14105
       8     H     0.43373  0.43373  0.00000  0.13254
       9     C     3.10225  3.10225  0.00000 -0.20450
      10     H     0.44548  0.44548  0.00000  0.10904
      11     H     0.43912  0.43912  0.00000  0.12177
      12     C     3.08607  3.08607  0.00000 -0.17214
      13     H     0.44713  0.44713  0.00000  0.10574
      14     H     0.44163  0.44163  0.00000  0.11674
      15     C     3.14927  3.14927  0.00000 -0.29854
      16     H     0.45488  0.45488  0.00000  0.09025
      17     H     0.45565  0.45565  0.00000  0.08869
      18     H     0.44862  0.44862  0.00000  0.10275
      19     H     0.45410  0.45410  0.00000  0.09179
      20     H     0.45359  0.45359  0.00000  0.09282

   Total alpha = 32.00000, Total beta = 32.00000, Total charge =  0.00000

*** Psi4 exiting successfully. Buy a developer a beer!
