                              Psi4 1.0.54 Driver

  ==> Input File <==

--------------------------------------------------------------------------
set {
	reference rhf
	basis cc-pvtz
}

set_num_threads( 4 )
memory 2 gb

molecule MOL {
0 1

H	 3.584743	 -0.223782	 0.801524
N	 3.091268	 -0.241216	 -0.065538
C	 1.860978	 0.530248	 0.016256
H	 2.898382	 -1.198346	 -0.275408
C	 0.644130	 -0.381765	 -0.031064
H	 1.835721	 1.204666	 -0.833114
H	 1.808789	 1.151975	 0.911067
C	 -0.678115	 0.376691	 0.025731
H	 0.693998	 -0.977147	 -0.936845
H	 0.693309	 -1.082142	 0.800523
C	 -1.900706	 -0.535531	 -0.022488
H	 -0.725296	 1.079516	 -0.802982
H	 -0.715474	 0.974884	 0.933278
C	 -3.220513	 0.226854	 0.028039
H	 -1.865036	 -1.134397	 -0.928236
H	 -1.857948	 -1.236381	 0.806820
H	 -3.309098	 0.911849	 -0.808725
H	 -4.066838	 -0.449485	 -0.008086
H	 -3.301685	 0.809374	 0.939860

	symmetry c1
}
set optking {
	frozen_dihedral = ("
		1 2 3 6
	")
}

ee,wfn = optimize('scf', return_wfn=True)
oeprop( wfn, 'DIPOLE', 'QUADRUPOLE', 'MULLIKEN_CHARGES')
f=open( 'psi4out.xyz', 'w' )
f.write( "19  " )
f.write( str(ee) + "\n" )
f.write( MOL.save_string_xyz() )
f.close()
--------------------------------------------------------------------------

    Molecular point group: c1
  Charge       = 0
  Multiplicity = 1
  Basis Set: CC-PVTZ
  Basis Set:
  @DF-RHF Final Energy:  -251.44355496261474
    Total Energy =                       -251.4435549626144848
    Molecular point group: c1
  Basis Set: CC-PVTZ
  Basis Set:
  Basis Set: CC-PVTZ
  Basis Set:
  @DF-RHF Final Energy:  -251.44461250042471
    Total Energy =                       -251.4446125004249097
  Basis Set: CC-PVTZ
  Basis Set:
  Basis Set: CC-PVTZ
  Basis Set:
  @DF-RHF Final Energy:  -251.44480110053007
    Total Energy =                       -251.4448011005304124
  Basis Set: CC-PVTZ
  Basis Set:
  Basis Set: CC-PVTZ
  Basis Set:
  @DF-RHF Final Energy:  -251.44482365991448
    Total Energy =                       -251.4448236599146753
  Basis Set: CC-PVTZ
  Basis Set:
  Basis Set: CC-PVTZ
  Basis Set:
  @DF-RHF Final Energy:  -251.44482742367785
    Total Energy =                       -251.4448274236779071
  Basis Set: CC-PVTZ
  Basis Set:
  Charge       = 0
  Multiplicity = 1
  Basis Set: CC-PVTZ
  Basis Set:

    Orbital Energies (a.u.)
    -----------------------

    Doubly Occupied:

       1A    -15.522548     2A    -11.237630     3A    -11.214426
       4A    -11.213199     5A    -11.212458     6A    -11.207228
       7A     -1.174846     8A     -1.076572     9A     -1.001068
      10A     -0.902069    11A     -0.819005    12A     -0.793224
      13A     -0.672336    14A     -0.642009    15A     -0.601366
      16A     -0.598288    17A     -0.568632    18A     -0.554881
      19A     -0.529083    20A     -0.500219    21A     -0.485642
      22A     -0.468110    23A     -0.465388    24A     -0.459633
      25A     -0.374312

  @DF-RHF Final Energy:  -251.44482769282055

   => Energetics <=

    Nuclear Repulsion Energy =            245.9235390832099313
    One-Electron Energy =                -826.1483923755793057
    Two-Electron Energy =                 328.7800255995487646
    DFT Exchange-Correlation Energy =       0.0000000000000000
    Empirical Dispersion Energy =           0.0000000000000000
    PCM Polarization Energy =               0.0000000000000000
    EFP Energy =                            0.0000000000000000
    Total Energy =                       -251.4448276928206383
    Molecular point group: c1
  Basis Set: CC-PVTZ
  Basis Set:

  -Total Gradient:
     Atom            X                  Y                   Z
    ------   -----------------  -----------------  -----------------
       1        0.001079723038     0.001948463795    -0.000646598999
       2       -0.001137463846    -0.002075097438     0.001114418118
       3       -0.000857195944    -0.001349125700    -0.001622435743
       4       -0.000019341437     0.000003320028    -0.000008255745
       5        0.000049680950    -0.000007679898    -0.000003716228
       6        0.000902321067     0.001482470425     0.001143508189
       7        0.000017935720     0.000011600618     0.000024587883
       8       -0.000036636168     0.000003377933    -0.000011416245
       9       -0.000019242201    -0.000004603445     0.000006906762
      10       -0.000008904179    -0.000011314520     0.000003966180
      11       -0.000001696386    -0.000006046743     0.000001110450
      12        0.000007831186     0.000003206539    -0.000010478313
      13        0.000000505516    -0.000003731542     0.000003606935
      14        0.000015792396     0.000010388149     0.000005147111
      15        0.000002344996     0.000000529240    -0.000006748761
      16        0.000001678720    -0.000007550323     0.000003929345
      17       -0.000001610522     0.000002457673    -0.000005118196
      18        0.000007420572    -0.000007004824     0.000002252167
      19       -0.000003143482     0.000006340033     0.000005335091

  **** Optimization is complete! (in 6 steps) ****
    Final optimized geometry and variables:
    Molecular point group: c1

    Geometry (in Angstrom), charge = 0, multiplicity = 1:

    H            3.615978116395    -0.199122018783     0.812319991583
    N            3.132824138123    -0.215679679459    -0.057041097462
    C            1.867562858950     0.505459877066    -0.001903354041
    H            3.018588075985    -1.163868337694    -0.339745966014
    C            0.636744888372    -0.393024549530    -0.001445753645
    H            1.812624251981     1.196790431034    -0.837986400270
    H            1.857684229917     1.123593330403     0.890356387171
    C           -0.676445227468     0.383057464711     0.009643948584
    H            0.668457070753    -1.032601544126    -0.881415448893
    H            0.680326409319    -1.053127936959     0.861531599979
    C           -1.911160835302    -0.513884758445    -0.001053740761
    H           -0.709317857467     1.046565462840    -0.851024241466
    H           -0.708276864843     1.023485452892     0.888121902825
    C           -3.220213944476     0.268222490862     0.013336265828
    H           -1.882862203118    -1.151948732657    -0.880091329821
    H           -1.879404484554    -1.178338717804     0.858128119549
    H           -3.297926343084     0.917064439137    -0.852735835973
    H           -4.075671509630    -0.397441306993     0.005194308371
    H           -3.294400262431     0.890989233734     0.898698386832

  Mulliken Charges: (a.u.)
   Center  Symbol    Alpha    Beta     Spin     Total
       1     H     0.42664  0.42664  0.00000  0.14671
       2     N     3.70042  3.70042  0.00000 -0.40084
       3     C     3.01741  3.01741  0.00000 -0.03481
       4     H     0.42675  0.42675  0.00000  0.14649
       5     C     3.08930  3.08930  0.00000 -0.17861
       6     H     0.46024  0.46024  0.00000  0.07952
       7     H     0.46135  0.46135  0.00000  0.07730
       8     C     3.09433  3.09433  0.00000 -0.18867
       9     H     0.45667  0.45667  0.00000  0.08666
      10     H     0.45705  0.45705  0.00000  0.08590
      11     C     3.08323  3.08323  0.00000 -0.16646
      12     H     0.45391  0.45391  0.00000  0.09218
      13     H     0.45505  0.45505  0.00000  0.08989
      14     C     3.14994  3.14994  0.00000 -0.29988
      15     H     0.45440  0.45440  0.00000  0.09121
      16     H     0.45477  0.45477  0.00000  0.09046
      17     H     0.45485  0.45485  0.00000  0.09030
      18     H     0.44845  0.44845  0.00000  0.10310
      19     H     0.45523  0.45523  0.00000  0.08955

   Total alpha = 25.00000, Total beta = 25.00000, Total charge = -0.00000

*** Psi4 exiting successfully. Buy a developer a beer!
