  ==> Input File <==

--------------------------------------------------------------------------
set {
	reference rhf
	basis 6-31G*
}

set_num_threads( 1 )
memory 2 gb

molecule MOL {
0 1

H	 2.176868	 -0.646004	 -0.217325
O	 1.337496	 -0.537251	 0.205931
C	 0.702312	 0.627605	 -0.264544
C	 -0.714990	 0.596302	 0.266387
H	 0.682322	 0.642550	 -1.350929
H	 1.215941	 1.520383	 0.085680
O	 -1.405996	 -0.526611	 -0.195820
H	 -1.257453	 1.468809	 -0.075599
H	 -0.688972	 0.618407	 1.353696
H	 -1.805905	 -0.948399	 0.553968

	symmetry c1
}
set optking {
	frozen_dihedral = ("
		5 3 4 7
	")
}

ee = energy('scf')
oeprop('DIPOLE', 'QUADRUPOLE', 'MULLIKEN_CHARGES')
f=open( 'psi4out.xyz', 'w' )
f.write( "10  " )
f.write( str(ee) + "\n" )
f.write( MOL.save_string_xyz() )
f.close()
--------------------------------------------------------------------------

    Molecular point group: c1

    Geometry (in Angstrom), charge = 0, multiplicity = 1:

       Center              X                  Y                   Z               Mass
    ------------   -----------------  -----------------  -----------------  -----------------
           H          2.191737577881    -0.651597930630    -0.225966105565     1.007825032070
           O          1.352365577881    -0.542844930630     0.197289894435    15.994914619560
           C          0.717181577881     0.622011069370    -0.273185105565    12.000000000000
           C         -0.700120422119     0.590708069370     0.257745894435    12.000000000000
           H          0.697191577881     0.636956069370    -1.359570105565     1.007825032070
           H          1.230810577881     1.514789069370     0.077038894435     1.007825032070
           O         -1.391126422119    -0.532204930630    -0.204461105565    15.994914619560
           H         -1.242583422119     1.463215069370    -0.084240105565     1.007825032070
           H         -0.674102422119     0.612813069370     1.345054894435     1.007825032070
           H         -1.791035422119    -0.953992930630     0.545326894435     1.007825032070

  Charge       = 0
  Multiplicity = 1
  Basis Set: 6-31G*
  Basis Set:

    Orbital Energies (a.u.)
    -----------------------

    Doubly Occupied:

       1A    -20.552570     2A    -20.549816     3A    -11.270353
       4A    -11.268614     5A     -1.370581     6A     -1.347536
       7A     -0.999499     8A     -0.832180     9A     -0.714243
      10A     -0.704413    11A     -0.613256    12A     -0.593480
      13A     -0.591258    14A     -0.521767    15A     -0.478657
      16A     -0.441934    17A     -0.434103

  @DF-RHF Final Energy:  -228.91788304559529

   => Energetics <=

    Nuclear Repulsion Energy =            133.8865022320050286
    One-Electron Energy =                -579.0403893459554183
    Two-Electron Energy =                 216.2360040683550437
    DFT Exchange-Correlation Energy =       0.0000000000000000
    Empirical Dispersion Energy =           0.0000000000000000
    PCM Polarization Energy =               0.0000000000000000
    EFP Energy =                            0.0000000000000000
    Total Energy =                       -228.9178830455953744

  Mulliken Charges: (a.u.)
   Center  Symbol    Alpha    Beta     Spin     Total
       1     H     0.28000  0.28000  0.00000  0.44000
       2     O     4.36902  4.36902  0.00000 -0.73803
       3     C     3.00109  3.00109  0.00000 -0.00217
       4     C     3.00255  3.00255  0.00000 -0.00511
       5     H     0.42370  0.42370  0.00000  0.15260
       6     H     0.43074  0.43074  0.00000  0.13852
       7     O     4.36478  4.36478  0.00000 -0.72957
       8     H     0.42552  0.42552  0.00000  0.14897
       9     H     0.42510  0.42510  0.00000  0.14980
      10     H     0.27751  0.27751  0.00000  0.44499

   Total alpha = 17.00000, Total beta = 17.00000, Total charge = -0.00000
