  ==> Input File <==

--------------------------------------------------------------------------
set {
	reference rhf
	basis cc-pvtz
}

set_num_threads( 4 )
memory 2 gb

molecule MOL {
0 1

H	 -2.644180	 -0.653737	 1.272255
C	 -2.092774	 -0.380414	 0.391915
O	 -0.808934	 -0.154049	 0.752536
F	 -2.163230	 -1.351640	 -0.507133
F	 -2.627232	 0.691260	 -0.169301
C	 0.085006	 0.250800	 -0.215074
C	 1.370439	 -0.548013	 -0.012993
Cl	 0.421658	 1.987697	 -0.091007
H	 -0.272219	 0.063284	 -1.212508
F	 1.143302	 -1.827893	 -0.165770
F	 1.803573	 -0.357652	 1.210720
F	 2.312193	 -0.188001	 -0.841087

	symmetry c1
}
set optking {
	frozen_dihedral = ("
		10 7 6 9
	")
}

ee = optimize('scf')
oeprop('DIPOLE', 'QUADRUPOLE', 'MULLIKEN_CHARGES')
f=open( 'psi4out.xyz', 'w' )
f.write( "12  " )
f.write( str(ee) + "\n" )
f.write( MOL.save_string_xyz() )
f.close()
--------------------------------------------------------------------------

    Molecular point group: c1
  Charge       = 0
  Multiplicity = 1
  Basis Set: CC-PVTZ
  Basis Set:
  @DF-RHF Final Energy: -1146.61964483258521
    Total Energy =                      -1146.6196448325849815
    Molecular point group: c1
  Basis Set: CC-PVTZ
  Basis Set:
  Basis Set: CC-PVTZ
  Basis Set:
  @DF-RHF Final Energy: -1146.62018521764367
    Total Energy =                      -1146.6201852176441207
  Basis Set: CC-PVTZ
  Basis Set:
  Basis Set: CC-PVTZ
  Basis Set:
  @DF-RHF Final Energy: -1146.62043000737890
    Total Energy =                      -1146.6204300073791273
  Basis Set: CC-PVTZ
  Basis Set:
  Basis Set: CC-PVTZ
  Basis Set:
  @DF-RHF Final Energy: -1146.62044264876658
    Total Energy =                      -1146.6204426487672663
  Basis Set: CC-PVTZ
  Basis Set:
  Charge       = 0
  Multiplicity = 1
  Basis Set: CC-PVTZ
  Basis Set:

    Orbital Energies (a.u.)
    -----------------------

    Doubly Occupied:

       1A   -104.856489     2A    -26.354850     3A    -26.353886
       4A    -26.353285     5A    -26.343393     6A    -26.343348
       7A    -20.641349     8A    -11.520148     9A    -11.484110
      10A    -11.401046    11A    -10.582018    12A     -8.048816
      13A     -8.046829    14A     -8.046753    15A     -1.767933
      16A     -1.725015    17A     -1.662888    18A     -1.661311
      19A     -1.644985    20A     -1.487576    21A     -1.178308
      22A     -1.053263    23A     -0.990972    24A     -0.924677
      25A     -0.864970    26A     -0.858707    27A     -0.852272
      28A     -0.829710    29A     -0.818324    30A     -0.793985
      31A     -0.733625    32A     -0.733103    33A     -0.712760
      34A     -0.708476    35A     -0.684942    36A     -0.681460
      37A     -0.665392    38A     -0.664089    39A     -0.649594
      40A     -0.638954    41A     -0.599030    42A     -0.582008
      43A     -0.525599    44A     -0.478221    45A     -0.469843

  @DF-RHF Final Energy: -1146.62044357763330

   => Energetics <=

    Nuclear Repulsion Energy =            738.3729206470313784
    One-Electron Energy =               -3059.9501010160238366
    Two-Electron Energy =                1174.9567367913584803
    DFT Exchange-Correlation Energy =       0.0000000000000000
    Empirical Dispersion Energy =           0.0000000000000000
    PCM Polarization Energy =               0.0000000000000000
    EFP Energy =                            0.0000000000000000
    Total Energy =                      -1146.6204435776337505
    Molecular point group: c1
  Basis Set: CC-PVTZ
  Basis Set:

  -Total Gradient:
     Atom            X                  Y                   Z
    ------   -----------------  -----------------  -----------------
       1       -0.000003778841     0.000006779032     0.000009871081
       2       -0.000071320984    -0.000033813722     0.000121154031
       3       -0.000000374608     0.000070420751    -0.000069758456
       4        0.000036028934     0.000071734944    -0.000035932518
       5        0.000054167270    -0.000065011620    -0.000027376144
       6        0.000210796785     0.000277871823    -0.000159753077
       7       -0.000079017175    -0.000057434646     0.000334441927
       8        0.000003572553    -0.000052115525     0.000018651654
       9       -0.000150844415    -0.000243705904     0.000066550953
      10        0.000057326810     0.000024889874    -0.000265477501
      11       -0.000013006063     0.000015363949    -0.000018731860
      12       -0.000043550247    -0.000014978857     0.000026359907

  **** Optimization is complete! (in 5 steps) ****
    Final optimized geometry and variables:
    Molecular point group: c1

    Geometry (in Angstrom), charge = 0, multiplicity = 1:

    H           -2.653180801419    -0.661234938191     1.248781785873
    C           -2.094528690117    -0.386628680140     0.373364413734
    O           -0.814600251091    -0.156815360777     0.744960752479
    F           -2.154310295111    -1.357998380319    -0.526382823082
    F           -2.626599233757     0.683493236234    -0.193091168517
    C            0.086671303355     0.250666748901    -0.215227002930
    C            1.372605436957    -0.543769581043     0.000789263153
    CL           0.414362126700     1.988668608846    -0.090155515855
    H           -0.261543853075     0.058168669459    -1.214962372733
    F            1.116220663934    -1.820972125900    -0.155951900803
    F            1.867726732472    -0.368344667262     1.194948122706
    F            2.275962870495    -0.203206759500    -0.882946044971

  Mulliken Charges: (a.u.)
   Center  Symbol    Alpha    Beta     Spin     Total
       1     H     0.45191  0.45191  0.00000  0.09618
       2     C     2.74016  2.74016  0.00000  0.51967
       3     O     4.15655  4.15655  0.00000 -0.31310
       4     F     4.61793  4.61793  0.00000 -0.23586
       5     F     4.61508  4.61508  0.00000 -0.23016
       6     C     2.93682  2.93682  0.00000  0.12636
       7     C     2.66950  2.66950  0.00000  0.66101
       8    CL     8.57398  8.57398  0.00000 -0.14796
       9     H     0.43048  0.43048  0.00000  0.13905
      10     F     4.60475  4.60475  0.00000 -0.20950
      11     F     4.60044  4.60044  0.00000 -0.20087
      12     F     4.60241  4.60241  0.00000 -0.20482

   Total alpha = 45.00000, Total beta = 45.00000, Total charge = -0.00000
