  ==> Input File <==

--------------------------------------------------------------------------
set {
	reference rhf
	basis 6-31G*
}

set_num_threads( 4 )
memory 2 gb

molecule MOL {
0 1

O	 1.161537	 0.587622	 -2.238553
C	 0.431889	 0.768920	 -1.300765
C	 -0.732288	 1.734909	 -1.417578
N	 0.623947	 0.147590	 -0.102813
H	 -0.655698	 2.539027	 -0.693968
H	 -0.707504	 2.150969	 -2.413231
H	 -1.682599	 1.234577	 -1.265397
C	 1.665360	 -0.855771	 0.000151
C	 -0.339289	 0.153321	 0.976255
H	 2.465253	 -0.618490	 -0.692587
H	 1.257730	 -1.821716	 -0.242189
H	 2.081488	 -0.891645	 1.004627
H	 0.187771	 0.108792	 1.921909
H	 -0.931416	 1.054609	 0.975135
H	 -1.010789	 -0.701884	 0.926013

	symmetry c1
}
set optking {
	frozen_dihedral = ("
		2 4 8 10
	")
}

ee = optimize('scf')
oeprop('DIPOLE', 'QUADRUPOLE', 'MULLIKEN_CHARGES')
f=open( 'psi4out.xyz', 'w' )
f.write( "15  " )
f.write( str(ee) + "\n" )
f.write( MOL.save_string_xyz() )
f.close()
--------------------------------------------------------------------------

    Molecular point group: c1
  Charge       = 0
  Multiplicity = 1
  Basis Set: 6-31G*
  Basis Set:
  @DF-RHF Final Energy:  -286.02925732324104
    Total Energy =                       -286.0292573232410973
    Molecular point group: c1
  Basis Set: 6-31G*
  Basis Set:
  Basis Set: 6-31G*
  Basis Set:
  @DF-RHF Final Energy:  -286.02969690989249
    Total Energy =                       -286.0296969098924933
  Basis Set: 6-31G*
  Basis Set:
  Basis Set: 6-31G*
  Basis Set:
  @DF-RHF Final Energy:  -286.02967188267883
    Total Energy =                       -286.0296718826788833
  Basis Set: 6-31G*
  Basis Set:
  Basis Set: 6-31G*
  Basis Set:
  @DF-RHF Final Energy:  -286.02978410507251
    Total Energy =                       -286.0297841050726220
  Basis Set: 6-31G*
  Basis Set:
  Basis Set: 6-31G*
  Basis Set:
  @DF-RHF Final Energy:  -286.02978975835765
    Total Energy =                       -286.0297897583573672
  Basis Set: 6-31G*
  Basis Set:
  Basis Set: 6-31G*
  Basis Set:
  @DF-RHF Final Energy:  -286.02979178118915
    Total Energy =                       -286.0297917811892603
  Basis Set: 6-31G*
  Basis Set:
  Charge       = 0
  Multiplicity = 1
  Basis Set: 6-31G*
  Basis Set:

    Orbital Energies (a.u.)
    -----------------------

    Doubly Occupied:

       1A    -20.514827     2A    -15.583700     3A    -11.341342
       4A    -11.266388     5A    -11.247857     6A    -11.228378
       7A     -1.384649     8A     -1.243411     9A     -1.014130
      10A     -0.972672    11A     -0.918770    12A     -0.737737
      13A     -0.680871    14A     -0.659008    15A     -0.651336
      16A     -0.589184    17A     -0.576303    18A     -0.568012
      19A     -0.561905    20A     -0.546473    21A     -0.529574
      22A     -0.502870    23A     -0.410644    24A     -0.366986

  @DF-RHF Final Energy:  -286.02979248056846

   => Energetics <=

    Nuclear Repulsion Energy =            252.4469462746702106
    One-Electron Energy =                -888.7594217389425921
    Two-Electron Energy =                 350.2826829837041487
    DFT Exchange-Correlation Energy =       0.0000000000000000
    Empirical Dispersion Energy =           0.0000000000000000
    PCM Polarization Energy =               0.0000000000000000
    EFP Energy =                            0.0000000000000000
    Total Energy =                       -286.0297924805682896
    Molecular point group: c1
  Basis Set: 6-31G*
  Basis Set:

  -Total Gradient:
     Atom            X                  Y                   Z
    ------   -----------------  -----------------  -----------------
       1       -0.000001285662     0.000006099728    -0.000014800841
       2       -0.000095752098    -0.000113835662     0.000007117938
       3        0.000003722591     0.000007761476    -0.000016622253
       4        0.000163211165     0.000217595040     0.000095041797
       5        0.000001037798    -0.000004022154    -0.000003652474
       6       -0.000005624357     0.000002611830    -0.000004427947
       7        0.000004999180     0.000003725139    -0.000010345820
       8       -0.000241315664    -0.000274624894    -0.000216035754
       9        0.000034141348     0.000024882647     0.000007300015
      10        0.000104634837     0.000112149334     0.000137568447
      11        0.000046912507     0.000013314792     0.000006627060
      12       -0.000019062394     0.000037715075    -0.000007527400
      13       -0.000001498205     0.000005761687     0.000015365784
      14        0.000000854478    -0.000027667719     0.000003456801
      15        0.000005024476    -0.000011466322     0.000000934646

  **** Optimization is complete! (in 7 steps) ****
    Final optimized geometry and variables:
    Molecular point group: c1

    Geometry (in Angstrom), charge = 0, multiplicity = 1:

    O            0.682669752916     0.153014952223    -1.567372643853
    C           -0.036563549215     0.352836524874    -0.625568818294
    C           -1.194203331772     1.326327651928    -0.742696070985
    N            0.166622948378    -0.253971793691     0.578700757187
    H           -1.118332794129     2.125624833069    -0.013827252903
    H           -1.162892945384     1.747290617390    -1.736148856129
    H           -2.147512705598     0.828972333863    -0.598908938830
    C            1.201668198828    -1.266220997675     0.666172953964
    C           -0.807417878415    -0.264251144729     1.648544910090
    H            1.983268021872    -1.044492231275    -0.040095199245
    H            0.810292236284    -2.258673154380     0.454066238601
    H            1.614361577881    -1.267055272866     1.668315940054
    H           -0.289901668300    -0.313905544567     2.598927199748
    H           -1.403963895133     0.634158422195     1.648834857294
    H           -1.474640437175    -1.122055855813     1.584252834944

  Mulliken Charges: (a.u.)
   Center  Symbol    Alpha    Beta     Spin     Total
       1     O     4.30391  4.30391  0.00000 -0.60783
       2     C     2.62429  2.62429  0.00000  0.75142
       3     C     3.29853  3.29853  0.00000 -0.59706
       4     N     3.82305  3.82305  0.00000 -0.64610
       5     H     0.40656  0.40656  0.00000  0.18688
       6     H     0.39052  0.39052  0.00000  0.21895
       7     H     0.40766  0.40766  0.00000  0.18468
       8     C     3.14329  3.14329  0.00000 -0.28659
       9     C     3.14221  3.14221  0.00000 -0.28442
      10     H     0.38722  0.38722  0.00000  0.22555
      11     H     0.41913  0.41913  0.00000  0.16175
      12     H     0.41909  0.41909  0.00000  0.16183
      13     H     0.41039  0.41039  0.00000  0.17922
      14     H     0.40721  0.40721  0.00000  0.18558
      15     H     0.41693  0.41693  0.00000  0.16614

   Total alpha = 24.00000, Total beta = 24.00000, Total charge = -0.00000
