  ==> Input File <==

--------------------------------------------------------------------------
set {
	reference rhf
	basis 6-31G*
}

set_num_threads( 4 )
memory 2 gb

molecule MOL {
0 1

H	 -0.127094	 7.053262	 1.359990
C	 -1.101874	 6.584630	 1.266661
C	 -0.978591	 5.151231	 0.751544
H	 -1.574905	 6.607771	 2.243926
H	 -1.699367	 7.194826	 0.594751
C	 -2.337000	 4.462711	 0.601606
H	 -0.355822	 4.578580	 1.431125
H	 -0.470404	 5.157776	 -0.211469
C	 -2.246719	 3.032030	 0.070318
H	 -2.846707	 4.451597	 1.558537
H	 -2.955594	 5.042035	 -0.080132
C	 -1.669635	 2.031013	 1.060360
H	 -3.241478	 2.672961	 -0.189094
H	 -1.671398	 2.995556	 -0.852098
C	 -1.181045	 0.701995	 0.511084
O	 -1.616576	 2.267210	 2.229890
C	 -2.285934	 -0.139295	 -0.145128
H	 -0.739595	 0.160166	 1.338887
H	 -0.395853	 0.896370	 -0.217186
C	 -3.651768	 0.085446	 0.506485
H	 -2.346596	 0.110469	 -1.202272
H	 -2.034737	 -1.195320	 -0.088721
C	 -4.759797	 -0.746382	 -0.137905
H	 -3.908762	 1.140117	 0.445781
H	 -3.588286	 -0.154158	 1.565709
H	 -4.868882	 -0.505166	 -1.191300
H	 -4.548009	 -1.809175	 -0.062213
H	 -5.715422	 -0.564821	 0.343442

	symmetry c1
}
set optking {
	frozen_dihedral = ("
		12 15 17 21
	")
}

ee = optimize('scf')
oeprop('DIPOLE', 'QUADRUPOLE', 'MULLIKEN_CHARGES')
f=open( 'psi4out.xyz', 'w' )
f.write( "28  " )
f.write( str(ee) + "\n" )
f.write( MOL.save_string_xyz() )
f.close()
--------------------------------------------------------------------------

    Molecular point group: c1
  Charge       = 0
  Multiplicity = 1
  Basis Set: 6-31G*
  Basis Set:
  @DF-RHF Final Energy:  -426.15914107730134
    Total Energy =                       -426.1591410773005464
    Molecular point group: c1
  Basis Set: 6-31G*
  Basis Set:
  Basis Set: 6-31G*
  Basis Set:
  @DF-RHF Final Energy:  -426.16400548941283
    Total Energy =                       -426.1640054894126024
  Basis Set: 6-31G*
  Basis Set:
  Basis Set: 6-31G*
  Basis Set:
  @DF-RHF Final Energy:  -426.16429198903859
    Total Energy =                       -426.1642919890390431
  Basis Set: 6-31G*
  Basis Set:
  Basis Set: 6-31G*
  Basis Set:
  @DF-RHF Final Energy:  -426.16440783249914
    Total Energy =                       -426.1644078324995917
  Basis Set: 6-31G*
  Basis Set:
  @DF-RHF Final Energy:  -426.16546325296940
    Total Energy =                       -426.1654632529688342
  @DF-RHF Final Energy:  -426.16562950705872
    Total Energy =                       -426.1656295070583838
  @DF-RHF Final Energy:  -426.16569404119582
    Total Energy =                       -426.1656940411960477
  Basis Set: 6-31G*
  Basis Set:
  @DF-RHF Final Energy:  -426.16571750612684
    Total Energy =                       -426.1657175061269527
  Basis Set: 6-31G*
  Basis Set:
  Basis Set: 6-31G*
  Basis Set:
  @DF-RHF Final Energy:  -426.16572226132371
    Total Energy =                       -426.1657222613237082
  Basis Set: 6-31G*
  Basis Set:
  Basis Set: 6-31G*
  Basis Set:
  @DF-RHF Final Energy:  -426.16572381781191
    Total Energy =                       -426.1657238178116813
  Basis Set: 6-31G*
  Basis Set:
  Charge       = 0
  Multiplicity = 1
  Basis Set: 6-31G*
  Basis Set:

    Orbital Energies (a.u.)
    -----------------------

    Doubly Occupied:

       1A    -20.548763     2A    -11.322237     3A    -11.231617
       4A    -11.230409     5A    -11.228630     6A    -11.221589
       7A    -11.216353     8A    -11.213630     9A    -11.210081
      10A    -11.204514    11A     -1.394069    12A     -1.091791
      13A     -1.075923    14A     -1.020310    15A     -0.990196
      16A     -0.907241    17A     -0.872156    18A     -0.812814
      19A     -0.795291    20A     -0.720504    21A     -0.662060
      22A     -0.653861    23A     -0.627748    24A     -0.614852
      25A     -0.607521    26A     -0.583957    27A     -0.581248
      28A     -0.570867    29A     -0.551276    30A     -0.532518
      31A     -0.516052    32A     -0.507973    33A     -0.497490
      34A     -0.486795    35A     -0.475055    36A     -0.468198
      37A     -0.466170    38A     -0.462722    39A     -0.456086
      40A     -0.392223

  @DF-RHF Final Energy:  -426.16572439374136

   => Energetics <=

    Nuclear Repulsion Energy =            543.4575145251701542
    One-Electron Energy =               -1655.2008890160177543
    Two-Electron Energy =                 685.5776500971061296
    DFT Exchange-Correlation Energy =       0.0000000000000000
    Empirical Dispersion Energy =           0.0000000000000000
    PCM Polarization Energy =               0.0000000000000000
    EFP Energy =                            0.0000000000000000
    Total Energy =                       -426.1657243937414705
    Molecular point group: c1
  Basis Set: 6-31G*
  Basis Set:

  -Total Gradient:
     Atom            X                  Y                   Z
    ------   -----------------  -----------------  -----------------
       1       -0.000001383784    -0.000001274687     0.000013470313
       2       -0.000019445297    -0.000006882093     0.000018783635
       3       -0.000005713397    -0.000015232980    -0.000053223232
       4       -0.000012961246     0.000008229506    -0.000001909751
       5        0.000013344866    -0.000004980960    -0.000000690789
       6        0.000014564517    -0.000004555369     0.000052704116
       7        0.000005345200     0.000002786407    -0.000014852722
       8        0.000002719120     0.000008975314    -0.000006047174
       9        0.000104477519     0.000021798493     0.000003189846
      10       -0.000012770495    -0.000000151893    -0.000001195516
      11        0.000009812268    -0.000017160363    -0.000016259420
      12       -0.000471638721    -0.001584037374     0.003756560861
      13       -0.000031663334    -0.000017412292     0.000031436853
      14       -0.000029914218     0.000013811571     0.000002344555
      15        0.001375287189     0.001176975264    -0.005533620588
      16        0.000001579005     0.000000429702    -0.000075926769
      17       -0.004216541158     0.004604884158     0.003254709708
      18       -0.000026018091    -0.000001038676    -0.000007399767
      19       -0.000007538165    -0.000025354558    -0.000004259708
      20        0.000059652572    -0.000018768792    -0.000004626733
      21        0.003264909110    -0.004151181716    -0.001413387319
      22       -0.000003555353    -0.000030695543    -0.000001430597
      23       -0.000016956683     0.000007233346    -0.000012795471
      24       -0.000010267105     0.000000816329     0.000003869990
      25        0.000003072750     0.000026693347     0.000002478237
      26        0.000008496293    -0.000002430446     0.000002813641
      27        0.000001641248     0.000006835797     0.000012556075
      28        0.000001465390     0.000001688507    -0.000007292276

  **** Optimization is complete! (in 11 steps) ****
    Final optimized geometry and variables:
    Molecular point group: c1

    Geometry (in Angstrom), charge = 0, multiplicity = 1:

    H            1.776483550940     4.746646061149     1.294681184476
    C            0.899098206525     4.253870666263     0.887341562719
    C            1.252994616106     2.882920977960     0.312531854791
    H            0.169459848697     4.164579323457     1.686836374206
    H            0.478015519619     4.904658041640     0.125621057866
    C            0.037940133996     2.164322283326    -0.278629404671
    H            1.692839000790     2.268385455010     1.089838031757
    H            2.009251287416     3.002661881363    -0.461772828928
    C            0.358259445645     0.791229829746    -0.868773588053
    H           -0.725035113148     2.052996808441     0.484854301789
    H           -0.390718649303     2.782695257481    -1.064160614408
    C            0.614324991691    -0.302471188625     0.154640882835
    H           -0.460638793740     0.449008261652    -1.500236259407
    H            1.223679702092     0.846545589579    -1.527054924870
    C            0.946766397898    -1.684736351235    -0.383770742495
    O            0.537957751721    -0.107480626185     1.330163453358
    C           -0.289472953947    -2.494170675582    -0.842444253597
    H            1.435852050616    -2.209751037350     0.428035873810
    H            1.651959524078    -1.607559117902    -1.205634325965
    C           -1.551871076582    -2.313145176510     0.002541064422
    H           -0.492594082509    -2.299971258201    -1.892967022830
    H           -0.003662149460    -3.542812140106    -0.811313868632
    C           -2.671699651117    -3.261885679894    -0.423159077409
    H           -1.908815760864    -1.288954832500    -0.067350658155
    H           -1.310046599070    -2.475315832579     1.048909459858
    H           -2.947180272699    -3.104782315507    -1.462361717928
    H           -2.369678173142    -4.299633851991    -0.314920819694
    H           -3.560641642293    -3.111468902744     0.180857127878

  Mulliken Charges: (a.u.)
   Center  Symbol    Alpha    Beta     Spin     Total
       1     H     0.41941  0.41941  0.00000  0.16119
       2     C     3.24033  3.24033  0.00000 -0.48065
       3     C     3.15600  3.15600  0.00000 -0.31201
       4     H     0.41884  0.41884  0.00000  0.16232
       5     H     0.42419  0.42419  0.00000  0.15162
       6     C     3.14863  3.14863  0.00000 -0.29727
       7     H     0.40655  0.40655  0.00000  0.18691
       8     H     0.42819  0.42819  0.00000  0.14362
       9     C     3.21243  3.21243  0.00000 -0.42485
      10     H     0.40983  0.40983  0.00000  0.18034
      11     H     0.42216  0.42216  0.00000  0.15568
      12     C     2.73403  2.73403  0.00000  0.53193
      13     H     0.40599  0.40599  0.00000  0.18802
      14     H     0.40966  0.40966  0.00000  0.18068
      15     C     3.19927  3.19927  0.00000 -0.39854
      16     O     4.26781  4.26781  0.00000 -0.53562
      17     C     3.16077  3.16077  0.00000 -0.32154
      18     H     0.40077  0.40077  0.00000  0.19846
      19     H     0.41276  0.41276  0.00000  0.17448
      20     C     3.15928  3.15928  0.00000 -0.31856
      21     H     0.41953  0.41953  0.00000  0.16093
      22     H     0.41443  0.41443  0.00000  0.17114
      23     C     3.24037  3.24037  0.00000 -0.48073
      24     H     0.42061  0.42061  0.00000  0.15877
      25     H     0.40932  0.40932  0.00000  0.18137
      26     H     0.42215  0.42215  0.00000  0.15571
      27     H     0.42056  0.42056  0.00000  0.15887
      28     H     0.41613  0.41613  0.00000  0.16773

   Total alpha = 40.00000, Total beta = 40.00000, Total charge =  0.00000
