  ==> Input File <==

--------------------------------------------------------------------------
set {
	reference rhf
	basis 6-31G*
}

set_num_threads( 1 )
memory 2 gb

molecule MOL {
0 1

O	 1.214711	 1.306902	 -0.000018
C	 1.122059	 0.121804	 -0.000188
C	 -0.170150	 -0.657997	 -0.000612
O	 2.172624	 -0.688929	 0.000216
C	 -1.412532	 0.227344	 -0.000452
H	 -0.153702	 -1.313099	 -0.867402
H	 -0.153924	 -1.313811	 0.865644
C	 -2.449123	 -0.225289	 -1.030000
H	 -1.120950	 1.254091	 -0.198630
H	 -1.853801	 0.225426	 0.991405
C	 -3.697758	 0.655552	 -1.035697
H	 -2.001588	 -0.222309	 -2.021857
H	 -2.735837	 -1.255441	 -0.828375
H	 -3.448345	 1.686701	 -1.268462
H	 -4.416059	 0.313488	 -1.774149
H	 -4.188171	 0.645695	 -0.066657
C	 3.452279	 -0.082609	 0.000533
H	 3.583069	 0.529321	 -0.880332
H	 4.163299	 -0.894027	 0.001117
H	 3.582335	 0.529955	 0.881077

	symmetry c1
}
set optking {
	frozen_dihedral = ("
		9 5 8 12,
		1 2 3 6,
		1 2 4 17
	")
}

ee = energy('scf')
oeprop('DIPOLE', 'QUADRUPOLE', 'MULLIKEN_CHARGES')
f=open( 'psi4out.xyz', 'w' )
f.write( "20  " )
f.write( str(ee) + "\n" )
f.write( MOL.save_string_xyz() )
f.close()
--------------------------------------------------------------------------

    Molecular point group: c1

    Geometry (in Angstrom), charge = 0, multiplicity = 1:

       Center              X                  Y                   Z               Mass
    ------------   -----------------  -----------------  -----------------  -----------------
           O          1.150056456183     1.216126739901     0.258423687557    15.994914619560
           C          1.057404456183     0.031028739901     0.258253687557    12.000000000000
           C         -0.234804543817    -0.748772260099     0.257829687557    12.000000000000
           O          2.107969456183    -0.779704260099     0.258657687557    15.994914619560
           C         -1.477186543817     0.136568739901     0.257989687557    12.000000000000
           H         -0.218356543817    -1.403874260099    -0.608960312443     1.007825032070
           H         -0.218578543817    -1.404586260099     1.124085687557     1.007825032070
           C         -2.513777543817    -0.316064260099    -0.771558312443    12.000000000000
           H         -1.185604543817     1.163315739901     0.059811687557     1.007825032070
           H         -1.918455543817     0.134650739901     1.249846687557     1.007825032070
           C         -3.762412543817     0.564776739901    -0.777255312443    12.000000000000
           H         -2.066242543817    -0.313084260099    -1.763415312443     1.007825032070
           H         -2.800491543817    -1.346216260099    -0.569933312443     1.007825032070
           H         -3.512999543817     1.595925739901    -1.010020312443     1.007825032070
           H         -4.480713543817     0.222712739901    -1.515707312443     1.007825032070
           H         -4.252825543817     0.554919739901     0.191784687557     1.007825032070
           C          3.387624456183    -0.173384260099     0.258974687557    12.000000000000
           H          3.518414456183     0.438545739901    -0.621890312443     1.007825032070
           H          4.098644456183    -0.984802260099     0.259558687557     1.007825032070
           H          3.517680456183     0.439179739901     1.139518687557     1.007825032070

  Charge       = 0
  Multiplicity = 1
  Basis Set: 6-31G*
  Basis Set:

    Orbital Energies (a.u.)
    -----------------------

    Doubly Occupied:

       1A    -20.604407     2A    -20.546427     3A    -11.373078
       4A    -11.281270     5A    -11.234334     6A    -11.218893
       7A    -11.215391     8A    -11.209024     9A     -1.470144
      10A     -1.363940    11A     -1.087667    12A     -1.023480
      13A     -0.968945    14A     -0.884705    15A     -0.804524
      16A     -0.767137    17A     -0.701770    18A     -0.681734
      19A     -0.673159    20A     -0.638241    21A     -0.601716
      22A     -0.591792    23A     -0.578750    24A     -0.544827
      25A     -0.529728    26A     -0.520020    27A     -0.504707
      28A     -0.478530    29A     -0.467004    30A     -0.465009
      31A     -0.457449    32A     -0.439517

  @DF-RHF Final Energy:  -383.93721695999966

   => Energetics <=

    Nuclear Repulsion Energy =            382.7831035013117571
    One-Electron Energy =               -1281.5860739947179354
    Two-Electron Energy =                 514.8657535334057229
    DFT Exchange-Correlation Energy =       0.0000000000000000
    Empirical Dispersion Energy =           0.0000000000000000
    PCM Polarization Energy =               0.0000000000000000
    EFP Energy =                            0.0000000000000000
    Total Energy =                       -383.9372169600004554

  Mulliken Charges: (a.u.)
   Center  Symbol    Alpha    Beta     Spin     Total
       1     O     4.28459  4.28459  0.00000 -0.56919
       2     C     2.61095  2.61095  0.00000  0.77810
       3     C     3.21030  3.21030  0.00000 -0.42060
       4     O     4.30575  4.30575  0.00000 -0.61150
       5     C     3.16015  3.16015  0.00000 -0.32030
       6     H     0.39824  0.39824  0.00000  0.20351
       7     H     0.39776  0.39776  0.00000  0.20448
       8     C     3.15618  3.15618  0.00000 -0.31235
       9     H     0.39419  0.39419  0.00000  0.21162
      10     H     0.41873  0.41873  0.00000  0.16253
      11     C     3.24018  3.24018  0.00000 -0.48036
      12     H     0.42156  0.42156  0.00000  0.15689
      13     H     0.42353  0.42353  0.00000  0.15295
      14     H     0.41884  0.41884  0.00000  0.16231
      15     H     0.41911  0.41911  0.00000  0.16178
      16     H     0.42128  0.42128  0.00000  0.15743
      17     C     3.09228  3.09228  0.00000 -0.18455
      18     H     0.40905  0.40905  0.00000  0.18190
      19     H     0.40837  0.40837  0.00000  0.18326
      20     H     0.40896  0.40896  0.00000  0.18208

   Total alpha = 32.00000, Total beta = 32.00000, Total charge = -0.00000
