                              Psi4 1.0.54 Driver

  ==> Input File <==

--------------------------------------------------------------------------
set {
	reference rhf
	basis cc-pvtz
}

set_num_threads( 4 )
memory 2 gb

molecule MOL {
0 1

O	 -1.278239	 1.034789	 -0.784693
C	 -1.204115	 0.062668	 -0.112312
C	 -2.386398	 -0.667698	 0.460323
O	 -0.068058	 -0.518372	 0.226882
H	 -2.382952	 -1.693172	 0.114333
H	 -3.296656	 -0.175702	 0.158400
H	 -2.312537	 -0.685191	 1.540100
C	 0.987996	 0.273593	 0.780365
C	 2.278388	 -0.449030	 0.448975
C	 0.772524	 0.449817	 2.272720
H	 0.968070	 1.237872	 0.295743
H	 2.391189	 -0.558907	 -0.621983
H	 3.125045	 0.111423	 0.826832
H	 2.292389	 -1.435273	 0.897377
H	 1.577822	 1.039021	 2.695606
H	 -0.159252	 0.961842	 2.468356
H	 0.756073	 -0.513118	 2.770484

	symmetry c1
}
set optking {
	frozen_dihedral = ("
		8 4 2 1
	")
}

ee,wfn = optimize('scf', return_wfn=True)
oeprop( wfn, 'DIPOLE', 'QUADRUPOLE', 'MULLIKEN_CHARGES')
f=open( 'psi4out.xyz', 'w' )
f.write( "17  " )
f.write( str(ee) + "\n" )
f.write( MOL.save_string_xyz() )
f.close()
--------------------------------------------------------------------------

    Molecular point group: c1
  Charge       = 0
  Multiplicity = 1
  Basis Set: CC-PVTZ
  Basis Set:
  @DF-RHF Final Energy:  -345.03253203365705
    Total Energy =                       -345.0325320336573895
    Molecular point group: c1
  Basis Set: CC-PVTZ
  Basis Set:
  Basis Set: CC-PVTZ
  Basis Set:
  @DF-RHF Final Energy:  -345.03035503288385
    Total Energy =                       -345.0303550328833921
  Basis Set: CC-PVTZ
  Basis Set:
  Basis Set: CC-PVTZ
  Basis Set:
  @DF-RHF Final Energy:  -345.01435781664065
    Total Energy =                       -345.0143578166406542
  Basis Set: CC-PVTZ
  Basis Set:
  Basis Set: CC-PVTZ
  Basis Set:
  @DF-RHF Final Energy:  -345.03335307267668
    Total Energy =                       -345.0333530726766185
  Basis Set: CC-PVTZ
  Basis Set:
  @DF-RHF Final Energy:  -345.03360239264651
    Total Energy =                       -345.0336023926467419
  @DF-RHF Final Energy:  -345.02536680759374
    Total Energy =                       -345.0253668075937981
  @DF-RHF Final Energy:  -345.03354602002207
    Total Energy =                       -345.0335460200221291
  @DF-RHF Final Energy:  -345.02423657967915
    Total Energy =                       -345.0242365796786430
  Basis Set: CC-PVTZ
  Basis Set:
  @DF-RHF Final Energy:  -345.03352539104100
    Total Energy =                       -345.0335253910409961
  Basis Set: CC-PVTZ
  Basis Set:
  Basis Set: CC-PVTZ
  Basis Set:
  @DF-RHF Final Energy:  -345.03362678108374
    Total Energy =                       -345.0336267810838535
  Basis Set: CC-PVTZ
  Basis Set:
  Basis Set: CC-PVTZ
  Basis Set:
  @DF-RHF Final Energy:  -345.03363221493095
    Total Energy =                       -345.0336322149306625
  Basis Set: CC-PVTZ
  Basis Set:
  Charge       = 0
  Multiplicity = 1
  Basis Set: CC-PVTZ
  Basis Set:

    Orbital Energies (a.u.)
    -----------------------

    Doubly Occupied:

       1A    -20.580265     2A    -20.537285     3A    -11.367553
       4A    -11.292187     5A    -11.231683     6A    -11.222459
       7A    -11.217923     8A     -1.462239     9A     -1.365365
      10A     -1.077567    11A     -1.009011    12A     -0.953091
      13A     -0.848097    14A     -0.765308    15A     -0.697163
      16A     -0.668804    17A     -0.663275    18A     -0.623305
      19A     -0.587221    20A     -0.581131    21A     -0.564187
      22A     -0.552092    23A     -0.540294    24A     -0.525180
      25A     -0.504946    26A     -0.486215    27A     -0.449434
      28A     -0.437396

  @DF-RHF Final Energy:  -345.03363312495787

   => Energetics <=

    Nuclear Repulsion Energy =            323.3831713475545939
    One-Electron Energy =               -1111.2122556294093556
    Two-Electron Energy =                 442.7954511568971725
    DFT Exchange-Correlation Energy =       0.0000000000000000
    Empirical Dispersion Energy =           0.0000000000000000
    PCM Polarization Energy =               0.0000000000000000
    EFP Energy =                            0.0000000000000000
    Total Energy =                       -345.0336331249575892
    Molecular point group: c1
  Basis Set: CC-PVTZ
  Basis Set:

  -Total Gradient:
     Atom            X                  Y                   Z
    ------   -----------------  -----------------  -----------------
       1        0.005709709575    -0.004545592725    -0.006169355132
       2       -0.011121837231     0.005298717985     0.011598515096
       3       -0.000053320231     0.000032516400     0.000062178189
       4        0.010599462334     0.001968589596    -0.010125161567
       5       -0.000000772692     0.000005368504    -0.000019763475
       6        0.000022927511    -0.000001884099    -0.000003063323
       7        0.000038698232    -0.000034779169    -0.000022632890
       8       -0.005246537764    -0.002703388822     0.004702877287
       9        0.000028462719    -0.000028065316     0.000007629949
      10        0.000047493619    -0.000038239474    -0.000032680436
      11        0.000000012630     0.000000493766    -0.000004266077
      12        0.000000598577     0.000010285769    -0.000005520746
      13       -0.000001046702     0.000007181347     0.000001813850
      14       -0.000001481368    -0.000006387605     0.000009223792
      15       -0.000005953695     0.000021898272     0.000010840719
      16       -0.000014681839     0.000004084726     0.000000648483
      17       -0.000001733675     0.000009200845    -0.000011283721

  **** Optimization is complete! (in 12 steps) ****
    Final optimized geometry and variables:
    Molecular point group: c1

    Geometry (in Angstrom), charge = 0, multiplicity = 1:

    O           -0.577701869567     0.609091786090    -1.771662658652
    C           -0.529194002598    -0.321202734731    -1.046299083242
    C           -1.408347390209    -1.533334693236    -1.160817229654
    O            0.398761817074    -0.458915231712    -0.096594974238
    H           -0.789825200937    -2.416497025290    -1.255238614069
    H           -2.060046077886    -1.438524878364    -2.014293321892
    H           -1.992683663692    -1.641618918980    -0.255136648441
    C            0.634340173821     0.629521372586     0.800244832832
    C            1.988982179432     0.382595894239     1.431394849558
    C           -0.488940395119     0.708383919768     1.819408096034
    H            0.664861646521     1.539971345380     0.218070673634
    H            2.756342358624     0.329829354945     0.670508990445
    H            2.235161752897     1.187050399744     2.114021088539
    H            1.988933825446    -0.549498343739     1.984012082072
    H           -0.307796476315     1.524714068618     2.508385420973
    H           -1.442845770558     0.889523124049     1.338003481293
    H           -0.555940796783    -0.212413461340     2.386895178079

  Mulliken Charges: (a.u.)
   Center  Symbol    Alpha    Beta     Spin     Total
       1     O     4.18546  4.18546  0.00000 -0.37093
       2     C     2.80692  2.80692  0.00000  0.38616
       3     C     3.13756  3.13756  0.00000 -0.27513
       4     O     4.17551  4.17551  0.00000 -0.35102
       5     H     0.44366  0.44366  0.00000  0.11267
       6     H     0.43803  0.43803  0.00000  0.12394
       7     H     0.44929  0.44929  0.00000  0.10141
       8     C     2.93273  2.93273  0.00000  0.13454
       9     C     3.14048  3.14048  0.00000 -0.28096
      10     C     3.15440  3.15440  0.00000 -0.30880
      11     H     0.43919  0.43919  0.00000  0.12162
      12     H     0.44356  0.44356  0.00000  0.11288
      13     H     0.45592  0.45592  0.00000  0.08817
      14     H     0.45278  0.45278  0.00000  0.09444
      15     H     0.44614  0.44614  0.00000  0.10773
      16     H     0.44743  0.44743  0.00000  0.10513
      17     H     0.45092  0.45092  0.00000  0.09816

   Total alpha = 28.00000, Total beta = 28.00000, Total charge = -0.00000

*** Psi4 exiting successfully. Buy a developer a beer!
