  ==> Input File <==

--------------------------------------------------------------------------
set {
	reference rhf
	basis cc-pvtz
}

set_num_threads( 4 )
memory 2 gb

molecule MOL {
0 1

H	 -1.835082	 1.385983	 0.000069
C	 -1.300516	 0.441153	 -0.000028
O	 -0.006604	 0.654344	 -0.000106
O	 -1.828920	 -0.612308	 0.000113
C	 0.852093	 -0.482521	 -0.000161
C	 0.713506	 -1.165106	 1.339829
H	 1.866275	 -0.154145	 -0.177818
H	 0.566560	 -1.135847	 -0.812318
H	 0.998912	 -0.498293	 2.143492
H	 1.355945	 -2.036912	 1.372686
H	 -0.307348	 -1.484909	 1.505817

	symmetry c1
}
set optking {
	frozen_dihedral = ("
		7 5 3 2
	")
}

ee = optimize('scf')
oeprop('DIPOLE', 'QUADRUPOLE', 'MULLIKEN_CHARGES')
f=open( 'psi4out.xyz', 'w' )
f.write( "11  " )
f.write( str(ee) + "\n" )
f.write( MOL.save_string_xyz() )
f.close()
--------------------------------------------------------------------------

    Molecular point group: c1
  Charge       = 0
  Multiplicity = 1
  Basis Set: CC-PVTZ
  Basis Set:
  @DF-RHF Final Energy:  -266.92676762207736
    Total Energy =                       -266.9267676220773637
    Molecular point group: c1
  Basis Set: CC-PVTZ
  Basis Set:
  Basis Set: CC-PVTZ
  Basis Set:
  @DF-RHF Final Energy:  -266.92975162412210
    Total Energy =                       -266.9297516241222752
  Basis Set: CC-PVTZ
  Basis Set:
  Basis Set: CC-PVTZ
  Basis Set:
  @DF-RHF Final Energy:  -266.92958212572466
    Total Energy =                       -266.9295821257246075
  Basis Set: CC-PVTZ
  Basis Set:
  Basis Set: CC-PVTZ
  Basis Set:
  @DF-RHF Final Energy:  -266.92927960800534
    Total Energy =                       -266.9292796080052881
  Basis Set: CC-PVTZ
  Basis Set:
  Basis Set: CC-PVTZ
  Basis Set:
  @DF-RHF Final Energy:  -266.93012931603380
    Total Energy =                       -266.9301293160336854
  Basis Set: CC-PVTZ
  Basis Set:
  Basis Set: CC-PVTZ
  Basis Set:
  @DF-RHF Final Energy:  -266.93014007412705
    Total Energy =                       -266.9301400741271664
  Basis Set: CC-PVTZ
  Basis Set:
  Charge       = 0
  Multiplicity = 1
  Basis Set: CC-PVTZ
  Basis Set:

    Orbital Energies (a.u.)
    -----------------------

    Doubly Occupied:

       1A    -20.605150     2A    -20.545548     3A    -11.370858
       4A    -11.291173     5A    -11.220103     6A     -1.478416
       7A     -1.377454     8A     -1.048986     9A     -0.914348
      10A     -0.795924    11A     -0.745509    12A     -0.687590
      13A     -0.658219    14A     -0.627137    15A     -0.577433
      16A     -0.542660    17A     -0.535463    18A     -0.503404
      19A     -0.462567    20A     -0.455176

  @DF-RHF Final Energy:  -266.93014038334184

   => Energetics <=

    Nuclear Repulsion Energy =            182.9717220748186719
    One-Electron Energy =                -726.9174856703157275
    Two-Electron Energy =                 277.0156232121551056
    DFT Exchange-Correlation Energy =       0.0000000000000000
    Empirical Dispersion Energy =           0.0000000000000000
    PCM Polarization Energy =               0.0000000000000000
    EFP Energy =                            0.0000000000000000
    Total Energy =                       -266.9301403833419499
    Molecular point group: c1
  Basis Set: CC-PVTZ
  Basis Set:

  -Total Gradient:
     Atom            X                  Y                   Z
    ------   -----------------  -----------------  -----------------
       1       -0.000013412381     0.000004801618    -0.000006442782
       2       -0.000068736255     0.000087135492     0.002700313291
       3        0.000108870180    -0.000035814809    -0.003372969810
       4        0.000020341621     0.000008579717    -0.000009894935
       5       -0.000416451718    -0.000419723231    -0.002186737715
       6        0.000002818437    -0.000022727657    -0.000015945479
       7        0.000362516596     0.000360679953     0.002886965716
       8       -0.000007698686     0.000010333514    -0.000001309250
       9       -0.000000206660     0.000005603367    -0.000003476977
      10        0.000004212304    -0.000003671726     0.000010550323
      11        0.000007746560     0.000004803763    -0.000001052382

  **** Optimization is complete! (in 7 steps) ****
    Final optimized geometry and variables:
    Molecular point group: c1

    Geometry (in Angstrom), charge = 0, multiplicity = 1:

    H           -1.472395936772     1.692368916099    -0.289084747906
    C           -0.985779459464     0.721897876216    -0.298927285213
    O            0.316239593226     0.874192094837    -0.275801478974
    O           -1.569126953972    -0.301794276114    -0.338758916871
    C            1.148618243497    -0.283438217420    -0.224947754047
    C            1.099909026046    -0.980500663488     1.120754953630
    H            2.141436529568     0.102039049567    -0.396971532802
    H            0.874028041640    -0.952008752142    -1.027358759305
    H            1.352083961203    -0.287846565045     1.914904917922
    H            1.828422807175    -1.783331713520     1.128938743192
    H            0.125334364868    -1.401600314566     1.316143951309

  Mulliken Charges: (a.u.)
   Center  Symbol    Alpha    Beta     Spin     Total
       1     H     0.44568  0.44568  0.00000  0.10864
       2     C     2.84212  2.84212  0.00000  0.31577
       3     O     4.14876  4.14876  0.00000 -0.29752
       4     O     4.19764  4.19764  0.00000 -0.39529
       5     C     2.97996  2.97996  0.00000  0.04007
       6     C     3.15062  3.15062  0.00000 -0.30123
       7     H     0.44391  0.44391  0.00000  0.11218
       8     H     0.45047  0.45047  0.00000  0.09905
       9     H     0.45203  0.45203  0.00000  0.09595
      10     H     0.45062  0.45062  0.00000  0.09877
      11     H     0.43819  0.43819  0.00000  0.12361

   Total alpha = 20.00000, Total beta = 20.00000, Total charge = -0.00000
