  ==> Input File <==

--------------------------------------------------------------------------
set {
	reference rhf
	basis 6-31G*
}

set_num_threads( 4 )
memory 2 gb

molecule MOL {
0 1

O	 1.846825	 1.296220	 0.000415
C	 1.705091	 0.115954	 0.001797
C	 0.381791	 -0.609817	 0.001258
O	 2.721346	 -0.737485	 -0.000216
C	 -0.823008	 0.326187	 0.001381
H	 0.371250	 -1.265087	 -0.865474
H	 0.370908	 -1.265746	 0.867490
C	 -0.762748	 1.349947	 -1.133232
H	 -0.878417	 0.837564	 0.957212
H	 -1.732247	 -0.261228	 -0.079469
C	 -1.963330	 2.297711	 -1.147559
H	 0.152935	 1.933359	 -1.048673
H	 -0.704925	 0.830971	 -2.088848
C	 -1.903165	 3.319605	 -2.282180
H	 -2.021001	 2.818833	 -0.194539
H	 -2.878757	 1.716460	 -1.232866
H	 -1.014895	 3.940228	 -2.204595
H	 -2.767419	 3.976299	 -2.265797
H	 -1.879002	 2.829026	 -3.251230
C	 4.024888	 -0.184556	 -0.001949
H	 4.179030	 0.422472	 -0.882452
H	 4.701782	 -1.024608	 -0.003642
H	 4.181981	 0.421185	 0.878906

	symmetry c1
}
set optking {
	frozen_dihedral = ("
		9 5 3 6
	")
}

ee = optimize('scf')
oeprop('DIPOLE', 'QUADRUPOLE', 'MULLIKEN_CHARGES')
f=open( 'psi4out.xyz', 'w' )
f.write( "23  " )
f.write( str(ee) + "\n" )
f.write( MOL.save_string_xyz() )
f.close()
--------------------------------------------------------------------------

    Molecular point group: c1
  Charge       = 0
  Multiplicity = 1
  Basis Set: 6-31G*
  Basis Set:
  @DF-RHF Final Energy:  -422.97014928948664
    Total Energy =                       -422.9701492894868124
    Molecular point group: c1
  Basis Set: 6-31G*
  Basis Set:
  Basis Set: 6-31G*
  Basis Set:
  @DF-RHF Final Energy:  -422.97401792110657
    Total Energy =                       -422.9740179211062241
  Basis Set: 6-31G*
  Basis Set:
  Basis Set: 6-31G*
  Basis Set:
  @DF-RHF Final Energy:  -422.97371965380063
    Total Energy =                       -422.9737196538002308
  Basis Set: 6-31G*
  Basis Set:
  Basis Set: 6-31G*
  Basis Set:
  @DF-RHF Final Energy:  -422.97438439782070
    Total Energy =                       -422.9743843978203586
  Basis Set: 6-31G*
  Basis Set:
  @DF-RHF Final Energy:  -422.97493017662151
    Total Energy =                       -422.9749301766216831
  @DF-RHF Final Energy:  -422.97503876325476
    Total Energy =                       -422.9750387632544744
  Basis Set: 6-31G*
  Basis Set:
  @DF-RHF Final Energy:  -422.97506239909308
    Total Energy =                       -422.9750623990931899
  Basis Set: 6-31G*
  Basis Set:
  Basis Set: 6-31G*
  Basis Set:
  @DF-RHF Final Energy:  -422.97507233991809
    Total Energy =                       -422.9750723399172330
  Basis Set: 6-31G*
  Basis Set:
  Basis Set: 6-31G*
  Basis Set:
  @DF-RHF Final Energy:  -422.97507667462054
    Total Energy =                       -422.9750766746205954
  Basis Set: 6-31G*
  Basis Set:
  Charge       = 0
  Multiplicity = 1
  Basis Set: 6-31G*
  Basis Set:

    Orbital Energies (a.u.)
    -----------------------

    Doubly Occupied:

       1A    -20.605104     2A    -20.545092     3A    -11.373165
       4A    -11.281367     5A    -11.235775     6A    -11.221390
       7A    -11.213325     8A    -11.211138     9A    -11.206298
      10A     -1.470312    11A     -1.363030    12A     -1.090574
      13A     -1.041419    14A     -0.986037    15A     -0.931149
      16A     -0.844074    17A     -0.794640    18A     -0.766243
      19A     -0.700170    20A     -0.680604    21A     -0.671444
      22A     -0.641590    23A     -0.611412    24A     -0.599633
      25A     -0.568450    26A     -0.560431    27A     -0.552132
      28A     -0.527957    29A     -0.522725    30A     -0.501737
      31A     -0.490396    32A     -0.468349    33A     -0.463781
      34A     -0.454978    35A     -0.451363    36A     -0.434392

  @DF-RHF Final Energy:  -422.97507680251039

   => Energetics <=

    Nuclear Repulsion Energy =            463.5464298688829672
    One-Electron Energy =               -1494.8796584804326812
    Two-Electron Energy =                 608.3581518090393274
    DFT Exchange-Correlation Energy =       0.0000000000000000
    Empirical Dispersion Energy =           0.0000000000000000
    PCM Polarization Energy =               0.0000000000000000
    EFP Energy =                            0.0000000000000000
    Total Energy =                       -422.9750768025103298
    Molecular point group: c1
  Basis Set: 6-31G*
  Basis Set:

  -Total Gradient:
     Atom            X                  Y                   Z
    ------   -----------------  -----------------  -----------------
       1        0.000009564609    -0.000012925041    -0.000013254325
       2       -0.000006626994     0.000007412702     0.000018177636
       3        0.001928887597     0.002240223428    -0.001939815937
       4       -0.000000597898     0.000008440836     0.000008739277
       5        0.002004693555     0.002410603102    -0.001031719223
       6       -0.001902995165    -0.002236631985     0.001762979432
       7       -0.000004922588     0.000006373847    -0.000003023989
       8       -0.000016505577    -0.000010977485    -0.000026089762
       9       -0.002030932722    -0.002408972984     0.001214164909
      10        0.000007685208    -0.000008744861    -0.000006089458
      11        0.000009266651     0.000017306079     0.000020953998
      12        0.000000879145    -0.000008496171     0.000007179543
      13        0.000002725928     0.000000813497    -0.000004980493
      14       -0.000001467422    -0.000013053982    -0.000006292297
      15        0.000002811821     0.000003465048     0.000005050840
      16        0.000003498839     0.000005876333    -0.000000299238
      17       -0.000004752567     0.000004174124     0.000007268458
      18       -0.000004690973    -0.000007313127    -0.000002789359
      19        0.000009199785    -0.000000453909     0.000000063813
      20       -0.000011823784     0.000001612052    -0.000016873270
      21        0.000005430303     0.000001244036     0.000001149256
      22        0.000004199577     0.000000844235     0.000002173093
      23       -0.000003527340    -0.000000819773     0.000003327096

  **** Optimization is complete! (in 10 steps) ****
    Final optimized geometry and variables:
    Molecular point group: c1

    Geometry (in Angstrom), charge = 0, multiplicity = 1:

    O            1.317918044633     0.387909241117     1.072416536311
    C            1.116886918377    -0.702195029539     0.640745616841
    C           -0.238579764721    -1.353317343384     0.513739424625
    O            2.087243189565    -1.517985009857     0.252414491758
    C           -1.417742489471    -0.380342557959     0.476181792714
    H           -0.244889476056    -2.021860966555    -0.339581340231
    H           -0.331872229851    -2.000796961969     1.384086624954
    C           -1.395715393670     0.605717381566    -0.692736929515
    H           -1.479278239082     0.147052803711     1.422575109696
    H           -2.322778066922    -0.980966137780     0.412310281217
    C           -2.637889754630     1.497656396882    -0.735442266748
    H           -0.510116120403     1.228751275682    -0.627393484739
    H           -1.322257607327     0.050528415505    -1.627582209589
    C           -2.621002333002     2.484936928867    -1.901775766518
    H           -2.716241918895     2.046730393519     0.200201335274
    H           -3.528815415506     0.876369975240    -0.801577565680
    H           -1.760500471786     3.145089605943    -1.842803278838
    H           -3.513124065443     3.103612040944    -1.906435987959
    H           -2.573901834262     1.965508062937    -2.854920817356
    C            3.415627761016    -1.044462466516     0.382864683669
    H            3.560476820401    -0.152864365428    -0.209890732996
    H            4.048978091214    -1.840170788410     0.022909243254
    H            3.640881451454    -0.824547351535     1.416501435352

  Mulliken Charges: (a.u.)
   Center  Symbol    Alpha    Beta     Spin     Total
       1     O     4.28805  4.28805  0.00000 -0.57610
       2     C     2.60414  2.60414  0.00000  0.79172
       3     C     3.21087  3.21087  0.00000 -0.42174
       4     O     4.30581  4.30581  0.00000 -0.61161
       5     C     3.15235  3.15235  0.00000 -0.30470
       6     H     0.40052  0.40052  0.00000  0.19897
       7     H     0.39835  0.39835  0.00000  0.20331
       8     C     3.15892  3.15892  0.00000 -0.31784
       9     H     0.40999  0.40999  0.00000  0.18001
      10     H     0.41983  0.41983  0.00000  0.16033
      11     C     3.15221  3.15221  0.00000 -0.30443
      12     H     0.40651  0.40651  0.00000  0.18698
      13     H     0.42689  0.42689  0.00000  0.14622
      14     C     3.23948  3.23948  0.00000 -0.47896
      15     H     0.42047  0.42047  0.00000  0.15907
      16     H     0.42469  0.42469  0.00000  0.15063
      17     H     0.41991  0.41991  0.00000  0.16018
      18     H     0.41964  0.41964  0.00000  0.16072
      19     H     0.42270  0.42270  0.00000  0.15459
      20     C     3.09269  3.09269  0.00000 -0.18539
      21     H     0.40864  0.40864  0.00000  0.18272
      22     H     0.40828  0.40828  0.00000  0.18344
      23     H     0.40907  0.40907  0.00000  0.18186

   Total alpha = 36.00000, Total beta = 36.00000, Total charge =  0.00000
