  ==> Input File <==

--------------------------------------------------------------------------
set {
	reference rhf
	basis 6-31G*
}

set_num_threads( 4 )
memory 2 gb

molecule MOL {
0 1

H	 -2.853136	 1.802102	 -1.084916
O	 -2.689914	 2.107033	 -0.202743
C	 -1.322376	 2.006296	 0.068649
C	 -0.793441	 0.596080	 0.058728
H	 -1.175819	 2.443273	 1.049860
H	 -0.743713	 2.609668	 -0.630004
C	 -1.530462	 -0.493172	 -0.025500
H	 0.279937	 0.512098	 0.131457
H	 -1.092586	 -1.461565	 -0.186463
H	 -2.602122	 -0.450675	 0.050101

	symmetry c1
}
set optking {
	frozen_dihedral = ("
		3 4 7 9
	")
}

ee = optimize('scf')
oeprop('DIPOLE', 'QUADRUPOLE', 'MULLIKEN_CHARGES')
f=open( 'psi4out.xyz', 'w' )
f.write( "10  " )
f.write( str(ee) + "\n" )
f.write( MOL.save_string_xyz() )
f.close()
--------------------------------------------------------------------------

    Molecular point group: c1
  Charge       = 0
  Multiplicity = 1
  Basis Set: 6-31G*
  Basis Set:
  @DF-RHF Final Energy:  -191.91526286410954
    Total Energy =                       -191.9152628641095930
    Molecular point group: c1
  Basis Set: 6-31G*
  Basis Set:
  Basis Set: 6-31G*
  Basis Set:
  @DF-RHF Final Energy:  -191.91603047586150
    Total Energy =                       -191.9160304758615325
  Basis Set: 6-31G*
  Basis Set:
  Basis Set: 6-31G*
  Basis Set:
  @DF-RHF Final Energy:  -191.91627365075732
    Total Energy =                       -191.9162736507573754
  Basis Set: 6-31G*
  Basis Set:
  Basis Set: 6-31G*
  Basis Set:
  @DF-RHF Final Energy:  -191.91627831805340
    Total Energy =                       -191.9162783180533154
  Basis Set: 6-31G*
  Basis Set:
  Charge       = 0
  Multiplicity = 1
  Basis Set: 6-31G*
  Basis Set:

    Orbital Energies (a.u.)
    -----------------------

    Doubly Occupied:

       1A    -20.560661     2A    -11.278737     3A    -11.231895
       4A    -11.219982     5A     -1.369547     6A     -1.058269
       7A     -0.929056     8A     -0.769202     9A     -0.688351
      10A     -0.661704    11A     -0.616120    12A     -0.571141
      13A     -0.537333    14A     -0.493702    15A     -0.447571
      16A     -0.364765

  @DF-RHF Final Energy:  -191.91627841532591

   => Energetics <=

    Nuclear Repulsion Energy =            119.3994254676515538
    One-Electron Energy =                -497.0353328206559240
    Two-Electron Energy =                 185.7196289376784080
    DFT Exchange-Correlation Energy =       0.0000000000000000
    Empirical Dispersion Energy =           0.0000000000000000
    PCM Polarization Energy =               0.0000000000000000
    EFP Energy =                            0.0000000000000000
    Total Energy =                       -191.9162784153259622
    Molecular point group: c1
  Basis Set: 6-31G*
  Basis Set:

  -Total Gradient:
     Atom            X                  Y                   Z
    ------   -----------------  -----------------  -----------------
       1        0.000002857646    -0.000008662096    -0.000002496245
       2        0.000009432244     0.000033499706    -0.000008621136
       3        0.000500840874     0.000144116833    -0.004683055047
       4       -0.000927950882     0.000114472195     0.004871220844
       5       -0.000001645155     0.000023342100     0.000000719230
       6       -0.000022487412    -0.000012677830    -0.000002146886
       7        0.000644780523    -0.001116344350     0.006250634102
       8        0.000003918378    -0.000021705102     0.000122012975
       9       -0.000212164640     0.000833490024    -0.006481500662
      10        0.000002418423     0.000010468519    -0.000066767174

  **** Optimization is complete! (in 5 steps) ****
    Final optimized geometry and variables:
    Molecular point group: c1

    Geometry (in Angstrom), charge = 0, multiplicity = 1:

    H           -1.232006482709     0.660495112038    -1.011365312918
    O           -1.051521121133     0.998617066694    -0.144740308503
    C            0.318860772674     0.895761182395     0.107830913728
    C            0.840156453734    -0.517446975178     0.123324743853
    H            0.484541939916     1.370225213942     1.068531555891
    H            0.891956504427     1.465435785709    -0.622996135850
    C            0.104551908323    -1.605340035432     0.009170211932
    H            1.915375682629    -0.602522299519     0.159928926524
    H            0.552361397437    -2.572746587267    -0.130491863704
    H           -0.968926996482    -1.559678424854    -0.027992395096

  Mulliken Charges: (a.u.)
   Center  Symbol    Alpha    Beta     Spin     Total
       1     H     0.28103  0.28103  0.00000  0.43794
       2     O     4.36650  4.36650  0.00000 -0.73300
       3     C     3.00080  3.00080  0.00000 -0.00160
       4     C     3.09171  3.09171  0.00000 -0.18343
       5     H     0.40865  0.40865  0.00000  0.18270
       6     H     0.42506  0.42506  0.00000  0.14989
       7     C     3.19823  3.19823  0.00000 -0.39646
       8     H     0.41029  0.41029  0.00000  0.17942
       9     H     0.41085  0.41085  0.00000  0.17829
      10     H     0.40688  0.40688  0.00000  0.18625

   Total alpha = 16.00000, Total beta = 16.00000, Total charge = -0.00000
