  ==> Input File <==

--------------------------------------------------------------------------
set {
	reference rhf
	basis 6-31G*
}

set_num_threads( 4 )
memory 2 gb

molecule MOL {
0 1

H	 -1.652018	 -1.614382	 -0.109594
C	 -1.808907	 -0.542941	 -0.040739
N	 -0.528168	 0.128977	 -0.000000
H	 -2.352479	 -0.347214	 0.876461
H	 -2.438504	 -0.244299	 -0.883168
C	 0.248044	 -0.037491	 -1.209632
H	 -0.663017	 1.103147	 0.183948
H	 0.998722	 0.743888	 -1.266824
H	 -0.398417	 0.061950	 -2.074060
H	 0.763621	 -0.999315	 -1.275517

	symmetry c1
}
set optking {
	frozen_dihedral = ("
		2 3 6 8
	")
}

ee = optimize('scf')
oeprop('DIPOLE', 'QUADRUPOLE', 'MULLIKEN_CHARGES')
f=open( 'psi4out.xyz', 'w' )
f.write( "10  " )
f.write( str(ee) + "\n" )
f.write( MOL.save_string_xyz() )
f.close()
--------------------------------------------------------------------------

    Molecular point group: c1
  Charge       = 0
  Multiplicity = 1
  Basis Set: 6-31G*
  Basis Set:
  @DF-RHF Final Energy:  -134.23676216925821
    Total Energy =                       -134.2367621692583270
    Molecular point group: c1
  Basis Set: 6-31G*
  Basis Set:
  Basis Set: 6-31G*
  Basis Set:
  @DF-RHF Final Energy:  -134.23763239859977
    Total Energy =                       -134.2376323985997715
  Basis Set: 6-31G*
  Basis Set:
  Basis Set: 6-31G*
  Basis Set:
  @DF-RHF Final Energy:  -134.23777657363320
    Total Energy =                       -134.2377765736331696
  Basis Set: 6-31G*
  Basis Set:
  Charge       = 0
  Multiplicity = 1
  Basis Set: 6-31G*
  Basis Set:

    Orbital Energies (a.u.)
    -----------------------

    Doubly Occupied:

       1A    -15.538257     2A    -11.236116     3A    -11.236031
       4A     -1.199396     5A     -0.948011     6A     -0.853937
       7A     -0.661722     8A     -0.612800     9A     -0.591066
      10A     -0.541835    11A     -0.509334    12A     -0.504985
      13A     -0.362357

  @DF-RHF Final Energy:  -134.23777785831373

   => Energetics <=

    Nuclear Repulsion Energy =             84.6166496944687196
    One-Electron Energy =                -348.1171564462435413
    Two-Electron Energy =                 129.2627288934611158
    DFT Exchange-Correlation Energy =       0.0000000000000000
    Empirical Dispersion Energy =           0.0000000000000000
    PCM Polarization Energy =               0.0000000000000000
    EFP Energy =                            0.0000000000000000
    Total Energy =                       -134.2377778583137058
    Molecular point group: c1
  Basis Set: 6-31G*
  Basis Set:

  -Total Gradient:
     Atom            X                  Y                   Z
    ------   -----------------  -----------------  -----------------
       1       -0.000030870913    -0.000021900086     0.000001917410
       2       -0.000876594637     0.002007295571    -0.000948184220
       3        0.000928813706    -0.002350099564     0.000765578665
       4        0.000016150637     0.000023800146     0.000003552258
       5       -0.000009777843     0.000000342001    -0.000005480553
       6        0.002022438942    -0.001498034175     0.001622420675
       7        0.000061078088    -0.000020955569    -0.000024010593
       8       -0.002079857265     0.001871732591    -0.001450479171
       9       -0.000027013064    -0.000003497307    -0.000013551359
      10       -0.000004367651    -0.000008683607     0.000048236889

  **** Optimization is complete! (in 4 steps) ****
    Final optimized geometry and variables:
    Molecular point group: c1

    Geometry (in Angstrom), charge = 0, multiplicity = 1:

    H           -0.949448903136    -1.472577639626     0.311281710535
    C           -1.099450455051    -0.401277433362     0.398829230960
    N            0.183803254089     0.266438438226     0.437316707919
    H           -1.633628256756    -0.218420251305     1.324185989327
    H           -1.733215095554    -0.085991475144    -0.433937083833
    C            0.950632760027     0.115706341910    -0.783247827671
    H            0.042472362991     1.238862195697     0.623814147558
    H            1.703377985712     0.893447813045    -0.839105955541
    H            0.340521834021     0.191293592349    -1.687053568323
    H            1.448040079687    -0.848357157740    -0.798210383897

  Mulliken Charges: (a.u.)
   Center  Symbol    Alpha    Beta     Spin     Total
       1     H     0.41799  0.41799  0.00000  0.16402
       2     C     3.14592  3.14592  0.00000 -0.29184
       3     N     3.83785  3.83785  0.00000 -0.67570
       4     H     0.41681  0.41681  0.00000  0.16639
       5     H     0.43423  0.43423  0.00000  0.13155
       6     C     3.14512  3.14512  0.00000 -0.29025
       7     H     0.33248  0.33248  0.00000  0.33503
       8     H     0.41890  0.41890  0.00000  0.16221
       9     H     0.43398  0.43398  0.00000  0.13204
      10     H     0.41673  0.41673  0.00000  0.16654

   Total alpha = 13.00000, Total beta = 13.00000, Total charge = -0.00000
