                              Psi4 1.0.54 Driver

  ==> Input File <==

--------------------------------------------------------------------------
set {
	reference rhf
	basis cc-pvtz
}

set_num_threads( 4 )
memory 2 gb

molecule MOL {
0 1

H	 2.315321	 -1.197530	 0.452821
N	 2.433987	 -0.362316	 -0.080024
C	 1.263552	 0.494993	 0.021953
H	 2.593065	 -0.637073	 -1.026882
C	 -0.016533	 -0.325589	 -0.026925
H	 1.280915	 1.180773	 -0.818522
H	 1.263064	 1.106893	 0.925038
C	 -1.280353	 0.525521	 0.047747
H	 -0.016686	 -0.912532	 -0.939714
H	 -0.014099	 -1.037598	 0.796369
C	 -2.560681	 -0.301323	 -0.007747
H	 -1.279957	 1.241025	 -0.770189
H	 -1.270445	 1.110526	 0.963468
H	 -2.617064	 -0.872870	 -0.928010
H	 -3.439525	 0.331102	 0.043462
H	 -2.609427	 -1.002736	 0.818585

	symmetry c1
}
set optking {
	frozen_dihedral = ("
		1 2 3 6
	")
}

ee,wfn = optimize('scf', return_wfn=True)
oeprop( wfn, 'DIPOLE', 'QUADRUPOLE', 'MULLIKEN_CHARGES')
f=open( 'psi4out.xyz', 'w' )
f.write( "16  " )
f.write( str(ee) + "\n" )
f.write( MOL.save_string_xyz() )
f.close()
--------------------------------------------------------------------------

    Molecular point group: c1
  Charge       = 0
  Multiplicity = 1
  Basis Set: CC-PVTZ
  Basis Set:
  @DF-RHF Final Energy:  -212.39771325430104
    Total Energy =                       -212.3977132543010384
    Molecular point group: c1
  Basis Set: CC-PVTZ
  Basis Set:
  Basis Set: CC-PVTZ
  Basis Set:
  @DF-RHF Final Energy:  -212.39895945485935
    Total Energy =                       -212.3989594548595790
  Basis Set: CC-PVTZ
  Basis Set:
  Basis Set: CC-PVTZ
  Basis Set:
  @DF-RHF Final Energy:  -212.39923135976974
    Total Energy =                       -212.3992313597695443
  Basis Set: CC-PVTZ
  Basis Set:
  Basis Set: CC-PVTZ
  Basis Set:
  @DF-RHF Final Energy:  -212.39923646554155
    Total Energy =                       -212.3992364655417759
  Basis Set: CC-PVTZ
  Basis Set:
  Charge       = 0
  Multiplicity = 1
  Basis Set: CC-PVTZ
  Basis Set:

    Orbital Energies (a.u.)
    -----------------------

    Doubly Occupied:

       1A    -15.526638     2A    -11.238386     3A    -11.215865
       4A    -11.211974     5A    -11.208771     6A     -1.178603
       7A     -1.063235     8A     -0.960582     9A     -0.848403
      10A     -0.797311    11A     -0.677279    12A     -0.627536
      13A     -0.598508    14A     -0.587855    15A     -0.556104
      16A     -0.525284    17A     -0.503914    18A     -0.486564
      19A     -0.471875    20A     -0.466523    21A     -0.380051

  @DF-RHF Final Energy:  -212.39923686463862

   => Energetics <=

    Nuclear Repulsion Energy =            186.3976273243973765
    One-Electron Energy =                -655.3312123681522507
    Two-Electron Energy =                 256.5343481791161366
    DFT Exchange-Correlation Energy =       0.0000000000000000
    Empirical Dispersion Energy =           0.0000000000000000
    PCM Polarization Energy =               0.0000000000000000
    EFP Energy =                            0.0000000000000000
    Total Energy =                       -212.3992368646387376
    Molecular point group: c1
  Basis Set: CC-PVTZ
  Basis Set:

  -Total Gradient:
     Atom            X                  Y                   Z
    ------   -----------------  -----------------  -----------------
       1       -0.001078001517    -0.001241271650    -0.002198812608
       2        0.001037256369     0.001155521204     0.002448518234
       3        0.001320150725     0.001703807053     0.001135346095
       4       -0.000002589440    -0.000001043152    -0.000005767358
       5        0.000037593501    -0.000005620156    -0.000008704224
       6       -0.001289955348    -0.001604297993    -0.001384760234
       7        0.000000151291     0.000002167352     0.000005041612
       8        0.000031106970    -0.000004705848    -0.000001016445
       9        0.000000946540     0.000005547150     0.000005640025
      10       -0.000010186963    -0.000014072459    -0.000003911151
      11       -0.000033090165     0.000000671815     0.000013887762
      12        0.000003011321     0.000000313420     0.000000087630
      13       -0.000007460452     0.000006826490    -0.000008466518
      14        0.000004246504     0.000006899804     0.000001501685
      15       -0.000011648019    -0.000008871403     0.000003907760
      16       -0.000001531321    -0.000001871626    -0.000002492264

  **** Optimization is complete! (in 5 steps) ****
    Final optimized geometry and variables:
    Molecular point group: c1

    Geometry (in Angstrom), charge = 0, multiplicity = 1:

    H            2.350540385391    -1.285275517708     0.396735082566
    N            2.470293609687    -0.442799039511    -0.126700128149
    C            1.294322482512     0.408724800511    -0.017798555289
    H            2.612510999777    -0.722143920562    -1.074542817526
    C           -0.042785528953    -0.328511450382    -0.022876447964
    H            1.311864466304     1.104744978866    -0.849504571337
    H            1.375743104695     0.999246628508     0.888876813342
    C           -1.245556516433     0.602414233223     0.098806610886
    H           -0.124119570928    -0.911419900593    -0.937767571451
    H           -0.056694508062    -1.043055304008     0.798105116402
    C           -2.579322982748    -0.137293289888     0.104304963395
    H           -1.233087971913     1.314289737158    -0.722187219956
    H           -1.155666416031     1.188005173419     1.009603585297
    H           -2.715300843825    -0.705444495123    -0.809895064581
    H           -3.410913686393     0.552423247436     0.191452861856
    H           -2.637651802467    -0.832167681564     0.935435321726

  Mulliken Charges: (a.u.)
   Center  Symbol    Alpha    Beta     Spin     Total
       1     H     0.43187  0.43187  0.00000  0.13627
       2     N     3.68871  3.68871  0.00000 -0.37741
       3     C     3.02577  3.02577  0.00000 -0.05153
       4     H     0.43215  0.43215  0.00000  0.13570
       5     C     3.08655  3.08655  0.00000 -0.17311
       6     H     0.45626  0.45626  0.00000  0.08748
       7     H     0.45452  0.45452  0.00000  0.09097
       8     C     3.09000  3.09000  0.00000 -0.18000
       9     H     0.45938  0.45938  0.00000  0.08124
      10     H     0.45955  0.45955  0.00000  0.08090
      11     C     3.14862  3.14862  0.00000 -0.29725
      12     H     0.45441  0.45441  0.00000  0.09117
      13     H     0.45409  0.45409  0.00000  0.09181
      14     H     0.45504  0.45504  0.00000  0.08992
      15     H     0.44822  0.44822  0.00000  0.10355
      16     H     0.45485  0.45485  0.00000  0.09029

   Total alpha = 21.00000, Total beta = 21.00000, Total charge =  0.00000

*** Psi4 exiting successfully. Buy a developer a beer!
