  ==> Input File <==

--------------------------------------------------------------------------
set {
	reference rhf
	basis 6-31G*
}

set_num_threads( 4 )
memory 2 gb

molecule MOL {
0 1

O	 1.165813	 0.495763	 0.965778
C	 0.576249	 0.131685	 -0.000108
C	 -0.766779	 -0.556801	 -0.000461
O	 1.036599	 0.288756	 -1.234640
C	 -1.945214	 0.412366	 0.000161
H	 -0.796911	 -1.211249	 -0.867467
H	 -0.796854	 -1.212390	 0.865687
C	 -3.287791	 -0.317055	 0.000105
H	 -1.876087	 1.060580	 -0.866812
H	 -1.875822	 1.059691	 0.867761
H	 -3.394745	 -0.949193	 -0.877058
H	 -4.111778	 0.388953	 0.000015
H	 -3.394954	 -0.949187	 0.877259
C	 2.294108	 0.924371	 -1.375611
H	 2.261772	 1.924975	 -0.969056
H	 2.490598	 0.957668	 -2.435870
H	 3.064075	 0.359991	 -0.869512

	symmetry c1
}
set optking {
	frozen_dihedral = ("
		1 2 3 6
	")
}

ee = optimize('scf')
oeprop('DIPOLE', 'QUADRUPOLE', 'MULLIKEN_CHARGES')
f=open( 'psi4out.xyz', 'w' )
f.write( "17  " )
f.write( str(ee) + "\n" )
f.write( MOL.save_string_xyz() )
f.close()
--------------------------------------------------------------------------

    Molecular point group: c1
  Charge       = 0
  Multiplicity = 1
  Basis Set: 6-31G*
  Basis Set:
  @DF-RHF Final Energy:  -344.90461888649963
    Total Energy =                       -344.9046188864996907
    Molecular point group: c1
  Basis Set: 6-31G*
  Basis Set:
  Basis Set: 6-31G*
  Basis Set:
  @DF-RHF Final Energy:  -344.90476451216972
    Total Energy =                       -344.9047645121700043
  Basis Set: 6-31G*
  Basis Set:
  Basis Set: 6-31G*
  Basis Set:
  @DF-RHF Final Energy:  -344.90530924210492
    Total Energy =                       -344.9053092421051474
  Basis Set: 6-31G*
  Basis Set:
  Basis Set: 6-31G*
  Basis Set:
  @DF-RHF Final Energy:  -344.90539778956560
    Total Energy =                       -344.9053977895656544
  Basis Set: 6-31G*
  Basis Set:
  Charge       = 0
  Multiplicity = 1
  Basis Set: 6-31G*
  Basis Set:

    Orbital Energies (a.u.)
    -----------------------

    Doubly Occupied:

       1A    -20.604981     2A    -20.542998     3A    -11.371026
       4A    -11.280807     5A    -11.234138     6A    -11.232597
       7A    -11.218896     8A     -1.468986     9A     -1.361362
      10A     -1.084381    11A     -0.999787    12A     -0.941714
      13A     -0.830264    14A     -0.773763    15A     -0.697481
      16A     -0.679497    17A     -0.673141    18A     -0.636290
      19A     -0.595296    20A     -0.582431    21A     -0.553763
      22A     -0.542537    23A     -0.526062    24A     -0.506477
      25A     -0.487983    26A     -0.484395    27A     -0.453915
      28A     -0.432348

  @DF-RHF Final Energy:  -344.90539833971172

   => Energetics <=

    Nuclear Repulsion Energy =            313.8839906700239908
    One-Electron Energy =               -1091.9841481161242882
    Two-Electron Energy =                 433.1947591063884602
    DFT Exchange-Correlation Energy =       0.0000000000000000
    Empirical Dispersion Energy =           0.0000000000000000
    PCM Polarization Energy =               0.0000000000000000
    EFP Energy =                            0.0000000000000000
    Total Energy =                       -344.9053983397118373
    Molecular point group: c1
  Basis Set: 6-31G*
  Basis Set:

  -Total Gradient:
     Atom            X                  Y                   Z
    ------   -----------------  -----------------  -----------------
       1       -0.000184760901     0.000375712533    -0.000127517856
       2        0.000173879382    -0.000494841371     0.000043973798
       3        0.000043350568    -0.000162454269     0.000303477397
       4        0.000053687064     0.000045306536     0.000061306855
       5       -0.000001918851    -0.000009262800    -0.000001551772
       6       -0.000161341941     0.000301266745    -0.000215225316
       7       -0.000016786599    -0.000026763651    -0.000004628398
       8        0.000018753945    -0.000023135746     0.000001904065
       9        0.000006133264    -0.000008395595    -0.000003062681
      10        0.000003229834    -0.000005747624     0.000000182686
      11       -0.000002198484    -0.000006632520    -0.000007911001
      12        0.000023421416     0.000014841866     0.000000250291
      13        0.000004132573    -0.000002880902     0.000002921244
      14        0.000006006913    -0.000024877781    -0.000051835404
      15       -0.000003387531    -0.000000032994     0.000002949799
      16        0.000034403190     0.000022630377    -0.000004919930
      17        0.000003396158     0.000005267193    -0.000000313780

  **** Optimization is complete! (in 5 steps) ****
    Final optimized geometry and variables:
    Molecular point group: c1

    Geometry (in Angstrom), charge = 0, multiplicity = 1:

    O            1.267328829037     0.238977031419     1.217188688614
    C            0.685944797317    -0.121845835406     0.244377456494
    C           -0.652370328991    -0.816335107859     0.253525986071
    O            1.131762152443     0.087133740769    -0.987480851151
    C           -1.798368942539     0.206812607115     0.214011703753
    H           -0.720080048470    -1.479725571823    -0.600509573370
    H           -0.710470711497    -1.403759196512     1.161595774536
    C           -3.169409368885    -0.465290043097     0.248088159569
    H           -1.708545382870     0.809343904176    -0.685230707261
    H           -1.698376691763     0.881261515603     1.058940206589
    H           -3.303742604161    -1.127169880454    -0.602425690772
    H           -3.963298259623     0.273944358689     0.221786471510
    H           -3.294548704107    -1.054700624802     1.151520338041
    C            2.358875861886     0.782150702038    -1.116552616416
    H            2.283619711234     1.769109119073    -0.683210410626
    H            2.548967509886     0.851999166605    -2.176246247839
    H            3.155149404476     0.239554502672    -0.627844415211

  Mulliken Charges: (a.u.)
   Center  Symbol    Alpha    Beta     Spin     Total
       1     O     4.28553  4.28553  0.00000 -0.57106
       2     C     2.61705  2.61705  0.00000  0.76590
       3     C     3.19273  3.19273  0.00000 -0.38546
       4     O     4.30284  4.30284  0.00000 -0.60567
       5     C     3.16549  3.16549  0.00000 -0.33098
       6     H     0.40397  0.40397  0.00000  0.19207
       7     H     0.40055  0.40055  0.00000  0.19891
       8     C     3.24077  3.24077  0.00000 -0.48154
       9     H     0.41170  0.41170  0.00000  0.17660
      10     H     0.40799  0.40799  0.00000  0.18402
      11     H     0.41921  0.41921  0.00000  0.16159
      12     H     0.41509  0.41509  0.00000  0.16983
      13     H     0.41813  0.41813  0.00000  0.16374
      14     C     3.09283  3.09283  0.00000 -0.18566
      15     H     0.40907  0.40907  0.00000  0.18187
      16     H     0.40869  0.40869  0.00000  0.18263
      17     H     0.40839  0.40839  0.00000  0.18323

   Total alpha = 28.00000, Total beta = 28.00000, Total charge =  0.00000
