  ==> Input File <==

--------------------------------------------------------------------------
set {
	reference rhf
	basis cc-pvtz
}

set_num_threads( 4 )
memory 2 gb

molecule MOL {
0 1

H	 -3.268214	 -0.875720	 0.463107
C	 -2.806015	 0.000007	 0.024886
N	 -1.391133	 0.000016	 0.301321
H	 -3.029448	 0.000055	 -1.045738
H	 -3.268126	 0.875758	 0.463150
C	 -0.722652	 1.158915	 -0.249734
C	 -0.745859	 -1.220632	 -0.131313
H	 -0.806631	 1.186785	 -1.340156
H	 -1.195493	 2.053613	 0.137593
C	 0.745582	 1.163668	 0.132732
H	 -1.235633	 -2.063097	 0.342464
H	 -0.831416	 -1.354972	 -1.213662
C	 0.722375	 -1.215879	 0.251153
H	 1.235356	 2.006133	 -0.341045
H	 0.831139	 1.298008	 1.215081
N	 1.390856	 -0.056980	 -0.299902
H	 1.195216	 -2.110577	 -0.136174
H	 0.806354	 -1.243749	 1.341575
C	 2.805738	 -0.056971	 -0.023467
H	 3.276313	 0.791367	 -0.504556
H	 3.259218	 -0.957866	 -0.417556
H	 3.029418	 -0.005982	 1.045890

	symmetry c1
}
set optking {
	frozen_dihedral = ("
		6 3 2 4
	")
}

ee = optimize('scf')
oeprop('DIPOLE', 'QUADRUPOLE', 'MULLIKEN_CHARGES')
f=open( 'psi4out.xyz', 'w' )
f.write( "22  " )
f.write( str(ee) + "\n" )
f.write( MOL.save_string_xyz() )
f.close()
--------------------------------------------------------------------------

    Molecular point group: c1
  Charge       = 0
  Multiplicity = 1
  Basis Set: CC-PVTZ
  Basis Set:
  @DF-RHF Final Energy:  -344.35068298897068
    Total Energy =                       -344.3506829889704477
    Molecular point group: c1
  Basis Set: CC-PVTZ
  Basis Set:
  Charge       = 0
  Multiplicity = 1
  Basis Set: CC-PVTZ
  Basis Set:

    Orbital Energies (a.u.)
    -----------------------

    Doubly Occupied:

       1A    -15.537832     2A    -15.537668     3A    -11.237616
       4A    -11.237591     5A    -11.236965     6A    -11.236944
       7A    -11.234328     8A    -11.234326     9A     -1.257714
      10A     -1.206776    11A     -1.025946    12A     -0.993119
      13A     -0.912235    14A     -0.868203    15A     -0.836355
      16A     -0.755667    17A     -0.667105    18A     -0.638377
      19A     -0.632407    20A     -0.627452    21A     -0.623519
      22A     -0.582716    23A     -0.549988    24A     -0.546586
      25A     -0.542500    26A     -0.517722    27A     -0.496849
      28A     -0.491177    29A     -0.466365    30A     -0.457411
      31A     -0.353066    32A     -0.348066

  @DF-RHF Final Energy:  -344.35068741855315

   => Energetics <=

    Nuclear Repulsion Energy =            422.0597301605442340
    One-Electron Energy =               -1303.0396622907353503
    Two-Electron Energy =                 536.6292447116377389
    DFT Exchange-Correlation Energy =       0.0000000000000000
    Empirical Dispersion Energy =           0.0000000000000000
    PCM Polarization Energy =               0.0000000000000000
    EFP Energy =                            0.0000000000000000
    Total Energy =                       -344.3506874185534343
    Molecular point group: c1
  Basis Set: CC-PVTZ
  Basis Set:

  -Total Gradient:
     Atom            X                  Y                   Z
    ------   -----------------  -----------------  -----------------
       1       -0.000024324429    -0.000026172625    -0.000004934721
       2        0.000133587814    -0.000831815989    -0.000153694264
       3       -0.000081309519     0.000612657985     0.000607575236
       4       -0.000020488940     0.000657907513    -0.000007937279
       5        0.000027224421    -0.000029662954    -0.000007542582
       6       -0.000024811374    -0.000431278917    -0.000425983467
       7       -0.000008898782     0.000151895639     0.000006962192
       8       -0.000011200406    -0.000012784708     0.000000404152
       9       -0.000036199179    -0.000017455031     0.000009901538
      10        0.000007103770    -0.000005131284     0.000060041770
      11        0.000000399432     0.000038628596     0.000004146597
      12        0.000045526032    -0.000069025907    -0.000029292604
      13       -0.000033043106    -0.000061308357    -0.000020521214
      14        0.000003277171    -0.000009202665    -0.000004475449
      15        0.000003722952    -0.000004598984     0.000000337295
      16       -0.000032018107     0.000013422628    -0.000038372765
      17        0.000017660774     0.000002101930     0.000001586321
      18       -0.000003974231     0.000012562929    -0.000011210309
      19        0.000053421288     0.000009964058     0.000022210809
      20       -0.000004469166    -0.000002117995    -0.000001621536
      21       -0.000005194045     0.000000392964    -0.000002580037
      22       -0.000005992369     0.000001021174    -0.000004999685

  **** Optimization is complete! (in 2 steps) ****
    Final optimized geometry and variables:
    Molecular point group: c1

    Geometry (in Angstrom), charge = 0, multiplicity = 1:

    H           -3.271855159063    -0.841998262396     0.465898065620
    C           -2.805523632012     0.029541547942     0.024081406477
    N           -1.391195728115     0.027401758864     0.303145902561
    H           -3.027066504835     0.028415077838    -1.046976909195
    H           -3.265457319694     0.909506068945     0.456807105942
    C           -0.723283073116     1.185412638858    -0.249761285757
    C           -0.745456269043    -1.192129221899    -0.132678161109
    H           -0.807745062064     1.210655501490    -1.340211747967
    H           -1.197013006353     2.080771710751     0.135490610377
    C            0.745122173644     1.191980596003     0.132221076657
    H           -1.234138771819    -2.035822432737     0.339995453152
    H           -0.831025312168    -1.325113219757    -1.215309540144
    C            0.723089944308    -1.187394838524     0.248992991422
    H            1.233849514120     2.035104228164    -0.341663270095
    H            0.830860770692     1.326416370506     1.214600300350
    N            1.391252359901    -0.027889151762    -0.300934176495
    H            1.196081415611    -2.081770580449    -0.139151796929
    H            0.807187398696    -1.216289260176     1.339444017881
    C            2.806009409419    -0.027397269732    -0.024551122098
    H            3.276158229609     0.821551132099    -0.505105182613
    H            3.259997904267    -0.927847931155    -0.419233576771
    H            3.029872541068     0.023033426135     1.044869172455

  Mulliken Charges: (a.u.)
   Center  Symbol    Alpha    Beta     Spin     Total
       1     H     0.45207  0.45207  0.00000  0.09585
       2     C     3.09844  3.09844  0.00000 -0.19687
       3     N     3.61307  3.61307  0.00000 -0.22614
       4     H     0.47004  0.47004  0.00000  0.05993
       5     H     0.45173  0.45173  0.00000  0.09653
       6     C     3.03579  3.03579  0.00000 -0.07159
       7     C     3.03536  3.03536  0.00000 -0.07072
       8     H     0.46776  0.46776  0.00000  0.06448
       9     H     0.45384  0.45384  0.00000  0.09232
      10     C     3.03543  3.03543  0.00000 -0.07085
      11     H     0.45373  0.45373  0.00000  0.09254
      12     H     0.46818  0.46818  0.00000  0.06364
      13     C     3.03555  3.03555  0.00000 -0.07110
      14     H     0.45379  0.45379  0.00000  0.09243
      15     H     0.46799  0.46799  0.00000  0.06402
      16     N     3.61308  3.61308  0.00000 -0.22616
      17     H     0.45378  0.45378  0.00000  0.09243
      18     H     0.46803  0.46803  0.00000  0.06393
      19     C     3.09843  3.09843  0.00000 -0.19685
      20     H     0.45194  0.45194  0.00000  0.09612
      21     H     0.45194  0.45194  0.00000  0.09612
      22     H     0.47003  0.47003  0.00000  0.05994

   Total alpha = 32.00000, Total beta = 32.00000, Total charge = -0.00000
