                              Psi4 1.0.54 Driver

  ==> Input File <==

--------------------------------------------------------------------------
set {
	reference rhf
	basis cc-pvtz
}

set_num_threads( 4 )
memory 2 gb

molecule MOL {
0 1

O	 -1.510770	 1.240811	 -0.054933
C	 -1.081510	 0.147522	 0.122720
C	 0.327029	 -0.064006	 0.641890
C	 -1.903028	 -1.084121	 -0.174656
C	 1.349460	 -0.017068	 -0.500215
H	 0.399029	 -1.014606	 1.159950
H	 0.538021	 0.726928	 1.350471
C	 1.280658	 -1.249989	 -1.394037
H	 1.186913	 0.872824	 -1.101470
H	 2.341375	 0.073068	 -0.073241
H	 2.019671	 -1.196869	 -2.184649
H	 0.304769	 -1.345578	 -1.857994
H	 1.467306	 -2.154156	 -0.825253
H	 -1.341891	 -1.779207	 -0.789259
H	 -2.820449	 -0.808163	 -0.671328
H	 -2.133314	 -1.593056	 0.755831

	symmetry c1
}
set optking {
	frozen_dihedral = ("
		9 5 3 2
	")
}

ee,wfn = optimize('scf', return_wfn=True)
oeprop( wfn, 'DIPOLE', 'QUADRUPOLE', 'MULLIKEN_CHARGES')
f=open( 'psi4out.xyz', 'w' )
f.write( "16  " )
f.write( str(ee) + "\n" )
f.write( MOL.save_string_xyz() )
f.close()
--------------------------------------------------------------------------

    Molecular point group: c1
  Charge       = 0
  Multiplicity = 1
  Basis Set: CC-PVTZ
  Basis Set:
  @DF-RHF Final Energy:  -270.12501543327642
    Total Energy =                       -270.1250154332763032
    Molecular point group: c1
  Basis Set: CC-PVTZ
  Basis Set:
  Basis Set: CC-PVTZ
  Basis Set:
  @DF-RHF Final Energy:  -270.12681039826361
    Total Energy =                       -270.1268103982641833
  Basis Set: CC-PVTZ
  Basis Set:
  Basis Set: CC-PVTZ
  Basis Set:
  @DF-RHF Final Energy:  -270.12576215055572
    Total Energy =                       -270.1257621505557154
  Basis Set: CC-PVTZ
  Basis Set:
  Basis Set: CC-PVTZ
  Basis Set:
  @DF-RHF Final Energy:  -270.12759417805262
    Total Energy =                       -270.1275941780523908
  Basis Set: CC-PVTZ
  Basis Set:
  @DF-RHF Final Energy:  -270.12805460301320
    Total Energy =                       -270.1280546030131973
  @DF-RHF Final Energy:  -270.12836205379517
    Total Energy =                       -270.1283620537956267
  @DF-RHF Final Energy:  -270.12850654131472
    Total Energy =                       -270.1285065413147777
  @DF-RHF Final Energy:  -270.12899948014865
    Total Energy =                       -270.1289994801484227
  @DF-RHF Final Energy:  -270.12937386394788
    Total Energy =                       -270.1293738639476487
  @DF-RHF Final Energy:  -270.12967763851242
    Total Energy =                       -270.1296776385122484
  @DF-RHF Final Energy:  -270.12994418050164
    Total Energy =                       -270.1299441805015817
  @DF-RHF Final Energy:  -270.12962559088766
    Total Energy =                       -270.1296255908879971
  @DF-RHF Final Energy:  -270.13004940588769
    Total Energy =                       -270.1300494058876325
  @DF-RHF Final Energy:  -270.13038548488919
    Total Energy =                       -270.1303854848892456
  @DF-RHF Final Energy:  -270.13051527938865
    Total Energy =                       -270.1305152793885327
  Basis Set: CC-PVTZ
  Basis Set:
  @DF-RHF Final Energy:  -270.13050088666569
    Total Energy =                       -270.1305008866655157
  Basis Set: CC-PVTZ
  Basis Set:
  Basis Set: CC-PVTZ
  Basis Set:
  @DF-RHF Final Energy:  -270.13053455832767
    Total Energy =                       -270.1305345583277813
  Basis Set: CC-PVTZ
  Basis Set:
  Basis Set: CC-PVTZ
  Basis Set:
  @DF-RHF Final Energy:  -270.13053595559541
    Total Energy =                       -270.1305359555955761
  Basis Set: CC-PVTZ
  Basis Set:
  Charge       = 0
  Multiplicity = 1
  Basis Set: CC-PVTZ
  Basis Set:

    Orbital Energies (a.u.)
    -----------------------

    Doubly Occupied:

       1A    -20.539539     2A    -11.321895     3A    -11.231215
       4A    -11.227472     5A    -11.218708     6A    -11.205905
       7A     -1.400067     8A     -1.077146     9A     -1.016121
      10A     -0.945699    11A     -0.827416    12A     -0.728712
      13A     -0.666385    14A     -0.638648    15A     -0.625557
      16A     -0.594693    17A     -0.583812    18A     -0.553075
      19A     -0.547795    20A     -0.504685    21A     -0.488064
      22A     -0.480263    23A     -0.477621    24A     -0.403144

  @DF-RHF Final Energy:  -270.13053646868354

   => Energetics <=

    Nuclear Repulsion Energy =            241.5058157766970623
    One-Electron Energy =                -844.6654320528201652
    Two-Electron Energy =                 333.0290798074396434
    DFT Exchange-Correlation Energy =       0.0000000000000000
    Empirical Dispersion Energy =           0.0000000000000000
    PCM Polarization Energy =               0.0000000000000000
    EFP Energy =                            0.0000000000000000
    Total Energy =                       -270.1305364686834309
    Molecular point group: c1
  Basis Set: CC-PVTZ
  Basis Set:

  -Total Gradient:
     Atom            X                  Y                   Z
    ------   -----------------  -----------------  -----------------
       1       -0.000038535679    -0.000026391323     0.000018180967
       2        0.000093734456     0.000139726300     0.000073811527
       3       -0.000086175396    -0.000154605217    -0.000149330975
       4       -0.000010738088     0.000021477179     0.000000149088
       5        0.000163889658     0.000110990337     0.000235097277
       6       -0.000016769711    -0.000027371986     0.000006121791
       7       -0.000000213159    -0.000004499862     0.000003923606
       8       -0.000002636424     0.000035899619    -0.000003769989
       9       -0.000119876552    -0.000060010112    -0.000181806025
      10        0.000004970439    -0.000006639283    -0.000004611435
      11        0.000009900269    -0.000003022338    -0.000001306683
      12       -0.000004232094     0.000004607063     0.000010862213
      13        0.000010686631    -0.000018953154     0.000000708909
      14        0.000000297646    -0.000008817909    -0.000017034013
      15       -0.000005477964    -0.000002981035    -0.000003418077
      16        0.000001175968     0.000000591721     0.000012421817

  **** Optimization is complete! (in 19 steps) ****
    Final optimized geometry and variables:
    Molecular point group: c1

    Geometry (in Angstrom), charge = 0, multiplicity = 1:

    O           -1.038220108046     0.901963312441    -0.627845390332
    C           -0.865304583245     0.181805998576     0.300376440677
    C            0.518982187285    -0.160973020509     0.817101653483
    C           -2.026539988870    -0.431670055820     1.048296007879
    C            1.667044898106     0.216001279697    -0.113154035627
    H            0.546366259535    -1.219443221052     1.061686887494
    H            0.617576186900     0.359818528022     1.767443874381
    C            1.770910270080    -0.675783334807    -1.347040204047
    H            1.547137500728     1.246963037068    -0.420324167257
    H            2.593392133105     0.157730318457     0.448931708369
    H            2.609711097205    -0.378512942790    -1.965423462358
    H            0.875905442939    -0.613789443006    -1.952446960142
    H            1.921057612862    -1.714132444035    -1.067244841090
    H           -2.057858422814    -1.497434832472     0.846275999026
    H           -2.952165554912     0.019801766553     0.725725575915
    H           -1.905693026746    -0.309500210074     2.118518802561

  Mulliken Charges: (a.u.)
   Center  Symbol    Alpha    Beta     Spin     Total
       1     O     4.17292  4.17292  0.00000 -0.34584
       2     C     2.86146  2.86146  0.00000  0.27707
       3     C     3.11487  3.11487  0.00000 -0.22975
       4     C     3.15068  3.15068  0.00000 -0.30137
       5     C     3.08457  3.08457  0.00000 -0.16914
       6     H     0.44562  0.44562  0.00000  0.10877
       7     H     0.43739  0.43739  0.00000  0.12522
       8     C     3.15263  3.15263  0.00000 -0.30527
       9     H     0.44493  0.44493  0.00000  0.11014
      10     H     0.44802  0.44802  0.00000  0.10396
      11     H     0.44762  0.44762  0.00000  0.10476
      12     H     0.44452  0.44452  0.00000  0.11096
      13     H     0.45902  0.45902  0.00000  0.08196
      14     H     0.44915  0.44915  0.00000  0.10171
      15     H     0.43573  0.43573  0.00000  0.12854
      16     H     0.45086  0.45086  0.00000  0.09828

   Total alpha = 24.00000, Total beta = 24.00000, Total charge =  0.00000

*** Psi4 exiting successfully. Buy a developer a beer!
