  ==> Input File <==

--------------------------------------------------------------------------
set {
	reference rhf
	basis cc-pvtz
}

set_num_threads( 4 )
memory 2 gb

molecule MOL {
0 1

O	 1.847685	 1.294399	 -0.000190
C	 1.704209	 0.119472	 -0.000093
C	 0.380337	 -0.600947	 -0.000234
O	 2.715427	 -0.733672	 0.000025
C	 -0.824290	 0.329213	 -0.000115
H	 0.371455	 -1.255476	 -0.865660
H	 0.371410	 -1.255787	 0.864952
C	 -2.146151	 -0.432825	 -0.000068
H	 -0.773936	 0.979158	 -0.866319
H	 -0.773838	 0.979034	 0.866186
C	 -3.366283	 0.483552	 0.000557
H	 -2.189286	 -1.084450	 -0.869996
H	 -2.188867	 -1.085083	 0.869399
C	 -4.053170	 0.567432	 -1.358325
H	 -3.065958	 1.479119	 0.314894
H	 -4.077299	 0.132266	 0.742994
H	 -3.376858	 0.948717	 -2.116255
H	 -4.913863	 1.225224	 -1.322946
H	 -4.396551	 -0.408720	 -1.684596
C	 4.020999	 -0.192556	 0.000019
H	 4.182809	 0.412891	 -0.879449
H	 4.692590	 -1.035653	 0.000152
H	 4.182726	 0.413087	 0.879368

	symmetry c1
}
set optking {
	frozen_dihedral = ("
		15 11 8 12
	")
}

ee = optimize('scf')
oeprop('DIPOLE', 'QUADRUPOLE', 'MULLIKEN_CHARGES')
f=open( 'psi4out.xyz', 'w' )
f.write( "23  " )
f.write( str(ee) + "\n" )
f.write( MOL.save_string_xyz() )
f.close()
--------------------------------------------------------------------------

    Molecular point group: c1
  Charge       = 0
  Multiplicity = 1
  Basis Set: CC-PVTZ
  Basis Set:
  @DF-RHF Final Energy:  -423.12601293909887
    Total Energy =                       -423.1260129390990414
    Molecular point group: c1
  Basis Set: CC-PVTZ
  Basis Set:
  Basis Set: CC-PVTZ
  Basis Set:
  @DF-RHF Final Energy:  -423.12633074016486
    Total Energy =                       -423.1263307401641214
  Basis Set: CC-PVTZ
  Basis Set:
  Basis Set: CC-PVTZ
  Basis Set:
  @DF-RHF Final Energy:  -423.12639982719730
    Total Energy =                       -423.1263998271969058
  Basis Set: CC-PVTZ
  Basis Set:
  Basis Set: CC-PVTZ
  Basis Set:
  @DF-RHF Final Energy:  -423.12614266514618
    Total Energy =                       -423.1261426651459487
  Basis Set: CC-PVTZ
  Basis Set:
  Basis Set: CC-PVTZ
  Basis Set:
  @DF-RHF Final Energy:  -423.12640756132555
    Total Energy =                       -423.1264075613257774
  Basis Set: CC-PVTZ
  Basis Set:
  Charge       = 0
  Multiplicity = 1
  Basis Set: CC-PVTZ
  Basis Set:

    Orbital Energies (a.u.)
    -----------------------

    Doubly Occupied:

       1A    -20.596327     2A    -20.534145     3A    -11.364618
       4A    -11.278494     5A    -11.233603     6A    -11.217480
       7A    -11.215695     8A    -11.214373     9A    -11.207599
      10A     -1.472223    11A     -1.365795    12A     -1.093611
      13A     -1.043140    14A     -0.987204    15A     -0.931870
      16A     -0.848105    17A     -0.792441    18A     -0.769602
      19A     -0.698918    20A     -0.686598    21A     -0.675924
      22A     -0.644482    23A     -0.616253    24A     -0.598656
      25A     -0.584583    26A     -0.565202    27A     -0.538641
      28A     -0.529508    29A     -0.523083    30A     -0.504241
      31A     -0.494954    32A     -0.468485    33A     -0.462994
      34A     -0.461458    35A     -0.456609    36A     -0.438237

  @DF-RHF Final Energy:  -423.12640784389009

   => Energetics <=

    Nuclear Repulsion Energy =            455.5564746932604976
    One-Electron Energy =               -1479.1354703093306853
    Two-Electron Energy =                 600.4525877721805500
    DFT Exchange-Correlation Energy =       0.0000000000000000
    Empirical Dispersion Energy =           0.0000000000000000
    PCM Polarization Energy =               0.0000000000000000
    EFP Energy =                            0.0000000000000000
    Total Energy =                       -423.1264078438896377
    Molecular point group: c1
  Basis Set: CC-PVTZ
  Basis Set:

  -Total Gradient:
     Atom            X                  Y                   Z
    ------   -----------------  -----------------  -----------------
       1       -0.000000636053    -0.000003490822    -0.000003334419
       2        0.000003898828    -0.000004769661     0.000016237542
       3        0.000007010753    -0.000005370824    -0.000034833093
       4        0.000005510991     0.000002548112    -0.000012446002
       5       -0.000040926836    -0.000014880028     0.000042661705
       6        0.000003932292    -0.000003503656     0.000008333400
       7        0.000001165261     0.000006250009     0.000005616672
       8       -0.001742852075    -0.002293421205     0.001272222307
       9       -0.000005164541     0.000006984389     0.000000191819
      10        0.000007293142     0.000004002306    -0.000003748037
      11       -0.000416036589    -0.000372676034     0.003080017726
      12        0.001542157398     0.001976359822    -0.001566382336
      13        0.000004518789     0.000011012682    -0.000002709275
      14       -0.000001808144    -0.000007743219     0.000032035412
      15        0.000627071442     0.000699522654    -0.002813789384
      16        0.000007417168    -0.000000101920    -0.000008645596
      17       -0.000001769860     0.000001366001     0.000003988640
      18       -0.000011472329     0.000000069992    -0.000005886941
      19        0.000006562445    -0.000001176705    -0.000012553487
      20        0.000003586165    -0.000001049259     0.000004650985
      21       -0.000000840590    -0.000000233673    -0.000000391233
      22        0.000000726725     0.000000363696    -0.000000532167
      23        0.000000655613    -0.000000062656    -0.000000704240

  **** Optimization is complete! (in 6 steps) ****
    Final optimized geometry and variables:
    Molecular point group: c1

    Geometry (in Angstrom), charge = 0, multiplicity = 1:

    O            1.765342524981     1.198529588990     0.166345163814
    C            1.626107477356     0.023116497050     0.154673420828
    C            0.304858553928    -0.702057588611     0.161122716738
    O            2.640418142850    -0.826110772463     0.133161597517
    C           -0.902730584765     0.223358743903     0.190404871461
    H            0.287464402595    -1.344228126164    -0.713399856796
    H            0.309002954055    -1.369385281614     1.016866774570
    C           -2.224315553984    -0.544133775814     0.202979905054
    H           -0.867796079950     0.883862058617    -0.668959189906
    H           -0.842227480107     0.863171141536     1.063192709897
    C           -3.454996229659     0.380112792583     0.159559182236
    H           -2.241667401027    -1.206068775235    -0.658591103551
    H           -2.259222272998    -1.176516385414     1.084210427916
    C           -4.082873052264     0.478214044221    -1.229381982638
    H           -3.164954823605     1.378751629956     0.469993421828
    H           -4.205137204665     0.038182860545     0.863345244951
    H           -3.361303512005     0.825154705906    -1.961924173591
    H           -4.916763084842     1.170943510754    -1.235482559096
    H           -4.450680794170    -0.486992545009    -1.560914768572
    C            3.943854414626    -0.280120311536     0.124091304266
    H            4.093197783365     0.335961214026    -0.750199363549
    H            4.618526964857    -1.120592888587     0.106667647882
    H            4.113781811400     0.316042579094     1.008372394546

  Mulliken Charges: (a.u.)
   Center  Symbol    Alpha    Beta     Spin     Total
       1     O     4.19702  4.19702  0.00000 -0.39405
       2     C     2.80603  2.80603  0.00000  0.38795
       3     C     3.10313  3.10313  0.00000 -0.20626
       4     O     4.14647  4.14647  0.00000 -0.29294
       5     C     3.08419  3.08419  0.00000 -0.16839
       6     H     0.43973  0.43973  0.00000  0.12053
       7     H     0.43999  0.43999  0.00000  0.12003
       8     C     3.09786  3.09786  0.00000 -0.19572
       9     H     0.44577  0.44577  0.00000  0.10845
      10     H     0.44590  0.44590  0.00000  0.10820
      11     C     3.09101  3.09101  0.00000 -0.18203
      12     H     0.45645  0.45645  0.00000  0.08710
      13     H     0.44792  0.44792  0.00000  0.10416
      14     C     3.14765  3.14765  0.00000 -0.29529
      15     H     0.45263  0.45263  0.00000  0.09474
      16     H     0.44769  0.44769  0.00000  0.10461
      17     H     0.45462  0.45462  0.00000  0.09076
      18     H     0.44872  0.44872  0.00000  0.10257
      19     H     0.45543  0.45543  0.00000  0.08914
      20     C     3.03773  3.03773  0.00000 -0.07546
      21     H     0.45436  0.45436  0.00000  0.09128
      22     H     0.44534  0.44534  0.00000  0.10931
      23     H     0.45435  0.45435  0.00000  0.09130

   Total alpha = 36.00000, Total beta = 36.00000, Total charge = -0.00000
