  ==> Input File <==

--------------------------------------------------------------------------
set {
	reference rhf
	basis 6-31G*
}

set_num_threads( 4 )
memory 2 gb

molecule MOL {
0 1

H	 -3.892951	 0.981613	 -0.358725
C	 -3.196921	 0.361773	 0.172313
C	 -2.076860	 -0.007332	 -0.404944
H	 -3.439953	 0.057760	 1.173024
O	 -1.180634	 -0.819263	 0.215062
H	 -1.811520	 0.292194	 -1.403480
C	 0.051604	 -1.018856	 -0.387932
C	 1.043764	 0.054862	 -0.001873
H	 -0.017620	 -1.041351	 -1.469781
H	 0.437898	 -1.966374	 -0.042284
F	 0.505917	 0.841592	 0.918770
F	 2.150888	 -0.460042	 0.507029
F	 1.384916	 0.805793	 -1.028571

	symmetry c1
}
set optking {
	frozen_dihedral = ("
		11 8 7 9
	")
}

ee = optimize('scf')
oeprop('DIPOLE', 'QUADRUPOLE', 'MULLIKEN_CHARGES')
f=open( 'psi4out.xyz', 'w' )
f.write( "13  " )
f.write( str(ee) + "\n" )
f.write( MOL.save_string_xyz() )
f.close()
--------------------------------------------------------------------------

    Molecular point group: c1
  Charge       = 0
  Multiplicity = 1
  Basis Set: 6-31G*
  Basis Set:
  @DF-RHF Final Energy:  -527.52787305792276
    Total Energy =                       -527.5278730579227613
    Molecular point group: c1
  Basis Set: 6-31G*
  Basis Set:
  Basis Set: 6-31G*
  Basis Set:
  @DF-RHF Final Energy:  -527.52909151031463
    Total Energy =                       -527.5290915103144016
  Basis Set: 6-31G*
  Basis Set:
  Basis Set: 6-31G*
  Basis Set:
  @DF-RHF Final Energy:  -527.52946697176526
    Total Energy =                       -527.5294669717652596
  Basis Set: 6-31G*
  Basis Set:
  Basis Set: 6-31G*
  Basis Set:
  @DF-RHF Final Energy:  -527.52950249292815
    Total Energy =                       -527.5295024929278043
  Basis Set: 6-31G*
  Basis Set:
  @DF-RHF Final Energy:  -527.52950736903244
    Total Energy =                       -527.5295073690322170
  @DF-RHF Final Energy:  -527.52950986310566
    Total Energy =                       -527.5295098631058863
  @DF-RHF Final Energy:  -527.52951232335204
    Total Energy =                       -527.5295123233519234
  Basis Set: 6-31G*
  Basis Set:
  @DF-RHF Final Energy:  -527.52951404923056
    Total Energy =                       -527.5295140492307837
  Basis Set: 6-31G*
  Basis Set:
  Basis Set: 6-31G*
  Basis Set:
  @DF-RHF Final Energy:  -527.52951555392974
    Total Energy =                       -527.5295155539304233
  Basis Set: 6-31G*
  Basis Set:
  Basis Set: 6-31G*
  Basis Set:
  @DF-RHF Final Energy:  -527.52951734140538
    Total Energy =                       -527.5295173414056080
  Basis Set: 6-31G*
  Basis Set:
  Charge       = 0
  Multiplicity = 1
  Basis Set: 6-31G*
  Basis Set:

    Orbital Energies (a.u.)
    -----------------------

    Doubly Occupied:

       1A    -26.343103     2A    -26.343019     3A    -26.341423
       4A    -20.606833     5A    -11.504990     6A    -11.318660
       7A    -11.299283     8A    -11.216591     9A     -1.742254
      10A     -1.640289    11A     -1.636973    12A     -1.437456
      13A     -1.079925    14A     -1.015208    15A     -0.925595
      16A     -0.837064    17A     -0.829932    18A     -0.821596
      19A     -0.789616    20A     -0.723152    21A     -0.715860
      22A     -0.695248    23A     -0.674682    24A     -0.660697
      25A     -0.654983    26A     -0.642367    27A     -0.626702
      28A     -0.584781    29A     -0.562326    30A     -0.524490
      31A     -0.511463    32A     -0.351782

  @DF-RHF Final Energy:  -527.52951816852328

   => Energetics <=

    Nuclear Repulsion Energy =            413.1805909036763182
    One-Electron Energy =               -1550.1035366223359233
    Two-Electron Energy =                 609.3934275501360389
    DFT Exchange-Correlation Energy =       0.0000000000000000
    Empirical Dispersion Energy =           0.0000000000000000
    PCM Polarization Energy =               0.0000000000000000
    EFP Energy =                            0.0000000000000000
    Total Energy =                       -527.5295181685235093
    Molecular point group: c1
  Basis Set: 6-31G*
  Basis Set:

  -Total Gradient:
     Atom            X                  Y                   Z
    ------   -----------------  -----------------  -----------------
       1        0.000002615270    -0.000002549434    -0.000002813771
       2        0.000002159702    -0.000001461097     0.000005430451
       3        0.000022560551    -0.000004644729     0.000021608830
       4       -0.000000833782     0.000000449288    -0.000000201721
       5        0.000076911860     0.000001852839    -0.000049313260
       6       -0.000001622682    -0.000001264591    -0.000003505306
       7        0.001665460975    -0.001516940045    -0.000472703199
       8        0.000660957107    -0.000995236023     0.001769627685
       9       -0.001679285184     0.001516975038     0.000022651478
      10        0.000005122787     0.000022144179     0.000012674744
      11       -0.000760804651     0.001053315406    -0.001432621169
      12        0.000031693070    -0.000010446065     0.000011574414
      13       -0.000024935018    -0.000062194763     0.000117590825

  **** Optimization is complete! (in 11 steps) ****
    Final optimized geometry and variables:
    Molecular point group: c1

    Geometry (in Angstrom), charge = 0, multiplicity = 1:

    H           -3.855581197975     1.022918971650    -0.336113883335
    C           -3.220193606418     0.315635333644     0.160542970445
    C           -2.034596724942     0.040974963764    -0.332450206381
    H           -3.575250922713    -0.149920933102     1.060745199599
    O           -1.199393681390    -0.856247120087     0.252810405609
    H           -1.660148690603     0.502022532724    -1.230372550774
    C            0.039545564228    -1.056846861833    -0.335621110436
    C            1.043737535098     0.058281267643    -0.013920444895
    H           -0.045990337160    -1.126447033576    -1.413525782122
    H            0.427657072703    -1.983941839675     0.055396240788
    F            0.581456682999     0.914836060090     0.869591045487
    F            2.174826362973    -0.445146494608     0.451851172927
    F            1.350364767072     0.748729186983    -1.106047260284

  Mulliken Charges: (a.u.)
   Center  Symbol    Alpha    Beta     Spin     Total
       1     H     0.40685  0.40685  0.00000  0.18630
       2     C     3.23513  3.23513  0.00000 -0.47025
       3     C     2.89849  2.89849  0.00000  0.20302
       4     H     0.40189  0.40189  0.00000  0.19622
       5     O     4.29798  4.29798  0.00000 -0.59597
       6     H     0.40588  0.40588  0.00000  0.18825
       7     C     3.08139  3.08139  0.00000 -0.16277
       8     C     2.44841  2.44841  0.00000  1.10319
       9     H     0.39998  0.39998  0.00000  0.20003
      10     H     0.38482  0.38482  0.00000  0.23035
      11     F     4.67172  4.67172  0.00000 -0.34344
      12     F     4.68231  4.68231  0.00000 -0.36462
      13     F     4.68515  4.68515  0.00000 -0.37031

   Total alpha = 32.00000, Total beta = 32.00000, Total charge =  0.00000
