  ==> Input File <==

--------------------------------------------------------------------------
set {
	reference rhf
	basis 6-31G*
}

set_num_threads( 1 )
memory 2 gb

molecule MOL {
0 1

H	 -1.836216	 1.387520	 -0.000064
C	 -1.301823	 0.443321	 -0.000031
O	 -0.003969	 0.658512	 0.000451
O	 -1.829879	 -0.616434	 -0.000857
C	 0.776726	 -0.037392	 -0.970847
C	 2.219937	 0.372056	 -0.771314
H	 0.418096	 0.222310	 -1.957385
H	 0.637893	 -1.100932	 -0.833360
H	 2.338637	 1.441210	 -0.904930
H	 2.849986	 -0.136564	 -1.493517
H	 2.559654	 0.111628	 0.224507

	symmetry c1
}
set optking {
	frozen_dihedral = ("
		7 5 3 2
	")
}

ee = energy('scf')
oeprop('DIPOLE', 'QUADRUPOLE', 'MULLIKEN_CHARGES')
f=open( 'psi4out.xyz', 'w' )
f.write( "11  " )
f.write( str(ee) + "\n" )
f.write( MOL.save_string_xyz() )
f.close()
--------------------------------------------------------------------------

    Molecular point group: c1

    Geometry (in Angstrom), charge = 0, multiplicity = 1:

       Center              X                  Y                   Z               Mass
    ------------   -----------------  -----------------  -----------------  -----------------
           H         -1.809586168372     1.226126019309     0.349983590596     1.007825032070
           C         -1.275193168372     0.281927019309     0.350016590596    12.000000000000
           O          0.022660831628     0.497118019309     0.350498590596    15.994914619560
           O         -1.803249168372    -0.777827980691     0.349190590596    15.994914619560
           C          0.803355831628    -0.198785980691    -0.620799409404    12.000000000000
           C          2.246566831628     0.210662019309    -0.421266409404    12.000000000000
           H          0.444725831628     0.060916019309    -1.607337409404     1.007825032070
           H          0.664522831628    -1.262325980691    -0.483312409404     1.007825032070
           H          2.365266831628     1.279816019309    -0.554882409404     1.007825032070
           H          2.876615831628    -0.297957980691    -1.143469409404     1.007825032070
           H          2.586283831628    -0.049765980691     0.574554590596     1.007825032070

  Charge       = 0
  Multiplicity = 1
  Basis Set: 6-31G*
  Basis Set:

    Orbital Energies (a.u.)
    -----------------------

    Doubly Occupied:

       1A    -20.600727     2A    -20.562893     3A    -11.378812
       4A    -11.297462     5A    -11.228397     6A     -1.472801
       7A     -1.375388     8A     -1.052829     9A     -0.898459
      10A     -0.815154    11A     -0.740964    12A     -0.687029
      13A     -0.665972    14A     -0.619107    15A     -0.563245
      16A     -0.548397    17A     -0.528915    18A     -0.508529
      19A     -0.464042    20A     -0.449185

  @DF-RHF Final Energy:  -266.81657355464074

   => Energetics <=

    Nuclear Repulsion Energy =            178.5008507604876229
    One-Electron Energy =                -717.7182471528413998
    Two-Electron Energy =                 272.4008228377132923
    DFT Exchange-Correlation Energy =       0.0000000000000000
    Empirical Dispersion Energy =           0.0000000000000000
    PCM Polarization Energy =               0.0000000000000000
    EFP Energy =                            0.0000000000000000
    Total Energy =                       -266.8165735546404562

  Mulliken Charges: (a.u.)
   Center  Symbol    Alpha    Beta     Spin     Total
       1     H     0.41917  0.41917  0.00000  0.16166
       2     C     2.72688  2.72688  0.00000  0.54624
       3     O     4.29622  4.29622  0.00000 -0.59244
       4     O     4.24923  4.24923  0.00000 -0.49847
       5     C     3.00684  3.00684  0.00000 -0.01367
       6     C     3.24889  3.24889  0.00000 -0.49779
       7     H     0.41633  0.41633  0.00000  0.16733
       8     H     0.40312  0.40312  0.00000  0.19377
       9     H     0.41046  0.41046  0.00000  0.17907
      10     H     0.41549  0.41549  0.00000  0.16903
      11     H     0.40737  0.40737  0.00000  0.18527

   Total alpha = 20.00000, Total beta = 20.00000, Total charge =  0.00000
