                              Psi4 1.0.54 Driver

  ==> Input File <==

--------------------------------------------------------------------------
set {
	reference rhf
	basis cc-pvtz
}

set_num_threads( 4 )
memory 2 gb

molecule MOL {
0 1

H	 -3.642953	 0.223825	 0.000000
C	 -2.571844	 0.155001	 0.000000
C	 -1.957580	 -1.086132	 0.000000
C	 -1.807160	 1.303787	 0.000000
H	 -2.551493	 -1.979629	 0.000000
C	 -0.582719	 -1.174294	 0.000000
H	 -2.279934	 2.266806	 0.000000
C	 -0.427220	 1.213406	 0.000000
H	 -0.094904	 -2.127556	 0.000000
C	 0.196908	 -0.024061	 0.000000
H	 0.151409	 2.115254	 0.000000
C	 1.690041	 -0.173233	 0.000000
C	 2.307085	 -1.384676	 0.660547
O	 2.379342	 0.649935	 -0.512464
H	 2.042331	 -1.425823	 1.710400
H	 3.378944	 -1.320288	 0.562038
H	 1.955290	 -2.297054	 0.193872

	symmetry c1
}
set optking {
	frozen_dihedral = ("
		13 12 10 8
	")
}

ee,wfn = optimize('scf', return_wfn=True)
oeprop( wfn, 'DIPOLE', 'QUADRUPOLE', 'MULLIKEN_CHARGES')
f=open( 'psi4out.xyz', 'w' )
f.write( "17  " )
f.write( str(ee) + "\n" )
f.write( MOL.save_string_xyz() )
f.close()
--------------------------------------------------------------------------

    Molecular point group: c1
  Charge       = 0
  Multiplicity = 1
  Basis Set: CC-PVTZ
  Basis Set:
  @DF-RHF Final Energy:  -382.60212358150488
    Total Energy =                       -382.6021235815047703
    Molecular point group: c1
  Basis Set: CC-PVTZ
  Basis Set:
  Basis Set: CC-PVTZ
  Basis Set:
  @DF-RHF Final Energy:  -382.58952012743219
    Total Energy =                       -382.5895201274317969
  Basis Set: CC-PVTZ
  Basis Set:
  Basis Set: CC-PVTZ
  Basis Set:
  @DF-RHF Final Energy:  -382.60247025036364
    Total Energy =                       -382.6024702503636945
  Basis Set: CC-PVTZ
  Basis Set:
  Basis Set: CC-PVTZ
  Basis Set:
  @DF-RHF Final Energy:  -382.60160627390059
    Total Energy =                       -382.6016062739010977
  Basis Set: CC-PVTZ
  Basis Set:
  @DF-RHF Final Energy:  -382.12903214486676
    Total Energy =                       -382.1290321448668692
  @DF-RHF Final Energy:  -382.35285705430988
    Total Energy =                       -382.3528570543096521
  @DF-RHF Final Energy:  -382.55110876261870
    Total Energy =                       -382.5511087626189237
  @DF-RHF Final Energy:  -382.59955404075640
    Total Energy =                       -382.5995540407565159
  @DF-RHF Final Energy:  -382.60350837725377
    Total Energy =                       -382.6035083772538883
  Basis Set: CC-PVTZ
  Basis Set:
  @DF-RHF Final Energy:  -382.60408381587240
    Total Energy =                       -382.6040838158722863
  Basis Set: CC-PVTZ
  Basis Set:
  Basis Set: CC-PVTZ
  Basis Set:
  @DF-RHF Final Energy:  -382.60411014065136
    Total Energy =                       -382.6041101406514144
  Basis Set: CC-PVTZ
  Basis Set:
  Basis Set: CC-PVTZ
  Basis Set:
  @DF-RHF Final Energy:  -382.60411328796130
    Total Energy =                       -382.6041132879612405
  Basis Set: CC-PVTZ
  Basis Set:
  Charge       = 0
  Multiplicity = 1
  Basis Set: CC-PVTZ
  Basis Set:

    Orbital Energies (a.u.)
    -----------------------

    Doubly Occupied:

       1A    -20.541667     2A    -11.328120     3A    -11.246203
       4A    -11.243364     5A    -11.243264     6A    -11.239620
       7A    -11.239180     8A    -11.237111     9A    -11.229461
      10A     -1.402733    11A     -1.171308    12A     -1.053544
      13A     -1.030702    14A     -0.999232    15A     -0.864354
      16A     -0.839620    17A     -0.764009    18A     -0.711641
      19A     -0.660283    20A     -0.651790    21A     -0.627972
      22A     -0.615962    23A     -0.603063    24A     -0.596121
      25A     -0.557903    26A     -0.530307    27A     -0.519792
      28A     -0.504684    29A     -0.497108    30A     -0.414482
      31A     -0.350352    32A     -0.347055

  @DF-RHF Final Energy:  -382.60411477517118

   => Energetics <=

    Nuclear Repulsion Energy =            404.3744060096197472
    One-Electron Energy =               -1320.2330259337159077
    Two-Electron Energy =                 533.2545051489249772
    DFT Exchange-Correlation Energy =       0.0000000000000000
    Empirical Dispersion Energy =           0.0000000000000000
    PCM Polarization Energy =               0.0000000000000000
    EFP Energy =                            0.0000000000000000
    Total Energy =                       -382.6041147751711833
    Molecular point group: c1
  Basis Set: CC-PVTZ
  Basis Set:

  -Total Gradient:
     Atom            X                  Y                   Z
    ------   -----------------  -----------------  -----------------
       1        0.000005162480     0.000006388152     0.000007108383
       2       -0.000023656952    -0.000024666885    -0.000031704671
       3       -0.000021622917    -0.000070554053    -0.000009764719
       4        0.000013404357     0.000049612612     0.000012118540
       5        0.000014207282     0.000007775637     0.000002633807
       6        0.000032080546     0.000012362293     0.000004591244
       7        0.000000102623     0.000013473896     0.000005731719
       8       -0.000309132907    -0.000940482509     0.002619898232
       9        0.000001148788    -0.000015407092    -0.000004880077
      10        0.000043461259     0.001532926903    -0.002574146860
      11        0.000001378097     0.000011977134    -0.000006594032
      12        0.001026476026    -0.000916410678    -0.002409265213
      13       -0.000827121792     0.000356250112     0.002349790261
      14        0.000005870769     0.000045973775    -0.000001002985
      15       -0.000034797365    -0.000058498515     0.000056700792
      16        0.000041610595     0.000046219022     0.000015571051
      17        0.000031429105    -0.000056939805    -0.000036785472

  **** Optimization is complete! (in 13 steps) ****
    Final optimized geometry and variables:
    Molecular point group: c1

    Geometry (in Angstrom), charge = 0, multiplicity = 1:

    H           -3.232846300024    -1.478292662125    -0.814943714007
    C           -2.281062041155    -1.038842495563    -0.584933880315
    C           -1.123446864913    -1.772520685584    -0.752848768790
    C           -2.214122266939     0.261812986821    -0.116394173569
    H           -1.171733578622    -2.780673759214    -1.116729390968
    C            0.101033312489    -1.209566528701    -0.444520687534
    H           -3.113415642042     0.830592678128     0.021430665757
    C           -0.990849852512     0.828953684945     0.171911056466
    H            0.990718090110    -1.794797687490    -0.569569111676
    C            0.177969650613     0.098868524935     0.005156472002
    H           -0.925849974364     1.839027559010     0.523284941628
    C            1.481650051306     0.749580414664     0.364630698578
    C            2.615035582092    -0.123670240730     0.852218697655
    O            1.598669771283     1.931857281744     0.318837735731
    H            2.279438194057    -0.761901818626     1.660518346465
    H            3.420730211241     0.509513587964     1.189340706507
    H            2.978293370590    -0.764311364488     0.056817269891

  Mulliken Charges: (a.u.)
   Center  Symbol    Alpha    Beta     Spin     Total
       1     H     0.42049  0.42049  0.00000  0.15902
       2     C     3.07589  3.07589  0.00000 -0.15178
       3     C     3.07206  3.07206  0.00000 -0.14412
       4     C     3.07135  3.07135  0.00000 -0.14270
       5     H     0.42195  0.42195  0.00000  0.15611
       6     C     3.08778  3.08778  0.00000 -0.17556
       7     H     0.42052  0.42052  0.00000  0.15896
       8     C     3.08180  3.08180  0.00000 -0.16361
       9     H     0.42281  0.42281  0.00000  0.15437
      10     C     2.99494  2.99494  0.00000  0.01012
      11     H     0.40975  0.40975  0.00000  0.18050
      12     C     2.85094  2.85094  0.00000  0.29812
      13     C     3.16302  3.16302  0.00000 -0.32604
      14     O     4.17917  4.17917  0.00000 -0.35833
      15     H     0.44462  0.44462  0.00000  0.11076
      16     H     0.43296  0.43296  0.00000  0.13408
      17     H     0.44995  0.44995  0.00000  0.10010

   Total alpha = 32.00000, Total beta = 32.00000, Total charge =  0.00000

*** Psi4 exiting successfully. Buy a developer a beer!
