  ==> Input File <==

--------------------------------------------------------------------------
set {
	reference rhf
	basis cc-pvtz
}

set_num_threads( 4 )
memory 2 gb

molecule MOL {
0 1

O	 -2.440701	 -0.934798	 -0.415053
C	 -1.922978	 0.063265	 -0.045005
C	 -2.632749	 1.372204	 0.158357
O	 -0.637375	 0.157174	 0.243149
H	 -2.187724	 2.129143	 -0.474664
H	 -3.677681	 1.257276	 -0.079438
H	 -2.516788	 1.693160	 1.185542
C	 0.162530	 -1.009518	 0.097799
C	 1.587210	 -0.664190	 0.477086
H	 0.096803	 -1.356267	 -0.924704
H	 -0.233803	 -1.785900	 0.736810
C	 2.256770	 0.342732	 -0.454344
H	 2.154716	 -1.590834	 0.479041
H	 1.598751	 -0.289614	 1.496104
C	 1.951625	 0.077039	 -1.924688
H	 1.926764	 1.344517	 -0.192387
H	 3.328951	 0.320464	 -0.296948
H	 2.435134	 0.807634	 -2.562525
H	 0.885177	 0.122249	 -2.119719
H	 2.300044	 -0.905547	 -2.224928

	symmetry c1
}
set optking {
	frozen_dihedral = ("
		16 12 9 8
	")
}

ee = optimize('scf')
oeprop('DIPOLE', 'QUADRUPOLE', 'MULLIKEN_CHARGES')
f=open( 'psi4out.xyz', 'w' )
f.write( "20  " )
f.write( str(ee) + "\n" )
f.write( MOL.save_string_xyz() )
f.close()
--------------------------------------------------------------------------

    Molecular point group: c1
  Charge       = 0
  Multiplicity = 1
  Basis Set: CC-PVTZ
  Basis Set:
  @DF-RHF Final Energy:  -384.08278883637513
    Total Energy =                       -384.0827888363750162
    Molecular point group: c1
  Basis Set: CC-PVTZ
  Basis Set:
  Basis Set: CC-PVTZ
  Basis Set:
  @DF-RHF Final Energy:  -384.08412440280853
    Total Energy =                       -384.0841244028088113
  Basis Set: CC-PVTZ
  Basis Set:
  Basis Set: CC-PVTZ
  Basis Set:
  @DF-RHF Final Energy:  -384.08466314738865
    Total Energy =                       -384.0846631473884827
  Basis Set: CC-PVTZ
  Basis Set:
  Basis Set: CC-PVTZ
  Basis Set:
  @DF-RHF Final Energy:  -384.08396394991109
    Total Energy =                       -384.0839639499108671
  Basis Set: CC-PVTZ
  Basis Set:
  Basis Set: CC-PVTZ
  Basis Set:
  @DF-RHF Final Energy:  -384.08473926852662
    Total Energy =                       -384.0847392685263912
  Basis Set: CC-PVTZ
  Basis Set:
  Basis Set: CC-PVTZ
  Basis Set:
  @DF-RHF Final Energy:  -384.08475584323190
    Total Energy =                       -384.0847558432313917
  Basis Set: CC-PVTZ
  Basis Set:
  Charge       = 0
  Multiplicity = 1
  Basis Set: CC-PVTZ
  Basis Set:

    Orbital Energies (a.u.)
    -----------------------

    Doubly Occupied:

       1A    -20.594072     2A    -20.532638     3A    -11.366548
       4A    -11.279144     5A    -11.231636     6A    -11.223973
       7A    -11.219554     8A    -11.211499     9A     -1.470714
      10A     -1.364928    11A     -1.086272    12A     -1.027406
      13A     -0.979937    14A     -0.893568    15A     -0.806960
      16A     -0.769508    17A     -0.693069    18A     -0.691171
      19A     -0.666819    20A     -0.625697    21A     -0.618532
      22A     -0.579591    23A     -0.573310    24A     -0.563751
      25A     -0.537601    26A     -0.530313    27A     -0.523518
      28A     -0.479549    29A     -0.474869    30A     -0.469851
      31A     -0.453213    32A     -0.441624

  @DF-RHF Final Energy:  -384.08475667776753

   => Energetics <=

    Nuclear Repulsion Energy =            393.5729866197079332
    One-Electron Energy =               -1303.3538247906126344
    Two-Electron Energy =                 525.6960814931371715
    DFT Exchange-Correlation Energy =       0.0000000000000000
    Empirical Dispersion Energy =           0.0000000000000000
    PCM Polarization Energy =               0.0000000000000000
    EFP Energy =                            0.0000000000000000
    Total Energy =                       -384.0847566777674729
    Molecular point group: c1
  Basis Set: CC-PVTZ
  Basis Set:

  -Total Gradient:
     Atom            X                  Y                   Z
    ------   -----------------  -----------------  -----------------
       1        0.000022337897     0.000015798667    -0.000008291955
       2       -0.000016453641    -0.000001747240    -0.000024159786
       3       -0.000002241917    -0.000004633059     0.000016396397
       4        0.000012428503    -0.000030546262    -0.000052813277
       5        0.000000043870    -0.000001610835    -0.000001946851
       6       -0.000000809741     0.000001719800     0.000001009134
       7        0.000000012628     0.000003434823    -0.000001061797
       8        0.000881332265    -0.002142397322    -0.001596569286
       9       -0.000581088550     0.003190727440     0.003024232938
      10        0.000003028909    -0.000001712783    -0.000066529947
      11        0.000030195848     0.000012736336    -0.000036235096
      12       -0.003380325921    -0.001278714977    -0.003776839393
      13        0.000031157530    -0.000011469269     0.000007661739
      14       -0.000000351139     0.000016624874    -0.000021111683
      15       -0.000053817645    -0.000012345032     0.000055743122
      16        0.003038212116     0.000252932291     0.002463925159
      17        0.000018780386    -0.000006410974    -0.000010261328
      18        0.000002514035    -0.000002992996     0.000009003018
      19       -0.000000492611     0.000012568844     0.000006635237
      20       -0.000004462829    -0.000011962328     0.000011213655

  **** Optimization is complete! (in 7 steps) ****
    Final optimized geometry and variables:
    Molecular point group: c1

    Geometry (in Angstrom), charge = 0, multiplicity = 1:

    O           -2.246963362039    -0.890081009249    -0.064722013160
    C           -1.711471522997     0.124832615959     0.225627300620
    C           -2.406903532618     1.448605071414     0.373024561848
    O           -0.415760307340     0.226195627742     0.461033889827
    H           -1.980180549145     2.162326076079    -0.319906802020
    H           -3.460152482323     1.327242805764     0.179088492062
    H           -2.253132312242     1.830272461641     1.374089879510
    C            0.371777254530    -0.954802761728     0.363160767386
    C            1.809474646124    -0.601781603757     0.682682122816
    H            0.266760212181    -1.366768849688    -0.629293859105
    H           -0.005807925898    -1.686660926427     1.063048205295
    C            2.473299673633     0.425680316979    -0.241606720462
    H            2.366898693429    -1.534008024888     0.637938658099
    H            1.871232273364    -0.253609851481     1.707715926466
    C            2.248538883894     0.209837342979    -1.734209049988
    H            2.163930103381     1.424234410287     0.046180268353
    H            3.540655243264     0.392499636776    -0.043430512632
    H            2.840795855351     0.910819125748    -2.310366087898
    H            1.211975924776     0.353618806621    -2.013042335511
    H            2.539252656660    -0.791292415225    -2.036796313739

  Mulliken Charges: (a.u.)
   Center  Symbol    Alpha    Beta     Spin     Total
       1     O     4.19713  4.19713  0.00000 -0.39426
       2     C     2.81033  2.81033  0.00000  0.37935
       3     C     3.13828  3.13828  0.00000 -0.27656
       4     O     4.15613  4.15613  0.00000 -0.31227
       5     H     0.44620  0.44620  0.00000  0.10760
       6     H     0.43791  0.43791  0.00000  0.12417
       7     H     0.44562  0.44562  0.00000  0.10877
       8     C     2.99782  2.99782  0.00000  0.00437
       9     C     3.09421  3.09421  0.00000 -0.18841
      10     H     0.44753  0.44753  0.00000  0.10494
      11     H     0.43895  0.43895  0.00000  0.12209
      12     C     3.08535  3.08535  0.00000 -0.17070
      13     H     0.45095  0.45095  0.00000  0.09809
      14     H     0.44732  0.44732  0.00000  0.10536
      15     C     3.15805  3.15805  0.00000 -0.31610
      16     H     0.44925  0.44925  0.00000  0.10150
      17     H     0.44961  0.44961  0.00000  0.10079
      18     H     0.44450  0.44450  0.00000  0.11099
      19     H     0.45169  0.45169  0.00000  0.09662
      20     H     0.45317  0.45317  0.00000  0.09366

   Total alpha = 32.00000, Total beta = 32.00000, Total charge = -0.00000
