  ==> Input File <==

--------------------------------------------------------------------------
set {
	reference rhf
	basis 6-31G*
}

set_num_threads( 1 )
memory 2 gb

molecule MOL {
0 1

H	 -1.170201	 0.191129	 0.994127
C	 -0.790252	 0.431209	 0.000000
N	 0.538815	 0.649616	 0.000000
O	 -1.507160	 0.484090	 -0.955226
C	 1.521968	 -0.411503	 0.000000
H	 0.852804	 1.592852	 0.000000
H	 2.150599	 -0.357004	 -0.881901
H	 0.999455	 -1.354525	 0.000000
H	 2.150599	 -0.357004	 0.881901

	symmetry c1
}
set optking {
	frozen_dihedral = ("
		6 3 5 7
	")
}

ee = energy('scf')
oeprop('DIPOLE', 'QUADRUPOLE', 'MULLIKEN_CHARGES')
f=open( 'psi4out.xyz', 'w' )
f.write( "9  " )
f.write( str(ee) + "\n" )
f.write( MOL.save_string_xyz() )
f.close()
--------------------------------------------------------------------------

    Molecular point group: c1

    Geometry (in Angstrom), charge = 0, multiplicity = 1:

       Center              X                  Y                   Z               Mass
    ------------   -----------------  -----------------  -----------------  -----------------
           H         -1.123467904778    -0.093256388039     1.235955424892     1.007825032070
           C         -0.743518904778     0.146823611961     0.241828424892    12.000000000000
           N          0.585548095222     0.365230611961     0.241828424892    14.003074004780
           O         -1.460426904778     0.199704611961    -0.713397575108    15.994914619560
           C          1.568701095222    -0.695888388039     0.241828424892    12.000000000000
           H          0.899537095222     1.308466611961     0.241828424892     1.007825032070
           H          2.197332095222    -0.641389388039    -0.640072575108     1.007825032070
           H          1.046188095222    -1.638910388039     0.241828424892     1.007825032070
           H          2.197332095222    -0.641389388039     1.123729424892     1.007825032070

  Charge       = 0
  Multiplicity = 1
  Basis Set: 6-31G*
  Basis Set:

    Orbital Energies (a.u.)
    -----------------------

    Doubly Occupied:

       1A    -20.561263     2A    -15.551090     3A    -11.349220
       4A    -11.266828     5A     -1.405308     6A     -1.225746
       7A     -0.958021     8A     -0.824697     9A     -0.713247
      10A     -0.668758    11A     -0.640585    12A     -0.597838
      13A     -0.565084    14A     -0.508985    15A     -0.439754
      16A     -0.377138

  @DF-RHF Final Energy:  -207.91812916776306

   => Energetics <=

    Nuclear Repulsion Energy =            120.9291798956843138
    One-Electron Energy =                -522.3874994627273054
    Two-Electron Energy =                 193.5401903992798509
    DFT Exchange-Correlation Energy =       0.0000000000000000
    Empirical Dispersion Energy =           0.0000000000000000
    PCM Polarization Energy =               0.0000000000000000
    EFP Energy =                            0.0000000000000000
    Total Energy =                       -207.9181291677631123

  Mulliken Charges: (a.u.)
   Center  Symbol    Alpha    Beta     Spin     Total
       1     H     0.43181  0.43181  0.00000  0.13638
       2     C     2.76545  2.76545  0.00000  0.46910
       3     N     3.89795  3.89795  0.00000 -0.79591
       4     O     4.22690  4.22690  0.00000 -0.45379
       5     C     3.13253  3.13253  0.00000 -0.26506
       6     H     0.30716  0.30716  0.00000  0.38569
       7     H     0.40989  0.40989  0.00000  0.18022
       8     H     0.41072  0.41072  0.00000  0.17855
       9     H     0.41759  0.41759  0.00000  0.16483

   Total alpha = 16.00000, Total beta = 16.00000, Total charge = -0.00000
