  ==> Input File <==

--------------------------------------------------------------------------
set {
	reference rhf
	basis 6-31G*
}

set_num_threads( 4 )
memory 2 gb

molecule MOL {
0 1

O	 2.862325	 1.357334	 0.000267
C	 2.843464	 0.164689	 -0.000222
C	 1.546494	 -0.624492	 -0.000609
C	 4.124123	 -0.644674	 -0.000428
C	 0.291004	 0.242674	 0.000989
H	 1.557904	 -1.283758	 -0.867573
H	 1.558622	 -1.285963	 0.864672
C	 -0.768139	 -0.260943	 0.983001
H	 -0.121106	 0.273802	 -1.002667
H	 0.564607	 1.264341	 0.244885
C	 -2.032254	 0.600254	 0.992190
H	 -1.035350	 -1.287112	 0.734762
H	 -0.347734	 -0.291215	 1.987198
C	 -3.096548	 0.102822	 1.971911
H	 -2.453765	 0.630649	 -0.011016
H	 -1.766458	 1.626121	 1.241078
C	 -4.356329	 0.968052	 1.975193
H	 -3.363917	 -0.922154	 1.723392
H	 -2.676838	 0.073440	 2.975325
H	 -4.819152	 0.990221	 0.992618
H	 -5.091856	 0.590061	 2.678629
H	 -4.127416	 1.992603	 2.254547
H	 4.165367	 -1.288615	 -0.874074
H	 4.976217	 0.020734	 -0.001915
H	 4.166763	 -1.286207	 0.874930

	symmetry c1
}
set optking {
	frozen_dihedral = ("
		9 5 3 6
	")
}

ee = optimize('scf')
oeprop('DIPOLE', 'QUADRUPOLE', 'MULLIKEN_CHARGES')
f=open( 'psi4out.xyz', 'w' )
f.write( "25  " )
f.write( str(ee) + "\n" )
f.write( MOL.save_string_xyz() )
f.close()
--------------------------------------------------------------------------

    Molecular point group: c1
  Charge       = 0
  Multiplicity = 1
  Basis Set: 6-31G*
  Basis Set:
  @DF-RHF Final Energy:  -387.13234826518897
    Total Energy =                       -387.1323482651890799
    Molecular point group: c1
  Basis Set: 6-31G*
  Basis Set:
  Basis Set: 6-31G*
  Basis Set:
  @DF-RHF Final Energy:  -387.13264432892703
    Total Energy =                       -387.1326443289268582
  Basis Set: 6-31G*
  Basis Set:
  Basis Set: 6-31G*
  Basis Set:
  @DF-RHF Final Energy:  -387.13261388700727
    Total Energy =                       -387.1326138870073237
  Basis Set: 6-31G*
  Basis Set:
  Basis Set: 6-31G*
  Basis Set:
  @DF-RHF Final Energy:  -387.13271853755714
    Total Energy =                       -387.1327185375567979
  Basis Set: 6-31G*
  Basis Set:
  Basis Set: 6-31G*
  Basis Set:
  @DF-RHF Final Energy:  -387.13273997683422
    Total Energy =                       -387.1327399768341593
  Basis Set: 6-31G*
  Basis Set:
  Charge       = 0
  Multiplicity = 1
  Basis Set: 6-31G*
  Basis Set:

    Orbital Energies (a.u.)
    -----------------------

    Doubly Occupied:

       1A    -20.551023     2A    -11.327109     3A    -11.232160
       4A    -11.228556     5A    -11.216246     6A    -11.215101
       7A    -11.214844     8A    -11.212778     9A    -11.207892
      10A     -1.396478    11A     -1.091977    12A     -1.055310
      13A     -1.014449    14A     -0.968198    15A     -0.890806
      16A     -0.814344    17A     -0.790281    18A     -0.729123
      19A     -0.665031    20A     -0.645789    21A     -0.632358
      22A     -0.623151    23A     -0.595359    24A     -0.583481
      25A     -0.570983    26A     -0.558879    27A     -0.536763
      28A     -0.525670    29A     -0.514670    30A     -0.493631
      31A     -0.483890    32A     -0.472147    33A     -0.463333
      34A     -0.460838    35A     -0.447079    36A     -0.400331

  @DF-RHF Final Energy:  -387.13274078255876

   => Energetics <=

    Nuclear Repulsion Energy =            439.0562501136616333
    One-Electron Energy =               -1394.7178648766130209
    Two-Electron Energy =                 568.5288739803921771
    DFT Exchange-Correlation Energy =       0.0000000000000000
    Empirical Dispersion Energy =           0.0000000000000000
    PCM Polarization Energy =               0.0000000000000000
    EFP Energy =                            0.0000000000000000
    Total Energy =                       -387.1327407825591536
    Molecular point group: c1
  Basis Set: 6-31G*
  Basis Set:

  -Total Gradient:
     Atom            X                  Y                   Z
    ------   -----------------  -----------------  -----------------
       1        0.000115869306    -0.000068602102     0.000065088213
       2        0.000061671943    -0.000203038155    -0.000161397975
       3       -0.001909569937    -0.002646656048     0.002021354181
       4        0.000112046238     0.000186524941    -0.000002018632
       5        0.002126239905     0.002827991328    -0.000914851582
       6        0.001213450816     0.001821295412    -0.001406518675
       7       -0.000084668637    -0.000069275601    -0.000048628646
       8        0.000013514316     0.000030365271    -0.000205567865
       9       -0.001439498322    -0.002076218209     0.000703767506
      10       -0.000142481113     0.000115010163    -0.000140884876
      11       -0.000059939905    -0.000012309262     0.000077990026
      12       -0.000035301060    -0.000006457198    -0.000032332666
      13        0.000042764603    -0.000021447558    -0.000082668910
      14       -0.000025812839     0.000077024739     0.000019904270
      15        0.000024994702    -0.000020215900     0.000026124709
      16       -0.000007715487     0.000008586399    -0.000017614421
      17       -0.000020649120    -0.000019190961     0.000030184621
      18        0.000005922818     0.000010886102    -0.000004965367
      19       -0.000006675757    -0.000003752082     0.000020717624
      20        0.000009470502     0.000001327499    -0.000000080024
      21       -0.000018817826     0.000005949763    -0.000000951605
      22       -0.000000783079     0.000000028308     0.000004086900
      23       -0.000047438223     0.000035612697     0.000023204606
      24        0.000109537160    -0.000020880113     0.000005689835
      25       -0.000036131000     0.000047440569     0.000020368755

  **** Optimization is complete! (in 6 steps) ****
    Final optimized geometry and variables:
    Molecular point group: c1

    Geometry (in Angstrom), charge = 0, multiplicity = 1:

    O            2.763935470357     1.138034331369    -0.677702352341
    C            2.713251452863    -0.053323744618    -0.672423538213
    C            1.401963756210    -0.825683359819    -0.633931741319
    C            3.975345291030    -0.891506041438    -0.703097477922
    C            0.138205281509     0.046598003856    -0.625550217940
    H            1.411887488999    -1.490015614838    -1.495565962213
    H            1.438318344114    -1.475402252962     0.238378921845
    C           -0.934029377129    -0.471489347986     0.337421090814
    H           -0.284582278353     0.075343253690    -1.625628239603
    H            0.404780222197     1.063177527936    -0.366549865046
    C           -2.204987589551     0.378878275028     0.331398292673
    H           -1.188038164708    -1.499865030326     0.083662599858
    H           -0.524955933269    -0.498717413413     1.346186969502
    C           -3.272578437029    -0.119601252653     1.307184453989
    H           -2.620169565889     0.398504263318    -0.674941203903
    H           -1.948675629435     1.408547877694     0.574324274673
    C           -4.539796831863     0.734631404292     1.293922501594
    H           -3.529212884017    -1.148952282253     1.065336357455
    H           -2.860231886182    -0.136798797951     2.313854681672
    H           -4.995443735600     0.744684590198     0.307753743352
    H           -5.277377097506     0.356151465591     1.994954246927
    H           -4.321717232061     1.763344744801     1.566449989126
    H            3.983643799360    -1.531072426042    -1.580799678540
    H            4.842161445007    -0.245603520524    -0.719493595318
    H            4.021798211223    -1.538749284605     0.167781169778

  Mulliken Charges: (a.u.)
   Center  Symbol    Alpha    Beta     Spin     Total
       1     O     4.26001  4.26001  0.00000 -0.52001
       2     C     2.73928  2.73928  0.00000  0.52145
       3     C     3.21273  3.21273  0.00000 -0.42546
       4     C     3.28714  3.28714  0.00000 -0.57428
       5     C     3.15486  3.15486  0.00000 -0.30971
       6     H     0.40780  0.40780  0.00000  0.18440
       7     H     0.40772  0.40772  0.00000  0.18456
       8     C     3.15584  3.15584  0.00000 -0.31167
       9     H     0.41952  0.41952  0.00000  0.16096
      10     H     0.39581  0.39581  0.00000  0.20839
      11     C     3.15147  3.15147  0.00000 -0.30294
      12     H     0.42525  0.42525  0.00000  0.14950
      13     H     0.42359  0.42359  0.00000  0.15283
      14     C     3.15142  3.15142  0.00000 -0.30283
      15     H     0.42384  0.42384  0.00000  0.15232
      16     H     0.42125  0.42125  0.00000  0.15749
      17     C     3.23932  3.23932  0.00000 -0.47864
      18     H     0.42385  0.42385  0.00000  0.15231
      19     H     0.42307  0.42307  0.00000  0.15385
      20     H     0.42183  0.42183  0.00000  0.15634
      21     H     0.41958  0.41958  0.00000  0.16084
      22     H     0.42106  0.42106  0.00000  0.15788
      23     H     0.40864  0.40864  0.00000  0.18272
      24     H     0.39629  0.39629  0.00000  0.20742
      25     H     0.40885  0.40885  0.00000  0.18229

   Total alpha = 36.00000, Total beta = 36.00000, Total charge =  0.00000
